generated from tmp.xyz

18 atoms
2 atom types

-26.09065 19.175568 xlo xhi
-20.726611 25.11653 ylo yhi
-21.91282 21.86035 zlo zhi

Atoms

1	2 -4.053030 0.065001 -1.525160
2	1 -4.566710 0.974813 -1.912820
3	1 -3.067820 0.330172 -1.477310
4	2 -4.581760 -0.256435 0.939478
5	1 -4.349860 0.471090 1.504340
6	1 -5.393870 -0.726611 1.228070
7	2 -1.645860 0.870179 -1.502250
8	1 -1.568890 1.501730 -0.721051
9	1 -0.824432 0.282220 -1.377720
10	2 -1.975360 2.858040 0.453140
11	1 -1.223550 3.375850 0.786238
12	1 -2.537520 2.567960 1.156120
13	2 -4.066610 4.258280 -0.900064
14	1 -3.224110 3.876870 -0.569443
15	1 -3.737450 5.116530 -1.322720
16	2 -5.628340 3.730740 1.385610
17	1 -6.090650 4.418470 1.860350
18	1 -5.158540 4.200260 0.615875
