generated from tmp.xyz

6 atoms
2 atom types

-24.56671 16.93218 xlo xhi
-19.934999 25.11653 ylo yhi
-21.91282 19.430557 zlo zhi

Atoms

1	2 -4.053030 0.065001 -1.525160
2	1 -4.566710 0.974813 -1.912820
3	1 -3.067820 0.330172 -1.477310
4	2 -4.066610 4.258280 -0.900064
5	1 -3.224110 3.876870 -0.569443
6	1 -3.737450 5.116530 -1.322720
