generated from tmp.xyz

6 atoms
2 atom types

-24.56671 19.175568 xlo xhi
-19.934999 21.50173 ylo yhi
-21.91282 19.278949 zlo zhi

Atoms

1	2 -4.053030 0.065001 -1.525160
2	1 -4.566710 0.974813 -1.912820
3	1 -3.067820 0.330172 -1.477310
4	2 -1.645860 0.870179 -1.502250
5	1 -1.568890 1.501730 -0.721051
6	1 -0.824432 0.282220 -1.377720
