generated from tmp.xyz

12 atoms
2 atom types

-25.42857 19.175568 xlo xhi
-19.934999 25.11653 ylo yhi
-23.23517 19.430557 zlo zhi

Atoms

1	2 -4.053030 0.065001 -1.525160
2	1 -4.566710 0.974813 -1.912820
3	1 -3.067820 0.330172 -1.477310
4	2 -5.293160 2.192130 -2.328800
5	1 -4.829300 2.988660 -1.973850
6	1 -5.428570 2.328640 -3.235170
7	2 -1.645860 0.870179 -1.502250
8	1 -1.568890 1.501730 -0.721051
9	1 -0.824432 0.282220 -1.377720
10	2 -4.066610 4.258280 -0.900064
11	1 -3.224110 3.876870 -0.569443
12	1 -3.737450 5.116530 -1.322720
