generated from tmp.xyz

10 atoms
2 atom types

-26.09065 16.93218 xlo xhi
-20.049164 25.11653 ylo yhi
-21.91282 21.86035 zlo zhi

Atoms

1	2 -4.053030 0.065001 -1.525160
2	1 -4.566710 0.974813 -1.912820
3	1 -3.067820 0.330172 -1.477310
4	1 -4.370360 -0.049164 -0.572274
5	2 -4.066610 4.258280 -0.900064
6	1 -3.224110 3.876870 -0.569443
7	1 -3.737450 5.116530 -1.322720
8	2 -5.628340 3.730740 1.385610
9	1 -6.090650 4.418470 1.860350
10	1 -5.158540 4.200260 0.615875
