generated from tmp.xyz

16 atoms
2 atom types

-25.42857 18.77645 xlo xhi
-20.726611 25.11653 ylo yhi
-23.23517 21.50434 zlo zhi

Atoms

1	2 -4.053030 0.065001 -1.525160
2	1 -4.566710 0.974813 -1.912820
3	1 -3.067820 0.330172 -1.477310
4	1 -4.370360 -0.049164 -0.572274
5	2 -4.581760 -0.256435 0.939478
6	1 -4.349860 0.471090 1.504340
7	1 -5.393870 -0.726611 1.228070
8	2 -5.293160 2.192130 -2.328800
9	1 -4.829300 2.988660 -1.973850
10	1 -5.428570 2.328640 -3.235170
11	2 -1.975360 2.858040 0.453140
12	1 -1.223550 3.375850 0.786238
13	1 -2.537520 2.567960 1.156120
14	2 -4.066610 4.258280 -0.900064
15	1 -3.224110 3.876870 -0.569443
16	1 -3.737450 5.116530 -1.322720
