begin 
comment File generated by xyz2runner.awk 
atom      -7.659119727      0.122834137     -2.882135845  O       0.000000       0.000000       0.000000       0.000000       0.000000 
atom      -8.629834630      1.842130327     -3.614707366  H       0.000000       0.000000       0.000000       0.000000       0.000000 
atom      -5.797341910      0.623934903     -2.791712414  H       0.000000       0.000000       0.000000       0.000000       0.000000 
atom      -7.216640179      3.826678030      4.134703511  O       0.000000       0.000000       0.000000       0.000000       0.000000 
atom      -6.974755139      3.706434709      6.051188922  H       0.000000       0.000000       0.000000       0.000000       0.000000 
atom      -8.591624353      5.199205559      3.865190664  H       0.000000       0.000000       0.000000       0.000000       0.000000 
energy      0.00000000 
charge      0.00000000 
end 
