generated from tmp.xyz

10 atoms
2 atom types

-25.39387 16.93218 xlo xhi
-20.726611 25.11653 ylo yhi
-21.91282 21.50434 zlo zhi

Atoms

1	2 -4.053030 0.065001 -1.525160
2	1 -4.566710 0.974813 -1.912820
3	1 -3.067820 0.330172 -1.477310
4	1 -4.370360 -0.049164 -0.572274
5	2 -4.581760 -0.256435 0.939478
6	1 -4.349860 0.471090 1.504340
7	1 -5.393870 -0.726611 1.228070
8	2 -4.066610 4.258280 -0.900064
9	1 -3.224110 3.876870 -0.569443
10	1 -3.737450 5.116530 -1.322720
