generated from tmp.xyz

13 atoms
2 atom types

-24.56671 19.175568 xlo xhi
-20.049164 25.11653 ylo yhi
-21.91282 21.15612 zlo zhi

Atoms

1	2 -4.053030 0.065001 -1.525160
2	1 -4.566710 0.974813 -1.912820
3	1 -3.067820 0.330172 -1.477310
4	1 -4.370360 -0.049164 -0.572274
5	2 -1.645860 0.870179 -1.502250
6	1 -1.568890 1.501730 -0.721051
7	1 -0.824432 0.282220 -1.377720
8	2 -1.975360 2.858040 0.453140
9	1 -1.223550 3.375850 0.786238
10	1 -2.537520 2.567960 1.156120
11	2 -4.066610 4.258280 -0.900064
12	1 -3.224110 3.876870 -0.569443
13	1 -3.737450 5.116530 -1.322720
