generated from tmp.xyz

19 atoms
2 atom types

-26.09065 19.175568 xlo xhi
-20.049164 25.11653 ylo yhi
-23.23517 21.86035 zlo zhi

Atoms

1	2 -4.053030 0.065001 -1.525160
2	1 -4.566710 0.974813 -1.912820
3	1 -3.067820 0.330172 -1.477310
4	1 -4.370360 -0.049164 -0.572274
5	2 -5.293160 2.192130 -2.328800
6	1 -4.829300 2.988660 -1.973850
7	1 -5.428570 2.328640 -3.235170
8	2 -1.645860 0.870179 -1.502250
9	1 -1.568890 1.501730 -0.721051
10	1 -0.824432 0.282220 -1.377720
11	2 -1.975360 2.858040 0.453140
12	1 -1.223550 3.375850 0.786238
13	1 -2.537520 2.567960 1.156120
14	2 -4.066610 4.258280 -0.900064
15	1 -3.224110 3.876870 -0.569443
16	1 -3.737450 5.116530 -1.322720
17	2 -5.628340 3.730740 1.385610
18	1 -6.090650 4.418470 1.860350
19	1 -5.158540 4.200260 0.615875
