LAMMPS (28 Jun 2014)
:q
ERROR: Unknown command: :q (../input.cpp:228)
