generated from tmp.xyz

12 atoms
2 atom types

-25.42857 16.93218 xlo xhi
-20.726611 22.98866 ylo yhi
-23.23517 23.20215 zlo zhi

Atoms

1	2 -4.053030 0.065001 -1.525160
2	1 -4.566710 0.974813 -1.912820
3	1 -3.067820 0.330172 -1.477310
4	2 -4.581760 -0.256435 0.939478
5	1 -4.349860 0.471090 1.504340
6	1 -5.393870 -0.726611 1.228070
7	2 -5.293160 2.192130 -2.328800
8	1 -4.829300 2.988660 -1.973850
9	1 -5.428570 2.328640 -3.235170
10	2 -3.818880 2.024990 2.187990
11	1 -3.690880 1.961360 3.202150
12	1 -4.546490 2.751300 2.045370
