generated from tmp.xyz

12 atoms
2 atom types

-26.09065 16.93218 xlo xhi
-20.726611 24.41847 ylo yhi
-21.91282 23.20215 zlo zhi

Atoms

1	2 -4.053030 0.065001 -1.525160
2	1 -4.566710 0.974813 -1.912820
3	1 -3.067820 0.330172 -1.477310
4	2 -4.581760 -0.256435 0.939478
5	1 -4.349860 0.471090 1.504340
6	1 -5.393870 -0.726611 1.228070
7	2 -3.818880 2.024990 2.187990
8	1 -3.690880 1.961360 3.202150
9	1 -4.546490 2.751300 2.045370
10	2 -5.628340 3.730740 1.385610
11	1 -6.090650 4.418470 1.860350
12	1 -5.158540 4.200260 0.615875
