generated from tmp.xyz

6 atoms
2 atom types

-24.56671 18.77645 xlo xhi
-19.934999 23.37585 ylo yhi
-21.91282 21.15612 zlo zhi

Atoms

1	2 -4.053030 0.065001 -1.525160
2	1 -4.566710 0.974813 -1.912820
3	1 -3.067820 0.330172 -1.477310
4	2 -1.975360 2.858040 0.453140
5	1 -1.223550 3.375850 0.786238
6	1 -2.537520 2.567960 1.156120
