generated from tmp.xyz

19 atoms
2 atom types

-26.09065 19.175568 xlo xhi
-20.726611 24.41847 ylo yhi
-21.91282 23.20215 zlo zhi

Atoms

1	2 -4.053030 0.065001 -1.525160
2	1 -4.566710 0.974813 -1.912820
3	1 -3.067820 0.330172 -1.477310
4	1 -4.370360 -0.049164 -0.572274
5	2 -4.581760 -0.256435 0.939478
6	1 -4.349860 0.471090 1.504340
7	1 -5.393870 -0.726611 1.228070
8	2 -1.645860 0.870179 -1.502250
9	1 -1.568890 1.501730 -0.721051
10	1 -0.824432 0.282220 -1.377720
11	2 -3.818880 2.024990 2.187990
12	1 -3.690880 1.961360 3.202150
13	1 -4.546490 2.751300 2.045370
14	2 -1.975360 2.858040 0.453140
15	1 -1.223550 3.375850 0.786238
16	1 -2.537520 2.567960 1.156120
17	2 -5.628340 3.730740 1.385610
18	1 -6.090650 4.418470 1.860350
19	1 -5.158540 4.200260 0.615875
