generated from tmp.xyz

12 atoms
2 atom types

-26.09065 19.175568 xlo xhi
-19.934999 24.41847 ylo yhi
-21.91282 21.86035 zlo zhi

Atoms

1	2 -4.053030 0.065001 -1.525160
2	1 -4.566710 0.974813 -1.912820
3	1 -3.067820 0.330172 -1.477310
4	2 -1.645860 0.870179 -1.502250
5	1 -1.568890 1.501730 -0.721051
6	1 -0.824432 0.282220 -1.377720
7	2 -1.975360 2.858040 0.453140
8	1 -1.223550 3.375850 0.786238
9	1 -2.537520 2.567960 1.156120
10	2 -5.628340 3.730740 1.385610
11	1 -6.090650 4.418470 1.860350
12	1 -5.158540 4.200260 0.615875
