
.Version 5.3.4  of ABINIT 
.(sequential version, prepared for a x86_64_linux_UNKNOWN computer) 

.Copyright (C) 1998-2007 ABINIT group . 
 ABINIT comes with ABSOLUTELY NO WARRANTY.
 It is free software, and you are welcome to redistribute it
 under certain conditions (GNU General Public License,
 see ~abinit/COPYING or http://www.gnu.org/copyleft/gpl.txt).

 ABINIT is a project of the Universite Catholique de Louvain,
 Corning Inc. and other collaborators, see ~abinit/doc/developers/contributors.txt .
 Please read ~abinit/doc/users/acknowledgments.html for suggested
 acknowledgments of the ABINIT effort.
 For more information, see http://www.abinit.org .

.Starting date : Wed 29 Jul 2015.
  
- input  file    -> c1n.in
- output file    -> c1n.out
- root for input  files -> c1n_xi
- root for output files -> c1n_xo


 Symmetries : space group P1 (#  1); Bravais aP (primitive triclinic)
================================================================================
 Values of the parameters that define the memory need of the present run
   intxc =         0  ionmov =         0    iscf =         7     ixc =         1
  lmnmax =         1   lnmax =         1   mband =         5  mffmem =         1
P  mgfft =        72   mkmem =         1 mpssoang=         1     mpw =     11792
  mqgrid =      3001   natom =         3    nfft =    373248    nkpt =         1
  nloalg =         4  nspden =         1 nspinor =         1  nsppol =         1
    nsym =         1  n1xccc =         0  ntypat =         2  occopt =         1
================================================================================
P This job should need less than                      96.616 Mbytes of memory.
  Rough estimation (10% accuracy) of disk space for files :
  WF disk file :      0.902 Mbytes ; DEN or POT disk file :      2.850 Mbytes.
================================================================================

 -outvars: echo values of preprocessed input variables --------
     acell    2.5000000000E+01  2.5000000000E+01  2.5000000000E+01 Bohr
       amu    1.00794000E+00  1.59994000E+01
    diemac    2.00000000E+00
      ecut    1.00000000E+01 Hartree
    istwfk      2
P    mkmem         1
     natom         3
     nband         5
     ngfft        72      72      72
      nkpt         1
     nstep        10
      nsym         1
    ntypat         2
       occ    2.000000  2.000000  2.000000  2.000000  0.000000
   spgroup         1
    toldfe    1.00000000E-10 Hartree
     typat    2  1  1
    xangst   -4.0530300000E+00  6.5001000000E-02 -1.5251600000E+00
             -4.5667100000E+00  9.7481300000E-01 -1.9128200000E+00
             -3.0678200000E+00  3.3017200000E-01 -1.4773100000E+00
     xcart   -7.6591166764E+00  1.2283408785E-01 -2.8821346968E+00
             -8.6298311923E+00  1.8421295931E+00 -3.6147059264E+00
             -5.7973396008E+00  6.2393465414E-01 -2.7917113017E+00
      xred   -3.0636466706E-01  4.9133635140E-03 -1.1528538787E-01
             -3.4519324769E-01  7.3685183723E-02 -1.4458823706E-01
             -2.3189358403E-01  2.4957386166E-02 -1.1166845207E-01
     znucl      1.00000    8.00000

================================================================================

 chkinp: Checking input parameters for consistency.

================================================================================
== DATASET  1 ==================================================================

 Real(R)+Recip(G) space primitive vectors, cartesian coordinates (Bohr,Bohr^-1):
 R(1)= 25.0000000  0.0000000  0.0000000  G(1)=  0.0400000  0.0000000  0.0000000
 R(2)=  0.0000000 25.0000000  0.0000000  G(2)=  0.0000000  0.0400000  0.0000000
 R(3)=  0.0000000  0.0000000 25.0000000  G(3)=  0.0000000  0.0000000  0.0400000
 Unit cell volume ucvol=  1.5625000E+04 bohr^3
 Angles (23,13,12)=  9.00000000E+01  9.00000000E+01  9.00000000E+01 degrees

 getcut: wavevector=  0.0000  0.0000  0.0000  ngfft=  72  72  72
         ecut(hartree)=     10.000   => boxcut(ratio)=   2.02315

--- Pseudopotential description ------------------------------------------------
- pspini: atom type   1  psp file is Psps_for_tests/01h.pspgth
- pspatm: opening atomic psp file    Psps_for_tests/01h.pspgth
 Goedecker-Teter-Hutter  Wed May  8 14:27:44 EDT 1996
   1.00000   1.00000    960508                znucl, zion, pspdat
    2    1    0    0      2001   0.00000      pspcod,pspxc,lmax,lloc,mmax,r2well
 rloc=   0.2000000
  cc1=  -4.0663326; cc2=   0.6778322; cc3=   0.0000000; cc4=   0.0000000
  rrs=   0.0000000; h1s=   0.0000000; h2s=   0.0000000
  rrp=   0.0000000; h1p=   0.0000000
-  Local part computed in reciprocal space.

 pspatm : COMMENT -
  the projectors are not normalized,
  so that the KB energies are not consistent with
  definition in PRB44, 8503 (1991).
  However, this does not influence the results obtained hereafter.
 pspatm: epsatm=   -0.00480358
         --- l  ekb(1:nproj) -->
 pspatm: atomic psp has been read  and splines computed

- pspini: atom type   2  psp file is Psps_for_tests/08o.pspgth
- pspatm: opening atomic psp file    Psps_for_tests/08o.pspgth
   O SG LDA PSP
   8.00000   6.00000    960531                znucl, zion, pspdat
    2    1    0    0      2001   0.00000      pspcod,pspxc,lmax,lloc,mmax,r2well
 rloc=   0.2477535
  cc1= -16.4822284; cc2=   2.3701353; cc3=   0.0000000; cc4=   0.0000000
  rrs=   0.2222028; h1s=  18.1996387; h2s=   0.0000000
  rrp=   0.0000000; h1p=   0.0000000
-  Local part computed in reciprocal space.

 pspatm : COMMENT -
  the projectors are not normalized,
  so that the KB energies are not consistent with
  definition in PRB44, 8503 (1991).
  However, this does not influence the results obtained hereafter.
 pspatm: epsatm=    0.06936534
         --- l  ekb(1:nproj) -->
             0    0.707809
 pspatm: atomic psp has been read  and splines computed

   4.78065464E-01                                ecore*ucvol(ha*bohr**3)
--------------------------------------------------------------------------------

P newkpt: treating      5 bands with npw=   11792 for ikpt=   1

 setup2: Arith. and geom. avg. npw (full set) are   23583.000   23583.000

================================================================================

     iter   Etot(hartree)      deltaE(h)  residm     vres2    diffor    maxfor
 ETOT  1  -12.878430476066    -1.288E+01 3.285E-02 4.333E+03 4.507E-01 4.507E-01
 ETOT  2  -14.491121403182    -1.613E+00 2.715E-01 2.362E+03 5.573E-01 1.476E-01
 ETOT  3  -15.513455547923    -1.022E+00 1.745E-02 5.261E+02 1.120E-01 5.067E-02
 ETOT  4  -15.584887999886    -7.143E-02 6.648E-04 2.505E+02 4.101E-02 4.398E-02
 ETOT  5  -15.608349464642    -2.346E-02 8.120E-05 1.483E+02 1.779E-02 4.058E-02
 ETOT  6  -15.631390349556    -2.304E-02 1.133E-04 4.754E+01 2.423E-02 5.376E-02
 ETOT  7  -15.639650108639    -8.260E-03 4.536E-05 1.206E+01 1.592E-02 6.147E-02
 ETOT  8  -15.642406764068    -2.757E-03 2.430E-05 4.311E-01 1.302E-02 6.889E-02
 ETOT  9  -15.642469979609    -6.322E-05 3.521E-07 1.227E-01 1.165E-03 6.936E-02
 ETOT 10  -15.642499589659    -2.961E-05 3.415E-07 4.970E-04 1.550E-03 7.031E-02

 Cartesian components of stress tensor (hartree/bohr^3)
  sigma(1 1)=  4.66313034E-05  sigma(3 2)=  1.53508962E-06
  sigma(2 2)=  5.24287379E-05  sigma(3 1)= -6.71212568E-07
  sigma(3 3)=  5.73424734E-05  sigma(2 1)= -2.72016661E-06


 scprqt:  WARNING -
  nstep=   10 was not enough SCF cycles to converge;
  maximum energy difference=  2.961E-05 exceeds toldfe=  1.000E-10

================================================================================

 ----iterations are completed or convergence reached----

 Mean square residual over all n,k,spin=   1.7906E-07; max=  3.4154E-07
   0.0000  0.0000  0.0000    1  3.41544E-07 kpt; spin; max resid(k); each band:
 2.51E-07 8.62E-08 2.08E-07 7.97E-09 3.42E-07
 reduced coordinates (array xred) for    3 atoms
      -0.306364667055      0.004913363514     -0.115285387872
      -0.345193247691      0.073685183723     -0.144588237056
      -0.231893584031      0.024957386166     -0.111668452069
 rms dE/dt=  8.8114E-01; max dE/dt=  1.7579E+00; dE/dt below (all hartree)
    1       1.757860977061      0.948872327992     -0.079771824275
    2      -0.221501009762     -0.219162598925      0.042645325225
    3      -1.536043639560     -0.728860325320      0.035086425341

 cartesian coordinates (angstrom) at end:
    1     -4.05303000000000     0.06500100000000    -1.52516000000000
    2     -4.56671000000000     0.97481300000000    -1.91282000000000
    3     -3.06782000000000     0.33017200000000    -1.47731000000000

 cartesian forces (hartree/bohr) at end:
    1     -0.07031022137927    -0.03794356773639     0.00316367198821
    2      0.00886425809368     0.00877782934028    -0.00173301399177
    3      0.06144596328559     0.02916573839611    -0.00143065799644
 frms,max,avg= 3.5245445E-02 7.0310221E-02  -4.218E-06 -1.133E-05  2.720E-05 h/b

 cartesian forces (eV/Angstrom) at end:
    1     -3.61549671675979    -1.95113657562060     0.16268254404390
    2      0.45581844866238     0.45137410375758    -0.08911515672141
    3      3.15967826809742     1.49976247186302    -0.07356738732249
 frms,max,avg= 1.8123935E+00 3.6154967E+00  -2.169E-04 -5.824E-04  1.399E-03 e/A
 length scales= 25.000000000000 25.000000000000 25.000000000000 bohr
              = 13.229430270000 13.229430270000 13.229430270000 angstroms
 prteigrs : about to open file c1n_xo_EIG
 Fermi (or HOMO) energy (hartree) =  -0.25114   Average Vxc (hartree)=  -0.01551
 Eigenvalues (hartree) for nkpt=   1  k points:
 kpt#   1, nband=  5, wtk=  1.00000, kpt=  0.0000  0.0000  0.0000 (reduced coord)
  -0.99663  -0.45253  -0.34889  -0.25114  -0.04884

,Min el dens=  7.3938E-11 el/bohr^3 at reduced coord.  0.0417  0.7500  0.3611
,   next min=  2.4665E-10 el/bohr^3 at reduced coord.  0.2778  0.8056  0.5694
,Max el dens=  5.8425E-01 el/bohr^3 at reduced coord.  0.6944  0.9861  0.8611
,   next max=  5.8118E-01 el/bohr^3 at reduced coord.  0.6806  0.0000  0.9028

--------------------------------------------------------------------------------
 Components of total free energy (in Hartree) :

    Kinetic energy  =  8.87719450860303E+00
    Hartree energy  =  1.53376327376427E+01
    XC energy       = -3.70085534281812E+00
    Ewald energy    =  2.64721726975760E+00
    PspCore energy  =  3.05961896889257E-05
    Loc. psp. energy= -4.11642804229104E+01
    NL   psp  energy=  2.36056106387610E+00
    >>>>>>>>> Etotal= -1.56424995896594E+01

 Other information on the energy :
    Total energy(eV)= -4.25654070875314E+02 ; Band energy (Ha)=  -4.0983862768E+00
--------------------------------------------------------------------------------

 Cartesian components of stress tensor (hartree/bohr^3)
  sigma(1 1)=  4.66313034E-05  sigma(3 2)=  1.53508962E-06
  sigma(2 2)=  5.24287379E-05  sigma(3 1)= -6.71212568E-07
  sigma(3 3)=  5.73424734E-05  sigma(2 1)= -2.72016661E-06

-Cartesian components of stress tensor (GPa)         [Pressure= -1.5338E+00 GPa]
- sigma(1 1)=  1.37194013E+00  sigma(3 2)=  4.51638900E-02
- sigma(2 2)=  1.54250652E+00  sigma(3 1)= -1.97477530E-02
- sigma(3 3)=  1.68707359E+00  sigma(2 1)= -8.00300543E-02

== END DATASET(S) ==============================================================
================================================================================
  
 -outvars: echo values of variables after computation  --------
     acell    2.5000000000E+01  2.5000000000E+01  2.5000000000E+01 Bohr
       amu    1.00794000E+00  1.59994000E+01
    diemac    2.00000000E+00
      ecut    1.00000000E+01 Hartree
    etotal   -1.5642499590E+01
     fcart   -7.0310221379E-02 -3.7943567736E-02  3.1636719882E-03
              8.8642580937E-03  8.7778293403E-03 -1.7330139918E-03
              6.1445963286E-02  2.9165738396E-02 -1.4306579964E-03
    istwfk      2
P    mkmem         1
     natom         3
     nband         5
     ngfft        72      72      72
      nkpt         1
     nstep        10
      nsym         1
    ntypat         2
       occ    2.000000  2.000000  2.000000  2.000000  0.000000
   spgroup         1
    strten    4.6631303390E-05  5.2428737922E-05  5.7342473376E-05
              1.5350896213E-06 -6.7121256847E-07 -2.7201666129E-06
    toldfe    1.00000000E-10 Hartree
     typat    2  1  1
    xangst   -4.0530300000E+00  6.5001000000E-02 -1.5251600000E+00
             -4.5667100000E+00  9.7481300000E-01 -1.9128200000E+00
             -3.0678200000E+00  3.3017200000E-01 -1.4773100000E+00
     xcart   -7.6591166764E+00  1.2283408785E-01 -2.8821346968E+00
             -8.6298311923E+00  1.8421295931E+00 -3.6147059264E+00
             -5.7973396008E+00  6.2393465414E-01 -2.7917113017E+00
      xred   -3.0636466706E-01  4.9133635140E-03 -1.1528538787E-01
             -3.4519324769E-01  7.3685183723E-02 -1.4458823706E-01
             -2.3189358403E-01  2.4957386166E-02 -1.1166845207E-01
     znucl      1.00000    8.00000

================================================================================

- Total cpu        time (s,m,h):         19.5        0.33      0.005
- Total wall clock time (s,m,h):         19.5        0.33      0.005

- For major independent code sections, cpu and wall times (sec),
- as well as % of the total time and number of calls 

- routine                 cpu     %       wall     %      number of calls 
-                                                          (-1=no count)
- fourwf(pot)           12.779  65.4     12.780  65.4            299
- fourdp                 1.625   8.3      1.624   8.3             43
- fourwf(den)            1.370   7.0      1.367   7.0             40
- forces                 0.569   2.9      0.567   2.9             10
- xc:pot/=fourdp         0.529   2.7      0.533   2.7             11
- timing timab           0.387   2.0      0.387   2.0             13
- projbd                 0.279   1.4      0.290   1.5            478
- nonlop(apply)          0.178   0.9      0.172   0.9            299
- stress                 0.106   0.5      0.107   0.5              1
- 57   others            0.466   2.4      0.480   2.5

- subtotal              18.288  93.6     18.307  93.7

================================================================================

 Calculation completed.
.Delivered    2 WARNINGs and   3 COMMENTs to log file.
+Overall time at end (sec) : cpu=         19.5  wall=         19.5
