
.Version 5.3.4  of ABINIT 
.(sequential version, prepared for a x86_64_linux_UNKNOWN computer) 

.Copyright (C) 1998-2007 ABINIT group . 
 ABINIT comes with ABSOLUTELY NO WARRANTY.
 It is free software, and you are welcome to redistribute it
 under certain conditions (GNU General Public License,
 see ~abinit/COPYING or http://www.gnu.org/copyleft/gpl.txt).

 ABINIT is a project of the Universite Catholique de Louvain,
 Corning Inc. and other collaborators, see ~abinit/doc/developers/contributors.txt .
 Please read ~abinit/doc/users/acknowledgments.html for suggested
 acknowledgments of the ABINIT effort.
 For more information, see http://www.abinit.org .

.Starting date : Wed 29 Jul 2015.
  
- input  file    -> c1p.in
- output file    -> c1p.out
- root for input  files -> c1p_xi
- root for output files -> c1p_xo


 Symmetries : space group P1 (#  1); Bravais aP (primitive triclinic)
================================================================================
 Values of the parameters that define the memory need of the present run
   intxc =         0  ionmov =         0    iscf =         7     ixc =         1
  lmnmax =         1   lnmax =         1   mband =         6  mffmem =         1
P  mgfft =        72   mkmem =         1 mpssoang=         1     mpw =     11792
  mqgrid =      3001   natom =         4    nfft =    373248    nkpt =         1
  nloalg =         4  nspden =         1 nspinor =         1  nsppol =         1
    nsym =         1  n1xccc =         0  ntypat =         2  occopt =         1
================================================================================
P This job should need less than                      96.810 Mbytes of memory.
  Rough estimation (10% accuracy) of disk space for files :
  WF disk file :      1.082 Mbytes ; DEN or POT disk file :      2.850 Mbytes.
================================================================================

 -outvars: echo values of preprocessed input variables --------
     acell    2.5000000000E+01  2.5000000000E+01  2.5000000000E+01 Bohr
       amu    1.00794000E+00  1.59994000E+01
    diemac    2.00000000E+00
      ecut    1.00000000E+01 Hartree
    istwfk      2
P    mkmem         1
     natom         4
     nband         6
     ngfft        72      72      72
      nkpt         1
     nstep        10
      nsym         1
    ntypat         2
       occ    2.000000  2.000000  2.000000  2.000000  1.000000  0.000000
   spgroup         1
    toldfe    1.00000000E-10 Hartree
     typat    2  1  1  1
    xangst   -4.0530300000E+00  6.5001000000E-02 -1.5251600000E+00
             -4.5667100000E+00  9.7481300000E-01 -1.9128200000E+00
             -3.0678200000E+00  3.3017200000E-01 -1.4773100000E+00
             -4.3703600000E+00 -4.9164000000E-02 -5.7227400000E-01
     xcart   -7.6591166764E+00  1.2283408785E-01 -2.8821346968E+00
             -8.6298311923E+00  1.8421295931E+00 -3.6147059264E+00
             -5.7973396008E+00  6.2393465414E-01 -2.7917113017E+00
             -8.2587834676E+00 -9.2906495209E-02 -1.0814411285E+00
      xred   -3.0636466706E-01  4.9133635140E-03 -1.1528538787E-01
             -3.4519324769E-01  7.3685183723E-02 -1.4458823706E-01
             -2.3189358403E-01  2.4957386166E-02 -1.1166845207E-01
             -3.3035133871E-01 -3.7162598084E-03 -4.3257645138E-02
     znucl      1.00000    8.00000

================================================================================

 chkinp: Checking input parameters for consistency.

================================================================================
== DATASET  1 ==================================================================

 Real(R)+Recip(G) space primitive vectors, cartesian coordinates (Bohr,Bohr^-1):
 R(1)= 25.0000000  0.0000000  0.0000000  G(1)=  0.0400000  0.0000000  0.0000000
 R(2)=  0.0000000 25.0000000  0.0000000  G(2)=  0.0000000  0.0400000  0.0000000
 R(3)=  0.0000000  0.0000000 25.0000000  G(3)=  0.0000000  0.0000000  0.0400000
 Unit cell volume ucvol=  1.5625000E+04 bohr^3
 Angles (23,13,12)=  9.00000000E+01  9.00000000E+01  9.00000000E+01 degrees

 getcut: wavevector=  0.0000  0.0000  0.0000  ngfft=  72  72  72
         ecut(hartree)=     10.000   => boxcut(ratio)=   2.02315

--- Pseudopotential description ------------------------------------------------
- pspini: atom type   1  psp file is Psps_for_tests/01h.pspgth
- pspatm: opening atomic psp file    Psps_for_tests/01h.pspgth
 Goedecker-Teter-Hutter  Wed May  8 14:27:44 EDT 1996
   1.00000   1.00000    960508                znucl, zion, pspdat
    2    1    0    0      2001   0.00000      pspcod,pspxc,lmax,lloc,mmax,r2well
 rloc=   0.2000000
  cc1=  -4.0663326; cc2=   0.6778322; cc3=   0.0000000; cc4=   0.0000000
  rrs=   0.0000000; h1s=   0.0000000; h2s=   0.0000000
  rrp=   0.0000000; h1p=   0.0000000
-  Local part computed in reciprocal space.

 pspatm : COMMENT -
  the projectors are not normalized,
  so that the KB energies are not consistent with
  definition in PRB44, 8503 (1991).
  However, this does not influence the results obtained hereafter.
 pspatm: epsatm=   -0.00480358
         --- l  ekb(1:nproj) -->
 pspatm: atomic psp has been read  and splines computed

- pspini: atom type   2  psp file is Psps_for_tests/08o.pspgth
- pspatm: opening atomic psp file    Psps_for_tests/08o.pspgth
   O SG LDA PSP
   8.00000   6.00000    960531                znucl, zion, pspdat
    2    1    0    0      2001   0.00000      pspcod,pspxc,lmax,lloc,mmax,r2well
 rloc=   0.2477535
  cc1= -16.4822284; cc2=   2.3701353; cc3=   0.0000000; cc4=   0.0000000
  rrs=   0.2222028; h1s=  18.1996387; h2s=   0.0000000
  rrp=   0.0000000; h1p=   0.0000000
-  Local part computed in reciprocal space.

 pspatm : COMMENT -
  the projectors are not normalized,
  so that the KB energies are not consistent with
  definition in PRB44, 8503 (1991).
  However, this does not influence the results obtained hereafter.
 pspatm: epsatm=    0.06936534
         --- l  ekb(1:nproj) -->
             0    0.707809
 pspatm: atomic psp has been read  and splines computed

   4.94591423E-01                                ecore*ucvol(ha*bohr**3)
--------------------------------------------------------------------------------

P newkpt: treating      6 bands with npw=   11792 for ikpt=   1

 setup2: Arith. and geom. avg. npw (full set) are   23583.000   23583.000

================================================================================

     iter   Etot(hartree)      deltaE(h)  residm     vres2    diffor    maxfor
 ETOT  1  -14.454988950763    -1.445E+01 5.541E-02 1.983E+03 4.384E-01 4.384E-01
 ETOT  2  -15.042005416452    -5.870E-01 8.032E-03 1.231E+03 4.711E-01 9.835E-02
 ETOT  3  -16.047903778555    -1.006E+00 2.024E-02 7.598E+01 1.515E-01 1.058E-01
 ETOT  4  -16.083774569566    -3.587E-02 2.770E-04 1.819E+01 2.024E-02 8.996E-02
 ETOT  5  -16.089333247144    -5.559E-03 9.947E-05 2.906E+00 1.058E-02 1.001E-01
 ETOT  6  -16.089819927136    -4.867E-04 5.781E-05 1.480E+00 1.051E-02 1.093E-01
 ETOT  7  -16.090135397760    -3.155E-04 7.000E-05 3.601E-01 1.913E-03 1.077E-01
 ETOT  8  -16.090299018630    -1.636E-04 1.021E-04 5.759E-03 2.604E-03 1.052E-01
 ETOT  9  -16.090299879958    -8.613E-07 1.289E-04 2.704E-03 8.497E-05 1.052E-01
 ETOT 10  -16.090301011869    -1.132E-06 2.057E-05 8.585E-05 2.003E-04 1.050E-01

 Cartesian components of stress tensor (hartree/bohr^3)
  sigma(1 1)=  4.13599368E-05  sigma(3 2)=  4.51812809E-06
  sigma(2 2)=  5.21259711E-05  sigma(3 1)=  2.20744819E-06
  sigma(3 3)=  4.36696045E-05  sigma(2 1)= -4.21418513E-07


 scprqt:  WARNING -
  nstep=   10 was not enough SCF cycles to converge;
  maximum energy difference=  1.132E-06 exceeds toldfe=  1.000E-10

================================================================================

 ----iterations are completed or convergence reached----

 Mean square residual over all n,k,spin=   3.4356E-06; max=  2.0568E-05
   0.0000  0.0000  0.0000    1  2.05679E-05 kpt; spin; max resid(k); each band:
 1.46E-08 1.28E-09 8.29E-09 1.34E-08 7.97E-09 2.06E-05
 reduced coordinates (array xred) for    4 atoms
      -0.306364667055      0.004913363514     -0.115285387872
      -0.345193247691      0.073685183723     -0.144588237056
      -0.231893584031      0.024957386166     -0.111668452069
      -0.330351338705     -0.003716259808     -0.043257645138
 rms dE/dt=  1.4669E+00; max dE/dt=  2.4402E+00; dE/dt below (all hartree)
    1       1.007375301907      1.670994224604      2.440221368897
    2       0.649760231066     -1.184377909063      0.424961500852
    3      -2.441156198578     -0.694097686108     -0.239794362593
    4       0.783736047828      0.208202315661     -2.626283940564

 cartesian coordinates (angstrom) at end:
    1     -4.05303000000000     0.06500100000000    -1.52516000000000
    2     -4.56671000000000     0.97481300000000    -1.91282000000000
    3     -3.06782000000000     0.33017200000000    -1.47731000000000
    4     -4.37036000000000    -0.04916400000000    -0.57227400000000

 cartesian forces (hartree/bohr) at end:
    1     -0.04029785825405    -0.06683255953322    -0.09761780908997
    2     -0.02599325542041     0.04738232581347    -0.01700741436815
    3      0.09764340176535     0.02777111689525     0.00958282016963
    4     -0.03135228809089    -0.00832088317550     0.10504240328848
 frms,max,avg= 5.8675052E-02 1.0504240E-01   2.846E-06 -7.209E-06  8.954E-06 h/b

 cartesian forces (eV/Angstrom) at end:
    1     -2.07219905373427    -3.43666816609172    -5.01970924480850
    2     -1.33662684865452     2.43649699930471    -0.87455635329210
    3      5.02102527300468     1.42804815552928     0.49276839385440
    4     -1.61219937061589    -0.42787698874227     5.40149720424620
 frms,max,avg= 3.0171923E+00 5.4014972E+00   1.464E-04 -3.707E-04  4.605E-04 e/A
 length scales= 25.000000000000 25.000000000000 25.000000000000 bohr
              = 13.229430270000 13.229430270000 13.229430270000 angstroms
 prteigrs : about to open file c1p_xo_EIG
 Fermi (or HOMO) energy (hartree) =  -0.11114   Average Vxc (hartree)=  -0.02501
 Eigenvalues (hartree) for nkpt=   1  k points:
 kpt#   1, nband=  6, wtk=  1.00000, kpt=  0.0000  0.0000  0.0000 (reduced coord)
  -1.14358  -0.56524  -0.54128  -0.41056  -0.11114  -0.02257

,Min el dens=  2.0390E-09 el/bohr^3 at reduced coord.  0.1667  0.6250  0.5972
,   next min=  2.1130E-09 el/bohr^3 at reduced coord.  0.0833  0.6250  0.4722
,Max el dens=  5.9997E-01 el/bohr^3 at reduced coord.  0.6806  0.9861  0.8750
,   next max=  5.8835E-01 el/bohr^3 at reduced coord.  0.6944  0.9861  0.8750

--------------------------------------------------------------------------------
 Components of total free energy (in Hartree) :

    Kinetic energy  =  9.47348693387109E+00
    Hartree energy  =  1.73603488879746E+01
    XC energy       = -3.99933000965827E+00
    Ewald energy    =  5.46533171765717E+00
    PspCore energy  =  3.16538511001262E-05
    Loc. psp. energy= -4.68306816379530E+01
    NL   psp  energy=  2.44051144238826E+00
    >>>>>>>>> Etotal= -1.60903010118691E+01

 Other information on the energy :
    Total energy(eV)= -4.37839367554710E+02 ; Band energy (Ha)=  -5.4324594594E+00
--------------------------------------------------------------------------------

 Cartesian components of stress tensor (hartree/bohr^3)
  sigma(1 1)=  4.13599368E-05  sigma(3 2)=  4.51812809E-06
  sigma(2 2)=  5.21259711E-05  sigma(3 1)=  2.20744819E-06
  sigma(3 3)=  4.36696045E-05  sigma(2 1)= -4.21418513E-07

-Cartesian components of stress tensor (GPa)         [Pressure= -1.3451E+00 GPa]
- sigma(1 1)=  1.21685119E+00  sigma(3 2)=  1.32927900E-01
- sigma(2 2)=  1.53359882E+00  sigma(3 1)=  6.49453594E-02
- sigma(3 3)=  1.28480395E+00  sigma(2 1)= -1.23985591E-02

== END DATASET(S) ==============================================================
================================================================================
  
 -outvars: echo values of variables after computation  --------
     acell    2.5000000000E+01  2.5000000000E+01  2.5000000000E+01 Bohr
       amu    1.00794000E+00  1.59994000E+01
    diemac    2.00000000E+00
      ecut    1.00000000E+01 Hartree
    etotal   -1.6090301012E+01
     fcart   -4.0297858254E-02 -6.6832559533E-02 -9.7617809090E-02
             -2.5993255420E-02  4.7382325813E-02 -1.7007414368E-02
              9.7643401765E-02  2.7771116895E-02  9.5828201696E-03
             -3.1352288091E-02 -8.3208831755E-03  1.0504240329E-01
    istwfk      2
P    mkmem         1
     natom         4
     nband         6
     ngfft        72      72      72
      nkpt         1
     nstep        10
      nsym         1
    ntypat         2
       occ    2.000000  2.000000  2.000000  2.000000  1.000000  0.000000
   spgroup         1
    strten    4.1359936752E-05  5.2125971088E-05  4.3669604521E-05
              4.5181280852E-06  2.2074481854E-06 -4.2141851339E-07
    toldfe    1.00000000E-10 Hartree
     typat    2  1  1  1
    xangst   -4.0530300000E+00  6.5001000000E-02 -1.5251600000E+00
             -4.5667100000E+00  9.7481300000E-01 -1.9128200000E+00
             -3.0678200000E+00  3.3017200000E-01 -1.4773100000E+00
             -4.3703600000E+00 -4.9164000000E-02 -5.7227400000E-01
     xcart   -7.6591166764E+00  1.2283408785E-01 -2.8821346968E+00
             -8.6298311923E+00  1.8421295931E+00 -3.6147059264E+00
             -5.7973396008E+00  6.2393465414E-01 -2.7917113017E+00
             -8.2587834676E+00 -9.2906495209E-02 -1.0814411285E+00
      xred   -3.0636466706E-01  4.9133635140E-03 -1.1528538787E-01
             -3.4519324769E-01  7.3685183723E-02 -1.4458823706E-01
             -2.3189358403E-01  2.4957386166E-02 -1.1166845207E-01
             -3.3035133871E-01 -3.7162598084E-03 -4.3257645138E-02
     znucl      1.00000    8.00000

================================================================================

- Total cpu        time (s,m,h):         22.9        0.38      0.006
- Total wall clock time (s,m,h):         22.9        0.38      0.006

- For major independent code sections, cpu and wall times (sec),
- as well as % of the total time and number of calls 

- routine                 cpu     %       wall     %      number of calls 
-                                                          (-1=no count)
- fourwf(pot)           15.483  67.5     15.477  67.5            359
- fourdp                 1.642   7.2      1.643   7.2             43
- fourwf(den)            1.574   6.9      1.581   6.9             50
- forces                 0.681   3.0      0.682   3.0             10
- xc:pot/=fourdp         0.495   2.2      0.498   2.2             11
- projbd                 0.376   1.6      0.391   1.7            574
- timing timab           0.372   1.6      0.373   1.6             13
- nonlop(apply)          0.218   1.0      0.214   0.9            359
- 58   others            0.662   2.9      0.669   2.9

- subtotal              21.503  93.7     21.528  93.9

================================================================================

 Calculation completed.
.Delivered    2 WARNINGs and   3 COMMENTs to log file.
+Overall time at end (sec) : cpu=         22.9  wall=         22.9
