 argument  1 = c8p.nw



============================== echo of input deck ==============================
title system
start system
echo
geometry noautoz units angstrom
symmetry c1
O -4.06661 4.25828 -0.900064
H -3.22411 3.87687 -0.569443
H -3.73745 5.11653 -1.32272
O -1.97536 2.85804 0.45314
H -1.22355 3.37585 0.786238
H -2.53752 2.56796 1.15612
O -5.29316 2.19213 -2.3288
H -4.8293 2.98866 -1.97385
H -5.42857 2.32864 -3.23517
O -4.58176 -0.256435 0.939478
H -4.34986 0.47109 1.50434
H -5.39387 -0.726611 1.22807
O -1.64586 0.870179 -1.50225
H -1.56889 1.50173 -0.721051
H -0.824432 0.28222 -1.37772
O -5.62834 3.73074 1.38561
H -6.09065 4.41847 1.86035
H -5.15854 4.20026 0.615875
O -3.81888 2.02499 2.18799
H -3.69088 1.96136 3.20215
H -4.54649 2.7513 2.04537
O -4.05303 0.065001 -1.52516
H -4.56671 0.974813 -1.91282
H -3.06782 0.330172 -1.47731
H -4.37036 -0.049164 -0.572274
end
basis "ao basis"
O library 6-311G
H library 6-311G
bqO library O 6-311G
bqH library H 6-311G
end
charge 1
dft; end
task dft energy
================================================================================


                                         
                                         


              Northwest Computational Chemistry Package (NWChem) 6.5
              ------------------------------------------------------


                    Environmental Molecular Sciences Laboratory
                       Pacific Northwest National Laboratory
                                Richland, WA 99352

                              Copyright (c) 1994-2014
                       Pacific Northwest National Laboratory
                            Battelle Memorial Institute

             NWChem is an open-source computational chemistry package
                        distributed under the terms of the
                      Educational Community License (ECL) 2.0
             A copy of the license is included with this distribution
                              in the LICENSE.TXT file

                                  ACKNOWLEDGMENT
                                  --------------

            This software and its documentation were developed at the
            EMSL at Pacific Northwest National Laboratory, a multiprogram
            national laboratory, operated for the U.S. Department of Energy
            by Battelle under Contract Number DE-AC05-76RL01830. Support
            for this work was provided by the Department of Energy Office
            of Biological and Environmental Research, Office of Basic
            Energy Sciences, and the Office of Advanced Scientific Computing.


           Job information
           ---------------

    hostname        = voovrat-Lenovo-G580
    program         = nwchem
    date            = Tue Jul 14 19:04:41 2015

    compiled        = Tue_Jul_14_16:13:05_2015
    source          = /home/voovrat/Soft/Nwchem-6.5.revision26243-src.2014-09-10
    nwchem branch   = 6.5
    nwchem revision = 26243
    ga revision     = 10506
    input           = c8p.nw
    prefix          = system.
    data base       = ./system.db
    status          = startup
    nproc           =        1
    time left       =     -1s



           Memory information
           ------------------

    heap     =   13107194 doubles =    100.0 Mbytes
    stack    =   13107195 doubles =    100.0 Mbytes
    global   =   26214400 doubles =    200.0 Mbytes (distinct from heap & stack)
    total    =   52428789 doubles =    400.0 Mbytes
    verify   = yes
    hardfail = no 


           Directory information
           ---------------------

  0 permanent = .
  0 scratch   = .




                                NWChem Input Module
                                -------------------


                                      system
                                      ------

 Scaling coordinates for geometry "geometry" by  1.889725989
 (inverse scale =  0.529177249)

 Turning off AUTOSYM since
 SYMMETRY directive was detected!



                             Geometry "geometry" -> ""
                             -------------------------

 Output coordinates in angstroms (scale by  1.889725989 to convert to a.u.)

  No.       Tag          Charge          X              Y              Z
 ---- ---------------- ---------- -------------- -------------- --------------
    1 O                    8.0000    -0.20101738     2.25440901    -0.76322088
    2 H                    1.0000     0.64148262     1.87299901    -0.43259988
    3 H                    1.0000     0.12814262     3.11265901    -1.18587688
    4 O                    8.0000     1.89023262     0.85416901     0.58998312
    5 H                    1.0000     2.64204262     1.37197901     0.92308112
    6 H                    1.0000     1.32807262     0.56408901     1.29296312
    7 O                    8.0000    -1.42756738     0.18825901    -2.19195688
    8 H                    1.0000    -0.96370738     0.98478901    -1.83700688
    9 H                    1.0000    -1.56297738     0.32476901    -3.09832688
   10 O                    8.0000    -0.71616738    -2.26030599     1.07632112
   11 H                    1.0000    -0.48426738    -1.53278099     1.64118312
   12 H                    1.0000    -1.52827738    -2.73048199     1.36491312
   13 O                    8.0000     2.21973262    -1.13369199    -1.36540688
   14 H                    1.0000     2.29670262    -0.50214099    -0.58420788
   15 H                    1.0000     3.04116062    -1.72165099    -1.24087688
   16 O                    8.0000    -1.76274738     1.72686901     1.52245312
   17 H                    1.0000    -2.22505738     2.41459901     1.99719312
   18 H                    1.0000    -1.29294738     2.19638901     0.75271812
   19 O                    8.0000     0.04671262     0.02111901     2.32483312
   20 H                    1.0000     0.17471262    -0.04251099     3.33899312
   21 H                    1.0000    -0.68089738     0.74742901     2.18221312
   22 O                    8.0000    -0.18743738    -1.93886999    -1.38831688
   23 H                    1.0000    -0.70111738    -1.02905799    -1.77597688
   24 H                    1.0000     0.79777262    -1.67369899    -1.34046688
   25 H                    1.0000    -0.50476738    -2.05303499    -0.43543088

      Atomic Mass 
      ----------- 

      O                 15.994910
      H                  1.007825


 Effective nuclear repulsion energy (a.u.)     503.8475412609

            Nuclear Dipole moment (a.u.) 
            ----------------------------
        X                 Y               Z
 ---------------- ---------------- ----------------
     0.0000000000     0.0000000000    -0.0000000000


            XYZ format geometry
            -------------------
    25
 geometry
 O                    -0.20101738     2.25440901    -0.76322088
 H                     0.64148262     1.87299901    -0.43259988
 H                     0.12814262     3.11265901    -1.18587688
 O                     1.89023262     0.85416901     0.58998312
 H                     2.64204262     1.37197901     0.92308112
 H                     1.32807262     0.56408901     1.29296312
 O                    -1.42756738     0.18825901    -2.19195688
 H                    -0.96370738     0.98478901    -1.83700688
 H                    -1.56297738     0.32476901    -3.09832688
 O                    -0.71616738    -2.26030599     1.07632112
 H                    -0.48426738    -1.53278099     1.64118312
 H                    -1.52827738    -2.73048199     1.36491312
 O                     2.21973262    -1.13369199    -1.36540688
 H                     2.29670262    -0.50214099    -0.58420788
 H                     3.04116062    -1.72165099    -1.24087688
 O                    -1.76274738     1.72686901     1.52245312
 H                    -2.22505738     2.41459901     1.99719312
 H                    -1.29294738     2.19638901     0.75271812
 O                     0.04671262     0.02111901     2.32483312
 H                     0.17471262    -0.04251099     3.33899312
 H                    -0.68089738     0.74742901     2.18221312
 O                    -0.18743738    -1.93886999    -1.38831688
 H                    -0.70111738    -1.02905799    -1.77597688
 H                     0.79777262    -1.67369899    -1.34046688
 H                    -0.50476738    -2.05303499    -0.43543088

 ==============================================================================
                                internuclear distances
 ------------------------------------------------------------------------------
       center one      |      center two      | atomic units |  angstroms
 ------------------------------------------------------------------------------
    2 H                |   1 O                |     1.85597  |     0.98214
    3 H                |   1 O                |     1.91187  |     1.01172
    5 H                |   4 O                |     1.83634  |     0.97175
    6 H                |   4 O                |     1.78712  |     0.94570
    8 H                |   7 O                |     1.86654  |     0.98773
    9 H                |   7 O                |     1.75091  |     0.92654
   11 H                |  10 O                |     1.79488  |     0.94981
   12 H                |  10 O                |     1.85528  |     0.98177
   14 H                |  13 O                |     1.90390  |     1.00750
   15 H                |  13 O                |     1.92339  |     1.01782
   17 H                |  16 O                |     1.80474  |     0.95503
   18 H                |  16 O                |     1.92126  |     1.01669
   20 H                |  19 O                |     1.93543  |     1.02418
   21 H                |  19 O                |     1.96139  |     1.03792
   24 H                |  22 O                |     1.93015  |     1.02139
   25 H                |  22 O                |     1.91014  |     1.01080
 ------------------------------------------------------------------------------
                         number of included internuclear distances:         16
 ==============================================================================



 ==============================================================================
                                 internuclear angles
 ------------------------------------------------------------------------------
        center 1       |       center 2       |       center 3       |  degrees
 ------------------------------------------------------------------------------
    2 H                |   1 O                |   3 H                |   101.01
    5 H                |   4 O                |   6 H                |   111.63
    8 H                |   7 O                |   9 H                |   107.54
   11 H                |  10 O                |  12 H                |   113.20
   14 H                |  13 O                |  15 H                |   101.86
   17 H                |  16 O                |  18 H                |   105.51
   20 H                |  19 O                |  21 H                |   105.49
   24 H                |  22 O                |  25 H                |   106.74
 ------------------------------------------------------------------------------
                            number of included internuclear angles:          8
 ==============================================================================



                      Basis "ao basis" -> "" (cartesian)
                      -----
  O (Oxygen)
  ----------
            Exponent  Coefficients 
       -------------- ---------------------------------------------------------
  1 S  8.58850000E+03  0.001895
  1 S  1.29723000E+03  0.014386
  1 S  2.99296000E+02  0.070732
  1 S  8.73771000E+01  0.240001
  1 S  2.56789000E+01  0.594797
  1 S  3.74004000E+00  0.280802

  2 S  4.21175000E+01  0.113889
  2 S  9.62837000E+00  0.920811
  2 S  2.85332000E+00 -0.003274

  3 P  4.21175000E+01  0.036511
  3 P  9.62837000E+00  0.237153
  3 P  2.85332000E+00  0.819702

  4 S  9.05661000E-01  1.000000

  5 P  9.05661000E-01  1.000000

  6 S  2.55611000E-01  1.000000

  7 P  2.55611000E-01  1.000000

  H (Hydrogen)
  ------------
            Exponent  Coefficients 
       -------------- ---------------------------------------------------------
  1 S  3.38650000E+01  0.025494
  1 S  5.09479000E+00  0.190373
  1 S  1.15879000E+00  0.852161

  2 S  3.25840000E-01  1.000000

  3 S  1.02741000E-01  1.000000

  bqO
  ---
            Exponent  Coefficients 
       -------------- ---------------------------------------------------------
  1 S  8.58850000E+03  0.001895
  1 S  1.29723000E+03  0.014386
  1 S  2.99296000E+02  0.070732
  1 S  8.73771000E+01  0.240001
  1 S  2.56789000E+01  0.594797
  1 S  3.74004000E+00  0.280802

  2 S  4.21175000E+01  0.113889
  2 S  9.62837000E+00  0.920811
  2 S  2.85332000E+00 -0.003274

  3 P  4.21175000E+01  0.036511
  3 P  9.62837000E+00  0.237153
  3 P  2.85332000E+00  0.819702

  4 S  9.05661000E-01  1.000000

  5 P  9.05661000E-01  1.000000

  6 S  2.55611000E-01  1.000000

  7 P  2.55611000E-01  1.000000

  bqH
  ---
            Exponent  Coefficients 
       -------------- ---------------------------------------------------------
  1 S  3.38650000E+01  0.025494
  1 S  5.09479000E+00  0.190373
  1 S  1.15879000E+00  0.852161

  2 S  3.25840000E-01  1.000000

  3 S  1.02741000E-01  1.000000



 Summary of "ao basis" -> "" (cartesian)
 ------------------------------------------------------------------------------
       Tag                 Description            Shells   Functions and Types
 ---------------- ------------------------------  ------  ---------------------
 O                           6-311G                  7       13   4s3p
 H                           6-311G                  3        3   3s
 bqO                         6-311G                  7       13   4s3p
 bqH                         6-311G                  3        3   3s



                                 NWChem DFT Module
                                 -----------------


                                      system




 Summary of "ao basis" -> "ao basis" (cartesian)
 ------------------------------------------------------------------------------
       Tag                 Description            Shells   Functions and Types
 ---------------- ------------------------------  ------  ---------------------
 O                           6-311G                  7       13   4s3p
 H                           6-311G                  3        3   3s
 bqO                         6-311G                  7       13   4s3p
 bqH                         6-311G                  3        3   3s


  Caching 1-el integrals 

            General Information
            -------------------
          SCF calculation type: DFT
          Wavefunction type:  closed shell.
          No. of atoms     :    25
          No. of electrons :    80
           Alpha electrons :    40
            Beta electrons :    40
          Charge           :     1
          Spin multiplicity:     1
          Use of symmetry is: off; symmetry adaption is: off
          Maximum number of iterations:  30
          AO basis - number of functions:   155
                     number of shells:   107
          Convergence on energy requested: 1.00D-06
          Convergence on density requested: 1.00D-05
          Convergence on gradient requested: 5.00D-04

              XC Information
              --------------
                        Slater Exchange Functional  1.000 local    
                      VWN V Correlation Functional  1.000 local    

             Grid Information
             ----------------
          Grid used for XC integration:  medium    
          Radial quadrature: Mura-Knowles        
          Angular quadrature: Lebedev. 
          Tag              B.-S. Rad. Rad. Pts. Rad. Cut. Ang. Pts.
          ---              ---------- --------- --------- ---------
          O                   0.60       49          15.0       434
          H                   0.35       45          16.0       434
          Grid pruning is: on 
          Number of quadrature shells:  1157
          Spatial weights used:  Erf1

          Convergence Information
          -----------------------
          Convergence aids based upon iterative change in 
          total energy or number of iterations. 
          Levelshifting, if invoked, occurs when the 
          HOMO/LUMO gap drops below (HL_TOL): 1.00D-02
          DIIS, if invoked, will attempt to extrapolate 
          using up to (NFOCK): 10 stored Fock matrices.

                    Damping( 0%)  Levelshifting(0.5)       DIIS
                  --------------- ------------------- ---------------
          dE  on:    start            ASAP                start   
          dE off:    2 iters         30 iters            30 iters 


      Screening Tolerance Information
      -------------------------------
          Density screening/tol_rho: 1.00D-10
          AO Gaussian exp screening on grid/accAOfunc:  14
          CD Gaussian exp screening on grid/accCDfunc:  20
          XC Gaussian exp screening on grid/accXCfunc:  20
          Schwarz screening/accCoul: 1.00D-08


      Superposition of Atomic Density Guess
      -------------------------------------

 Sum of atomic energies:        -606.70575052

 Renormalizing density from      81.00 to     80

      Non-variational initial energy
      ------------------------------

 Total energy =    -603.756484
 1-e energy   =   -1813.049489
 2-e energy   =     705.445464
 HOMO         =      -0.670966
 LUMO         =      -0.163590

   Time after variat. SCF:      2.9
   Time prior to 1st pass:      2.9

 Integral file          = ./system.aoints.0
 Record size in doubles =  65536        No. of integs per rec  =  43688
 Max. records in memory =      0        Max. records in file   = 140498
 No. of bits per label  =      8        No. of bits per value  =     64


 #quartets = 5.798D+06 #integrals = 1.951D+07 #direct =  0.0% #cached =100.0%


 Grid_pts file          = ./system.gridpts.0
 Record size in doubles =  12289        No. of grid_pts per rec  =   3070
 Max. records in memory =    181        Max. recs in file   =    746999

