  ABINIT 
  
  Give name for formatted input file: 
c8p.in
  Give name for formatted output file:
c8p.out
  Give root name for generic input files:
c8p_xi
  Give root name for generic output files:
c8p_xo
  Give root name for generic temporary files:
c8p_x

.Version 7.10.4 of ABINIT 
.(sequential version, prepared for a i686_linux_gnu4.7 computer) 

.Copyright (C) 1998-2014 ABINIT group . 
 ABINIT comes with ABSOLUTELY NO WARRANTY.
 It is free software, and you are welcome to redistribute it
 under certain conditions (GNU General Public License,
 see ~abinit/COPYING or http://www.gnu.org/copyleft/gpl.txt).

 ABINIT is a project of the Universite Catholique de Louvain,
 Corning Inc. and other collaborators, see ~abinit/doc/developers/contributors.txt .
 Please read ~abinit/doc/users/acknowledgments.html for suggested
 acknowledgments of the ABINIT effort.
 For more information, see http://www.abinit.org .

.Starting date : Tue 14 Jul 2015.
- ( at 19h03 )
  

 ++++++++++++++++++++++++++++++++++++++++++++++++++++++++++++++++++++++++++++++

 === Build Information === 
  Version       : 7.10.4
  Build target  : i686_linux_gnu4.7
  Build date    : 20150709

 === Compiler Suite === 
  C compiler       : gnu4.7
  C++ compiler     : gnu4.7
  Fortran compiler : gnu4.7
  CFLAGS           :  -g -O2 -mtune=native -march=native
  CXXFLAGS         :  -g -O2 -mtune=native -march=native
  FCFLAGS          :  -g -ffree-line-length-none
  FC_LDFLAGS       : 

 === Optimizations === 
  Debug level        : basic
  Optimization level : standard
  Architecture       : unknown_unknown

 === Multicore === 
  Parallel build : no
  Parallel I/O   : no
  openMP support : no
  GPU support    : no

 === Connectors / Fallbacks === 
  Connectors on : yes
  Fallbacks on  : yes
  DFT flavor    : none
  FFT flavor    : none
  LINALG flavor : netlib
  MATH flavor   : none
  TIMER flavor  : abinit
  TRIO flavor   : none

 === Experimental features === 
  Bindings            : @enable_bindings@
  Exports             : no
  GW double-precision : no

 ++++++++++++++++++++++++++++++++++++++++++++++++++++++++++++++++++++++++++++++


 ++++++++++++++++++++++++++++++++++++++++++++++++++++++++++++++++++++++++++++++
 Default optimizations:
   -O2 -mtune=native -march=native


 ++++++++++++++++++++++++++++++++++++++++++++++++++++++++++++++++++++++++++++++


 ++++++++++++++++++++++++++++++++++++++++++++++++++++++++++++++++++++++++++++++
 CPP options activated during the build:

                    CC_GNU                   CXX_GNU                    FC_GNU
 
 HAVE_FC_ALLOCATABLE_DT...             HAVE_FC_ASYNC  HAVE_FC_COMMAND_ARGUMENT
 
      HAVE_FC_COMMAND_LINE        HAVE_FC_CONTIGUOUS           HAVE_FC_CPUTIME
 
              HAVE_FC_EXIT             HAVE_FC_FLUSH             HAVE_FC_GAMMA
 
            HAVE_FC_GETENV             HAVE_FC_IOMSG     HAVE_FC_ISO_C_BINDING
 
        HAVE_FC_LONG_LINES        HAVE_FC_MOVE_ALLOC           HAVE_FC_PRIVATE
 
         HAVE_FC_PROTECTED         HAVE_FC_STREAM_IO            HAVE_FC_SYSTEM
 
          HAVE_FORTRAN2003        HAVE_LIBPAW_ABINIT               HAVE_LINALG
 
        HAVE_LINALG_SERIAL                HAVE_NUMPY             HAVE_OS_LINUX
 
                HAVE_TIMER         HAVE_TIMER_ABINIT         HAVE_TIMER_SERIAL
 
              USE_MACROAVE                                                      
 ++++++++++++++++++++++++++++++++++++++++++++++++++++++++++++++++++++++++++++++

- input  file    -> c8p.in
- output file    -> c8p.out
- root for input  files -> c8p_xi
- root for output files -> c8p_xo

-instrng :   101 lines of input have been read from file c8p.in


 iofn2 : Please give name of formatted atomic psp file
 iofn2 : for atom type   1 , psp file is Psps_for_tests/01h.pspgth

 iofn2 : Please give name of formatted atomic psp file
 iofn2 : for atom type   2 , psp file is Psps_for_tests/08o.pspgth
  read the values zionpsp=  1.0 , pspcod=   2 , lmax=   0
nproj =      0     0     0     0
nprojso =      0     0     0
  read the values zionpsp=  6.0 , pspcod=   2 , lmax=   0
nproj =      1     0     0     0
nprojso =      0     0     0

 inpspheads: deduce mpsang  =   1, n1xccc  =   0.

 invars1m : enter jdtset=0
 invars1 : treat image number     1

 symlatt : the Bravais lattice is cP (primitive cubic)
  xangst is defined in input file
 ingeo : takes atomic coordinates from input array xangst

 symlatt : the Bravais lattice is cP (primitive cubic)

 symlatt : the Bravais lattice is cP (primitive cubic)

--- !COMMENT
message: |
    The Bravais lattice determined only from the primitive
    vectors, bravais(1)=  7, is more symmetric
    than the real one, iholohedry=  1, obtained by taking into
    account the atomic positions. Start deforming the primitive vector set.
src_file: symbrav.F90
src_line: 201
...


 symlatt : the Bravais lattice is hR (rhombohedral)

--- !COMMENT
message: |
    The Bravais lattice determined from modified primitive
    vectors, bravais(1)=  5, has a lower symmetry than before,
    but is still more symmetric than the real one, iholohedry=  1
    obtained by taking into account the atomic positions.
src_file: symbrav.F90
src_line: 210
...


 symlatt : the Bravais lattice is mC (one-face-centered monoclinic)

--- !COMMENT
message: |
    The Bravais lattice determined from modified primitive
    vectors, bravais(1)=  2, has a lower symmetry than before,
    but is still more symmetric than the real one, iholohedry=  1
    obtained by taking into account the atomic positions.
src_file: symbrav.F90
src_line: 210
...


 symlatt : the Bravais lattice is aP (primitive triclinic)
 symspgr : spgroup=   1  P1   (=C1^1)
 inkpts: Sum of    1 k point weights is    1.000000
 invars2: take the default value of fband=  1.25000000E-01
 inkpts: Sum of    1 k point weights is    1.000000
  dtset%nelect=   64.000000000000000     
 chkneu : initialized the occupation numbers for occopt=    1
    spin-unpolarized case :
  2.00  2.00  2.00  2.00  2.00  2.00  2.00  2.00  2.00  2.00  2.00  2.00
  2.00  2.00  2.00  2.00  2.00  2.00  2.00  2.00  2.00  2.00  2.00  2.00
  2.00  2.00  2.00  2.00  2.00  2.00  2.00  2.00  0.00  0.00  0.00  0.00
mpi_setup: mkmem  undefined in the input file.Use default mkmem  = nkpt
 mpi_setup: With nkpt_me=1 and mkmem  = 1, ground state wf handled in core.
mpi_setup: mkqmem undefined in the input file.Use default mkqmem = nkpt
 mpi_setup: With nkpt_me=1 and mkqmem = 1, ground state wf handled in core.
mpi_setup: mk1mem undefined in the input file.Use default mk1mem = nkpt
 mpi_setup: With nkpt_me=1 and mk1mem = 1, ground state wf handled in core.
 For input ecut=  1.000000E+01 best grid ngfft=      72      72      72
       max ecut=  1.023281E+01

 ==== FFT mesh ====
  FFT mesh divisions ........................    72   72   72
  Augmented FFT divisions ...................    73   73   72
  FFT algorithm .............................   112
  FFT cache size ............................    16
 getmpw: optimal value of mpw=   11792

 Symmetries : space group P1 (#  1); Bravais aP (primitive triclinic)

 getdim_nloc : deduce lmnmax  =   1, lnmax  =   1,
                      lmnmaxso=   1, lnmaxso=   1.
memory : analysis of memory needs
================================================================================
 Values of the parameters that define the memory need of the present run
   intxc =         0  ionmov =         0    iscf =         7 xclevel =         1
  lmnmax =         1   lnmax =         1   mband =        36  mffmem =         1
P  mgfft =        72   mkmem =         1 mpssoang=         1     mpw =     11792
  mqgrid =      3559   natom =        25    nfft =    373248    nkpt =         1
  nloalg =         4  nspden =         1 nspinor =         1  nsppol =         1
    nsym =         1  n1xccc =         0  ntypat =         2  occopt =         1
================================================================================
P This job should need less than                     102.588 Mbytes of memory.
  Rough estimation (10% accuracy) of disk space for files :
_ WF disk file :      6.480 Mbytes ; DEN or POT disk file :      2.850 Mbytes.
================================================================================

 Biggest array : f_fftgr(disk), with     45.5645 MBytes.
 memana : allocated an array of     45.565 Mbytes, for testing purposes.
 memana : allocated     102.588 Mbytes, for testing purposes. 
 The job will continue.
--------------------------------------------------------------------------------
------------- Echo of variables that govern the present computation ------------
--------------------------------------------------------------------------------
-
- outvars: echo of selected default values                                      
-   accesswff0 =  0 , fftalg0 =112 , wfoptalg0 =  0
-
- outvars: echo of global parameters not present in the input file              
-  max_nthreads =    0
-
 -outvars: echo values of preprocessed input variables --------
            acell      2.5000000000E+01  2.5000000000E+01  2.5000000000E+01 Bohr
              amu      1.00794000E+00  1.59994000E+01
           charge      1.00000000E+00
           diemac      2.00000000E+00
             ecut      1.00000000E+01 Hartree
-          fftalg         112
           istwfk        2
           kptopt           0
P           mkmem           1
            natom          25
            nband          36
            ngfft          72      72      72
             nkpt           1
            nstep          10
             nsym           1
           ntypat           2
              occ      2.000000  2.000000  2.000000  2.000000  2.000000  2.000000
                       2.000000  2.000000  2.000000  2.000000  2.000000  2.000000
                       2.000000  2.000000  2.000000  2.000000  2.000000  2.000000
                       2.000000  2.000000  2.000000  2.000000  2.000000  2.000000
                       2.000000  2.000000  2.000000  2.000000  2.000000  2.000000
                       2.000000  2.000000  0.000000  0.000000  0.000000  0.000000
          spgroup           1
           toldfe      1.00000000E-10 Hartree
            typat      2  1  1  2  1  1  2  1  1  2  1  1  2  1  1  2  1  1  2  1
                       1  2  1  1  1
           xangst     -4.0666100000E+00  4.2582800000E+00 -9.0006400000E-01
                      -3.2241100000E+00  3.8768700000E+00 -5.6944300000E-01
                      -3.7374500000E+00  5.1165300000E+00 -1.3227200000E+00
                      -1.9753600000E+00  2.8580400000E+00  4.5314000000E-01
                      -1.2235500000E+00  3.3758500000E+00  7.8623800000E-01
                      -2.5375200000E+00  2.5679600000E+00  1.1561200000E+00
                      -5.2931600000E+00  2.1921300000E+00 -2.3288000000E+00
                      -4.8293000000E+00  2.9886600000E+00 -1.9738500000E+00
                      -5.4285700000E+00  2.3286400000E+00 -3.2351700000E+00
                      -4.5817600000E+00 -2.5643500000E-01  9.3947800000E-01
                      -4.3498600000E+00  4.7109000000E-01  1.5043400000E+00
                      -5.3938700000E+00 -7.2661100000E-01  1.2280700000E+00
                      -1.6458600000E+00  8.7017900000E-01 -1.5022500000E+00
                      -1.5688900000E+00  1.5017300000E+00 -7.2105100000E-01
                      -8.2443200000E-01  2.8222000000E-01 -1.3777200000E+00
                      -5.6283400000E+00  3.7307400000E+00  1.3856100000E+00
                      -6.0906500000E+00  4.4184700000E+00  1.8603500000E+00
                      -5.1585400000E+00  4.2002600000E+00  6.1587500000E-01
                      -3.8188800000E+00  2.0249900000E+00  2.1879900000E+00
                      -3.6908800000E+00  1.9613600000E+00  3.2021500000E+00
                      -4.5464900000E+00  2.7513000000E+00  2.0453700000E+00
                      -4.0530300000E+00  6.5001000000E-02 -1.5251600000E+00
                      -4.5667100000E+00  9.7481300000E-01 -1.9128200000E+00
                      -3.0678200000E+00  3.3017200000E-01 -1.4773100000E+00
                      -4.3703600000E+00 -4.9164000000E-02 -5.7227400000E-01
            xcart     -7.6847791893E+00  8.0469829971E+00 -1.7008744621E+00
                      -6.0926849223E+00  7.3262225528E+00 -1.0760913183E+00
                      -7.0627569354E+00  9.6688404507E+00 -2.4995785505E+00
                      -3.7328894139E+00  5.4009128768E+00  8.5631049986E-01
                      -2.3121744099E+00  6.3794319657E+00  1.4857744953E+00
                      -4.7952178567E+00  4.8527411202E+00  2.1847501768E+00
                      -1.0002622778E+01  4.1425253477E+00 -4.4007942183E+00
                      -9.1260544135E+00  5.6477489043E+00 -3.7300359274E+00
                      -1.0258510593E+01  4.4004918621E+00 -6.1135852933E+00
                      -8.6582716066E+00 -4.8459192089E-01  1.7753561279E+00
                      -8.2200441164E+00  8.9023108394E-01  2.8427906107E+00
                      -1.0192937096E+01 -1.3730957951E+00  2.3207159720E+00
                      -3.1102246531E+00  1.6443999966E+00 -2.8388410831E+00
                      -2.9647724326E+00  2.8378584255E+00 -1.3625889178E+00
                      -1.5579506952E+00  5.3331850922E-01 -2.6035134878E+00
                      -1.0636021183E+01  7.0500768730E+00  2.6184234270E+00
                      -1.1509660471E+01  8.3496982264E+00  3.5155520113E+00
                      -9.7482278455E+00  7.9373410869E+00  1.1638350821E+00
                      -7.2166373344E+00  3.8266765218E+00  4.1347018815E+00
                      -6.9747523893E+00  3.7064332480E+00  6.0511865364E+00
                      -8.5916209659E+00  5.1992035094E+00  3.8651891404E+00
                      -7.6591167084E+00  1.2283408836E-01 -2.8821347088E+00
                      -8.6298312283E+00  1.8421296008E+00 -3.6147059415E+00
                      -5.7973396250E+00  6.2393465675E-01 -2.7917113134E+00
                      -8.2587835021E+00 -9.2906495597E-02 -1.0814411330E+00
             xred     -3.0739116757E-01  3.2187931989E-01 -6.8034978483E-02
                      -2.4370739689E-01  2.9304890211E-01 -4.3043652732E-02
                      -2.8251027741E-01  3.8675361803E-01 -9.9983142020E-02
                      -1.4931557655E-01  2.1603651507E-01  3.4252419994E-02
                      -9.2486976396E-02  2.5517727863E-01  5.9430979811E-02
                      -1.9180871427E-01  1.9410964481E-01  8.7390007070E-02
                      -4.0010491110E-01  1.6570101391E-01 -1.7603176873E-01
                      -3.6504217654E-01  2.2590995617E-01 -1.4920143710E-01
                      -4.1034042373E-01  1.7601967448E-01 -2.4454341173E-01
                      -3.4633086426E-01 -1.9383676835E-02  7.1014245115E-02
                      -3.2880176466E-01  3.5609243358E-02  1.1371162443E-01
                      -4.0771748386E-01 -5.4923831806E-02  9.2828638881E-02
                      -1.2440898612E-01  6.5775999864E-02 -1.1355364333E-01
                      -1.1859089730E-01  1.1351433702E-01 -5.4503556714E-02
                      -6.2318027807E-02  2.1332740369E-02 -1.0414053951E-01
                      -4.2544084731E-01  2.8200307492E-01  1.0473693708E-01
                      -4.6038641885E-01  3.3398792905E-01  1.4062208045E-01
                      -3.8992911382E-01  3.1749364348E-01  4.6553403284E-02
                      -2.8866549337E-01  1.5306706087E-01  1.6538807526E-01
                      -2.7899009557E-01  1.4825732992E-01  2.4204746146E-01
                      -3.4366483864E-01  2.0796814038E-01  1.5460756562E-01
                      -3.0636466833E-01  4.9133635345E-03 -1.1528538835E-01
                      -3.4519324913E-01  7.3685184031E-02 -1.4458823766E-01
                      -2.3189358500E-01  2.4957386270E-02 -1.1166845253E-01
                      -3.3035134008E-01 -3.7162598239E-03 -4.3257645319E-02
            znucl        1.00000    8.00000

================================================================================

 chkinp: Checking input parameters for consistency.
 DATA TYPE INFORMATION: 
 REAL:      Data type name: REAL(DP) 
            Kind value:      8
            Precision:      15
            Smallest nonnegligible quantity relative to 1:  0.22204460E-15
            Smallest positive number:                       0.22250739-307
            Largest representable number:                   0.17976931+309
 INTEGER:   Data type name: INTEGER(default) 
            Kind value: 4
            Bit size:   32
            Largest representable number: 2147483647
 LOGICAL:   Data type name: LOGICAL 
            Kind value: 4
 CHARACTER: Data type name: CHARACTER             Kind value: 1

  ==== OpenMP parallelism is OFF ====
 
  MPI-IO support is OFF

================================================================================
== DATASET  1 ==================================================================
-   nproc =    1


 getdim_nloc : deduce lmnmax  =   1, lnmax  =   1,
                      lmnmaxso=   1, lnmaxso=   1.
 Exchange-correlation functional for the present dataset will be:
  LDA: new Teter (4/93) with spin-polarized option - ixc=1
 Citation for XC functional:
  S. Goedecker, M. Teter, J. Huetter, PRB 54, 1703 (1996)

 Unit cell volume ucvol=  1.5625000E+04 bohr^3
 Angles (23,13,12)=  9.00000000E+01  9.00000000E+01  9.00000000E+01 degrees

 getcut: wavevector=  0.0000  0.0000  0.0000  ngfft=  72  72  72
         ecut(hartree)=     10.000   => boxcut(ratio)=   2.02315
- pspini: atom type   1  psp file is Psps_for_tests/01h.pspgth
- pspatm: opening atomic psp file    Psps_for_tests/01h.pspgth
- Goedecker-Teter-Hutter  Wed May  8 14:27:44 EDT 1996
-  1.00000   1.00000    960508                znucl, zion, pspdat
    2    1    0    0      2001   0.00000      pspcod,pspxc,lmax,lloc,mmax,r2well
 rloc=   0.2000000
  cc1=  -4.0663326; cc2=   0.6778322; cc3=   0.0000000; cc4=   0.0000000
  rrs=   0.0000000; h1s=   0.0000000; h2s=   0.0000000
  rrp=   0.0000000; h1p=   0.0000000
-  Local part computed in reciprocal space.

 pspatm : COMMENT -
  the projectors are not normalized,
  so that the KB energies are not consistent with 
  definition in PRB44, 8503 (1991). 
  However, this does not influence the results obtained hereafter.
 pspatm: epsatm=   -0.00480358
         --- l  ekb(1:nproj) -->
 pspatm: atomic psp has been read  and splines computed

- pspini: atom type   2  psp file is Psps_for_tests/08o.pspgth
- pspatm: opening atomic psp file    Psps_for_tests/08o.pspgth
-   O SG LDA PSP
-  8.00000   6.00000    960531                znucl, zion, pspdat
    2    1    0    0      2001   0.00000      pspcod,pspxc,lmax,lloc,mmax,r2well
 rloc=   0.2477535
  cc1= -16.4822284; cc2=   2.3701353; cc3=   0.0000000; cc4=   0.0000000
  rrs=   0.2222028; h1s=  18.1996387; h2s=   0.0000000
  rrp=   0.0000000; h1p=   0.0000000
-  Local part computed in reciprocal space.

 pspatm : COMMENT -
  the projectors are not normalized,
  so that the KB energies are not consistent with 
  definition in PRB44, 8503 (1991). 
  However, this does not influence the results obtained hereafter.
 pspatm: epsatm=    0.06936534
         --- l  ekb(1:nproj) -->
             0    0.707809
 pspatm: atomic psp has been read  and splines computed

   3.07620224E+01                                ecore*ucvol(ha*bohr**3)
 wfconv:    36 bands initialized randomly with npw= 11792, for ikpt=     1

_setup2: Arith. and geom. avg. npw (full set) are   23583.000   23583.000
 initro : for itypat=  1, take decay length=      0.6000,
 initro : indeed, coreel=      0.0000, nval=  1 and densty=  0.0000E+00.
 initro : for itypat=  2, take decay length=      0.5000,
 initro : indeed, coreel=      2.0000, nval=  6 and densty=  0.0000E+00.

================================================================================

 getcut: wavevector=  0.0000  0.0000  0.0000  ngfft=  72  72  72
         ecut(hartree)=     10.000   => boxcut(ratio)=   2.02315

--- !WARNING
message: |
    Density went too small (lower than xc_denpos) at134871 points
    and was set to xc_denpos=  1.00E-14. Lowest was  -0.55E-09.
    Likely due to too low boxcut or too low ecut for pseudopotential core charge.
src_file: mkdenpos.F90
src_line: 176
...


 ITER STEP NUMBER     1
 vtorho : nnsclo_now=  2, note that nnsclo,dbl_nnsclo,istep=  0 0  1
 Non-SCF iterations; kpt #     1  , k= (  0.00000  0.00000  0.00000  ), band residuals:
 res:  2.72E-01  2.75E-01  4.59E-01  2.91E-01  2.65E-01  2.58E-01  2.44E-01  2.82E-01
 res:  1.23E-01  2.46E-01  1.10E-01  1.35E-01  1.80E-01  9.13E-02  6.87E-02  9.87E-02
 res:  6.27E-02  8.38E-02  8.15E-02  7.85E-02  7.67E-02  7.15E-02  8.38E-02  5.33E-02
 res:  3.49E-02  5.03E-02  4.75E-02  4.25E-02  6.22E-02  5.11E-02  3.99E-02  3.67E-02
 res:  3.72E-02  4.29E-02  4.61E-02  3.75E-02
 ene: -6.71E-01 -6.55E-01 -6.39E-01 -6.26E-01 -6.11E-01 -5.98E-01 -5.77E-01 -5.48E-01
 ene: -2.16E-01 -2.13E-01 -2.03E-01 -1.99E-01 -1.93E-01 -1.80E-01 -1.48E-01 -1.36E-01
 ene: -1.17E-01 -3.74E-02 -1.88E-02 -2.14E-03  9.11E-03  1.31E-02  3.81E-02  5.38E-02
 ene:  5.67E-02  7.34E-02  7.88E-02  8.53E-02  9.00E-02  1.05E-01  1.24E-01  1.40E-01
 ene:  1.62E-01  1.71E-01  1.94E-01  2.17E-01
 res:  4.96E-03  4.57E-03  4.94E-03  7.44E-03  5.60E-03  7.46E-03  7.92E-03  8.08E-03
 res:  6.20E-03  5.51E-03  7.21E-03  6.73E-03  9.60E-03  9.83E-03  9.47E-03  1.21E-02
 res:  1.48E-02  1.13E-02  1.62E-02  1.51E-02  2.37E-02  2.08E-02  1.87E-02  2.77E-02
 res:  2.20E-02  1.56E-02  9.96E-03  1.61E-02  1.07E-02  6.79E-03  6.16E-03  9.36E-03
 res:  7.24E-03  7.38E-03  5.08E-03  6.58E-03
 ene: -8.03E-01 -7.84E-01 -7.81E-01 -7.72E-01 -7.65E-01 -7.54E-01 -7.43E-01 -7.31E-01
 ene: -3.37E-01 -3.34E-01 -3.29E-01 -3.27E-01 -3.19E-01 -3.17E-01 -3.00E-01 -2.94E-01
 ene: -2.92E-01 -2.02E-01 -1.87E-01 -1.65E-01 -1.53E-01 -1.40E-01 -1.25E-01 -1.23E-01
 ene: -9.95E-02 -5.05E-02 -4.19E-02 -4.97E-03  1.54E-02  4.70E-02  4.99E-02  5.43E-02
 ene:  5.91E-02  7.03E-02  7.88E-02  8.28E-02
 vtowfk : number of one-way 3D ffts skipped in vtowfk until now =4
     eigenvalues (hartree) for   36  bands
              after    3 non-SCF iterations with    4 CG line minimizations
 -8.0263E-01 -7.8398E-01 -7.8139E-01 -7.7166E-01 -7.6451E-01 -7.5396E-01
 -7.4313E-01 -7.3106E-01 -3.3748E-01 -3.3399E-01 -3.2902E-01 -3.2732E-01
 -3.1864E-01 -3.1650E-01 -2.9953E-01 -2.9405E-01 -2.9187E-01 -2.0216E-01
 -1.8742E-01 -1.6450E-01 -1.5255E-01 -1.4044E-01 -1.2501E-01 -1.2260E-01
 -9.9456E-02 -5.0485E-02 -4.1879E-02 -4.9671E-03  1.5438E-02  4.6950E-02
  4.9908E-02  5.4306E-02  5.9087E-02  7.0260E-02  7.8843E-02  8.2803E-02
 Total charge density [el/Bohr^3]
,     Maximum=    4.8320E-01  at reduced coord.    0.5972    0.1667    0.7917
,     Minimum=    1.0975E-04  at reduced coord.    0.5000    0.8056    0.9444
,  Integrated=    6.4000E+01
 ETOT  1  -113.07557294248    -1.131E+02 2.771E-02 3.552E+04
 scprqt: <Vxc>= -1.3001845E-01 hartree

Simple mixing update:
  residual square of the potential :   11424.532157775426

 ITER STEP NUMBER     2
 vtorho : nnsclo_now=  2, note that nnsclo,dbl_nnsclo,istep=  0 0  2
 Non-SCF iterations; kpt #     1  , k= (  0.00000  0.00000  0.00000  ), band residuals:
 res:  4.13E-02  5.54E-02  4.19E-02  3.98E-02  3.54E-02  3.89E-02  3.59E-02  4.82E-02
 res:  1.90E-02  1.26E-02  1.07E-02  1.27E-02  9.21E-03  1.70E-02  1.53E-02  1.80E-02
 res:  1.61E-02  2.87E-02  4.54E-02  4.17E-02  3.52E-02  3.86E-02  3.22E-02  3.96E-02
 res:  2.79E-02  3.54E-02  4.27E-02  7.81E-02  1.26E-01  1.16E-01  1.19E-01  1.00E-01
 res:  2.58E-01  1.10E-01  1.60E-01  2.16E-01
 ene: -2.04E+00 -2.03E+00 -1.96E+00 -1.94E+00 -1.88E+00 -1.87E+00 -1.86E+00 -1.81E+00
 ene: -1.37E+00 -1.33E+00 -1.28E+00 -1.28E+00 -1.27E+00 -1.26E+00 -1.24E+00 -1.23E+00
 ene: -1.22E+00 -1.19E+00 -1.18E+00 -1.16E+00 -1.16E+00 -1.15E+00 -1.14E+00 -1.11E+00
 ene: -1.09E+00 -1.07E+00 -1.05E+00 -1.01E+00 -6.06E-01 -4.77E-01 -4.60E-01 -3.76E-01
 ene: -2.70E-01 -2.45E-01 -2.03E-01 -6.74E-02
 res:  3.33E-04  3.55E-04  2.96E-04  2.49E-04  2.78E-04  2.66E-04  2.58E-04  2.86E-04
 res:  1.70E-04  1.13E-03  4.54E-04  8.17E-04  5.44E-04  4.89E-04  6.33E-04  1.76E-03
 res:  1.73E-04  2.48E-03  5.82E-04  3.18E-03  2.30E-03  9.23E-04  5.21E-03  1.88E-03
 res:  4.05E-03  8.05E-03  1.46E-03  6.95E-03  3.68E-02  9.30E-02  1.83E-01  1.66E-01
 res:  1.01E-01  3.18E-02  3.25E-02  5.50E-02
 ene: -2.05E+00 -2.03E+00 -1.96E+00 -1.94E+00 -1.89E+00 -1.88E+00 -1.86E+00 -1.82E+00
 ene: -1.38E+00 -1.34E+00 -1.29E+00 -1.28E+00 -1.28E+00 -1.27E+00 -1.25E+00 -1.24E+00
 ene: -1.22E+00 -1.21E+00 -1.20E+00 -1.19E+00 -1.18E+00 -1.16E+00 -1.15E+00 -1.13E+00
 ene: -1.12E+00 -1.11E+00 -1.09E+00 -1.06E+00 -1.05E+00 -1.02E+00 -9.92E-01 -9.40E-01
 ene: -5.89E-01 -5.06E-01 -4.81E-01 -4.07E-01
 vtowfk : number of one-way 3D ffts skipped in vtowfk until now =8
     eigenvalues (hartree) for   36  bands
              after    3 non-SCF iterations with    4 CG line minimizations
 -2.0476E+00 -2.0344E+00 -1.9624E+00 -1.9426E+00 -1.8900E+00 -1.8803E+00
 -1.8612E+00 -1.8184E+00 -1.3778E+00 -1.3428E+00 -1.2902E+00 -1.2845E+00
 -1.2769E+00 -1.2677E+00 -1.2463E+00 -1.2388E+00 -1.2227E+00 -1.2072E+00
 -1.2013E+00 -1.1873E+00 -1.1790E+00 -1.1612E+00 -1.1535E+00 -1.1330E+00
 -1.1243E+00 -1.1122E+00 -1.0905E+00 -1.0557E+00 -1.0482E+00 -1.0174E+00
 -9.9222E-01 -9.4015E-01 -5.8924E-01 -5.0612E-01 -4.8064E-01 -4.0676E-01
 Total charge density [el/Bohr^3]
,     Maximum=    8.5059E-01  at reduced coord.    0.8611    0.1944    0.0278
,     Minimum=    7.8917E-07  at reduced coord.    0.1250    0.7778    0.5556
,  Integrated=    6.4000E+01
 ETOT  2  -120.21553294190    -7.140E+00 1.833E-01 1.575E+04
 scprqt: <Vxc>= -5.2432199E-02 hartree

 Pulay update with  1 previous iterations:
 mixing of old trial potential : alpha(m:m-4)=  0.588      0.412

 ITER STEP NUMBER     3
 vtorho : nnsclo_now=  1, note that nnsclo,dbl_nnsclo,istep=  0 0  3
 Non-SCF iterations; kpt #     1  , k= (  0.00000  0.00000  0.00000  ), band residuals:
 res:  2.15E-02  1.71E-02  1.31E-02  6.70E-03  7.65E-03  8.76E-03  8.73E-03  5.30E-03
 res:  2.73E-03  5.05E-03  6.63E-03  7.43E-03  2.38E-03  5.21E-03  2.11E-03  1.02E-02
 res:  6.79E-03  1.01E-02  9.45E-03  6.25E-03  6.15E-03  7.55E-03  4.36E-03  7.74E-03
 res:  5.66E-03  4.35E-03  3.68E-03  1.99E-03  1.35E-03  4.45E-03  1.92E-03  3.77E-03
 res:  2.02E-02  2.03E-02  1.67E-02  1.49E-02
 ene: -1.35E+00 -1.33E+00 -1.31E+00 -1.30E+00 -1.29E+00 -1.28E+00 -1.28E+00 -1.25E+00
 ene: -8.02E-01 -7.89E-01 -7.68E-01 -7.64E-01 -7.52E-01 -7.49E-01 -7.41E-01 -7.35E-01
 ene: -7.10E-01 -6.56E-01 -6.54E-01 -6.36E-01 -6.24E-01 -6.02E-01 -5.90E-01 -5.89E-01
 ene: -5.70E-01 -5.57E-01 -5.43E-01 -5.41E-01 -5.25E-01 -5.07E-01 -5.02E-01 -4.92E-01
 ene: -2.62E-01 -1.74E-01 -1.63E-01 -1.39E-01
 vtowfk : number of one-way 3D ffts skipped in vtowfk until now =12
     eigenvalues (hartree) for   36  bands
              after    2 non-SCF iterations with    4 CG line minimizations
 -1.3459E+00 -1.3340E+00 -1.3084E+00 -1.3013E+00 -1.2880E+00 -1.2798E+00
 -1.2766E+00 -1.2489E+00 -8.0223E-01 -7.8858E-01 -7.6844E-01 -7.6409E-01
 -7.5195E-01 -7.4882E-01 -7.4098E-01 -7.3498E-01 -7.1003E-01 -6.5586E-01
 -6.5437E-01 -6.3627E-01 -6.2448E-01 -6.0192E-01 -5.8973E-01 -5.8881E-01
 -5.6984E-01 -5.5731E-01 -5.4280E-01 -5.4058E-01 -5.2537E-01 -5.0714E-01
 -5.0247E-01 -4.9201E-01 -2.6184E-01 -1.7439E-01 -1.6291E-01 -1.3946E-01
 Total charge density [el/Bohr^3]
,     Maximum=    6.2401E-01  at reduced coord.    0.5556    0.2639    0.0972
,     Minimum=    2.1210E-07  at reduced coord.    0.1250    0.5694    0.5000
,  Integrated=    6.4000E+01
 ETOT  3  -125.33116072615    -5.116E+00 2.153E-02 2.811E+03
 scprqt: <Vxc>= -4.8710038E-02 hartree

 Pulay update with  2 previous iterations:
 mixing of old trial potential : alpha(m:m-4)=  0.545      0.184      0.271

 ITER STEP NUMBER     4
 vtorho : nnsclo_now=  1, note that nnsclo,dbl_nnsclo,istep=  0 0  4
 Non-SCF iterations; kpt #     1  , k= (  0.00000  0.00000  0.00000  ), band residuals:
 res:  3.01E-04  3.33E-04  4.63E-04  5.35E-04  3.60E-04  2.12E-04  2.88E-04  3.71E-04
 res:  1.16E-04  4.12E-05  6.62E-05  2.32E-04  7.48E-05  2.32E-04  2.39E-04  2.51E-04
 res:  2.77E-04  1.76E-04  2.15E-04  1.74E-04  2.00E-04  2.02E-04  2.03E-04  1.41E-04
 res:  2.00E-04  1.89E-04  1.55E-04  8.16E-05  1.95E-04  7.33E-05  8.75E-05  7.90E-05
 res:  5.87E-04  5.67E-04  7.04E-04  1.68E-03
 ene: -1.30E+00 -1.29E+00 -1.27E+00 -1.26E+00 -1.26E+00 -1.24E+00 -1.23E+00 -1.23E+00
 ene: -7.46E-01 -7.31E-01 -7.14E-01 -7.09E-01 -7.03E-01 -7.01E-01 -6.96E-01 -6.76E-01
 ene: -6.71E-01 -6.13E-01 -6.10E-01 -5.95E-01 -5.80E-01 -5.58E-01 -5.50E-01 -5.50E-01
 ene: -5.29E-01 -5.13E-01 -5.01E-01 -4.98E-01 -4.75E-01 -4.69E-01 -4.65E-01 -4.63E-01
 ene: -2.11E-01 -1.36E-01 -1.22E-01 -1.02E-01
 vtowfk : number of one-way 3D ffts skipped in vtowfk until now =16
     eigenvalues (hartree) for   36  bands
              after    2 non-SCF iterations with    4 CG line minimizations
 -1.2997E+00 -1.2941E+00 -1.2726E+00 -1.2635E+00 -1.2560E+00 -1.2440E+00
 -1.2348E+00 -1.2333E+00 -7.4603E-01 -7.3057E-01 -7.1383E-01 -7.0903E-01
 -7.0269E-01 -7.0112E-01 -6.9625E-01 -6.7646E-01 -6.7132E-01 -6.1319E-01
 -6.1038E-01 -5.9465E-01 -5.8007E-01 -5.5825E-01 -5.5044E-01 -5.4989E-01
 -5.2905E-01 -5.1280E-01 -5.0116E-01 -4.9838E-01 -4.7516E-01 -4.6913E-01
 -4.6537E-01 -4.6342E-01 -2.1054E-01 -1.3627E-01 -1.2239E-01 -1.0226E-01
 Total charge density [el/Bohr^3]
,     Maximum=    6.4284E-01  at reduced coord.    0.5972    0.1667    0.7917
,     Minimum=    2.0718E-07  at reduced coord.    0.8889    0.6389    0.4583
,  Integrated=    6.4000E+01
 ETOT  4  -125.33312598610    -1.965E-03 1.676E-03 1.770E+03
 scprqt: <Vxc>= -4.7911123E-02 hartree

 Pulay update with  3 previous iterations:
 mixing of old trial potential : alpha(m:m-4)=   1.25     -0.391     -0.176E-01  0.158

 ITER STEP NUMBER     5
 vtorho : nnsclo_now=  1, note that nnsclo,dbl_nnsclo,istep=  0 0  5
 Non-SCF iterations; kpt #     1  , k= (  0.00000  0.00000  0.00000  ), band residuals:
 res:  6.68E-05  6.23E-05  1.27E-04  8.61E-05  8.34E-05  5.47E-05  1.47E-04  6.58E-05
 res:  7.05E-05  3.62E-06  8.63E-06  7.29E-05  4.16E-05  6.24E-05  3.54E-05  4.24E-05
 res:  3.82E-05  6.11E-05  4.20E-05  8.55E-05  7.21E-05  1.16E-04  8.71E-05  8.92E-05
 res:  4.01E-05  2.15E-05  1.50E-05  2.38E-05  1.77E-05  1.54E-05  7.87E-06  2.77E-05
 res:  2.86E-04  3.66E-04  6.43E-04  3.32E-03
 ene: -1.21E+00 -1.20E+00 -1.17E+00 -1.17E+00 -1.16E+00 -1.15E+00 -1.14E+00 -1.13E+00
 ene: -6.54E-01 -6.44E-01 -6.30E-01 -6.21E-01 -6.17E-01 -6.14E-01 -6.07E-01 -5.94E-01
 ene: -5.85E-01 -5.25E-01 -5.22E-01 -5.05E-01 -4.90E-01 -4.68E-01 -4.65E-01 -4.60E-01
 ene: -4.41E-01 -4.19E-01 -4.06E-01 -4.04E-01 -3.85E-01 -3.79E-01 -3.77E-01 -3.75E-01
 ene: -1.48E-01 -8.42E-02 -7.65E-02 -6.84E-02
 vtowfk : number of one-way 3D ffts skipped in vtowfk until now =20
     eigenvalues (hartree) for   36  bands
              after    2 non-SCF iterations with    4 CG line minimizations
 -1.2077E+00 -1.1959E+00 -1.1738E+00 -1.1664E+00 -1.1567E+00 -1.1501E+00
 -1.1434E+00 -1.1329E+00 -6.5402E-01 -6.4443E-01 -6.2957E-01 -6.2093E-01
 -6.1731E-01 -6.1391E-01 -6.0728E-01 -5.9403E-01 -5.8468E-01 -5.2501E-01
 -5.2192E-01 -5.0498E-01 -4.9022E-01 -4.6756E-01 -4.6482E-01 -4.6039E-01
 -4.4133E-01 -4.1872E-01 -4.0618E-01 -4.0407E-01 -3.8526E-01 -3.7925E-01
 -3.7711E-01 -3.7501E-01 -1.4751E-01 -8.4215E-02 -7.6543E-02 -6.8446E-02
 Total charge density [el/Bohr^3]
,     Maximum=    6.1945E-01  at reduced coord.    0.8333    0.2083    0.0556
,     Minimum=    1.9945E-07  at reduced coord.    0.8889    0.6389    0.4583
,  Integrated=    6.4000E+01
 ETOT  5  -125.47487913092    -1.418E-01 3.325E-03 5.407E+02
 scprqt: <Vxc>= -4.9368528E-02 hartree

 Pulay update with  4 previous iterations:
 mixing of old trial potential : alpha(m:m-4)=  0.726      0.583     -0.395     -0.140E-01  0.999E-01

 ITER STEP NUMBER     6
 vtorho : nnsclo_now=  1, note that nnsclo,dbl_nnsclo,istep=  0 0  6
 Non-SCF iterations; kpt #     1  , k= (  0.00000  0.00000  0.00000  ), band residuals:
 res:  4.56E-05  4.74E-05  4.62E-05  7.64E-05  5.80E-05  3.75E-05  7.43E-05  3.90E-05
 res:  2.29E-05  2.74E-05  6.96E-05  5.50E-05  3.30E-05  1.09E-04  6.54E-05  2.50E-05
 res:  8.82E-05  7.01E-05  9.16E-05  6.08E-05  8.58E-05  9.92E-05  4.81E-05  7.93E-05
 res:  6.23E-05  5.51E-05  4.92E-05  6.02E-05  6.83E-05  4.79E-05  2.57E-05  2.47E-05
 res:  6.11E-05  7.48E-05  1.21E-04  1.50E-04
