
.Version 5.3.4  of ABINIT 
.(sequential version, prepared for a x86_64_linux_UNKNOWN computer) 

.Copyright (C) 1998-2007 ABINIT group . 
 ABINIT comes with ABSOLUTELY NO WARRANTY.
 It is free software, and you are welcome to redistribute it
 under certain conditions (GNU General Public License,
 see ~abinit/COPYING or http://www.gnu.org/copyleft/gpl.txt).

 ABINIT is a project of the Universite Catholique de Louvain,
 Corning Inc. and other collaborators, see ~abinit/doc/developers/contributors.txt .
 Please read ~abinit/doc/users/acknowledgments.html for suggested
 acknowledgments of the ABINIT effort.
 For more information, see http://www.abinit.org .

.Starting date : Fri 21 Aug 2015.
  
- input  file    -> tmp.in
- output file    -> tmp.out
- root for input  files -> tmp_xi
- root for output files -> tmp_xo


 Symmetries : space group P1 (#  1); Bravais aP (primitive triclinic)
================================================================================
 Values of the parameters that define the memory need of the present run
   intxc =         0  ionmov =         0    iscf =         7     ixc =         1
  lmnmax =         1   lnmax =         1   mband =         5  mffmem =         1
P  mgfft =        72   mkmem =         1 mpssoang=         1     mpw =     11792
  mqgrid =      3001   natom =         4    nfft =    373248    nkpt =         1
  nloalg =         4  nspden =         1 nspinor =         1  nsppol =         1
    nsym =         1  n1xccc =         0  ntypat =         2  occopt =         1
================================================================================
P This job should need less than                      96.629 Mbytes of memory.
  Rough estimation (10% accuracy) of disk space for files :
  WF disk file :      0.902 Mbytes ; DEN or POT disk file :      2.850 Mbytes.
================================================================================

 -outvars: echo values of preprocessed input variables --------
     acell    2.5000000000E+01  2.5000000000E+01  2.5000000000E+01 Bohr
       amu    1.00794000E+00  1.59994000E+01
    charge    1.00000000E+00
    diemac    2.00000000E+00
      ecut    1.00000000E+01 Hartree
    istwfk      2
P    mkmem         1
     natom         4
     nband         5
     ngfft        72      72      72
      nkpt         1
     nstep        10
      nsym         1
    ntypat         2
       occ    2.000000  2.000000  2.000000  2.000000  0.000000
   spgroup         1
    toldfe    1.00000000E-10 Hartree
     typat    2  1  1  1
    xangst   -4.0530300000E+00  6.5001000000E-02 -1.5251600000E+00
             -4.5667100000E+00  9.7481300000E-01 -1.9128200000E+00
             -3.0678200000E+00  3.3017200000E-01 -1.4773100000E+00
             -4.3703600000E+00 -4.9164000000E-02 -5.7227400000E-01
     xcart   -7.6591166764E+00  1.2283408785E-01 -2.8821346968E+00
             -8.6298311923E+00  1.8421295931E+00 -3.6147059264E+00
             -5.7973396008E+00  6.2393465414E-01 -2.7917113017E+00
             -8.2587834676E+00 -9.2906495209E-02 -1.0814411285E+00
      xred   -3.0636466706E-01  4.9133635140E-03 -1.1528538787E-01
             -3.4519324769E-01  7.3685183723E-02 -1.4458823706E-01
             -2.3189358403E-01  2.4957386166E-02 -1.1166845207E-01
             -3.3035133871E-01 -3.7162598084E-03 -4.3257645138E-02
     znucl      1.00000    8.00000

================================================================================

 chkinp: Checking input parameters for consistency.

================================================================================
== DATASET  1 ==================================================================

 Real(R)+Recip(G) space primitive vectors, cartesian coordinates (Bohr,Bohr^-1):
 R(1)= 25.0000000  0.0000000  0.0000000  G(1)=  0.0400000  0.0000000  0.0000000
 R(2)=  0.0000000 25.0000000  0.0000000  G(2)=  0.0000000  0.0400000  0.0000000
 R(3)=  0.0000000  0.0000000 25.0000000  G(3)=  0.0000000  0.0000000  0.0400000
 Unit cell volume ucvol=  1.5625000E+04 bohr^3
 Angles (23,13,12)=  9.00000000E+01  9.00000000E+01  9.00000000E+01 degrees

 getcut: wavevector=  0.0000  0.0000  0.0000  ngfft=  72  72  72
         ecut(hartree)=     10.000   => boxcut(ratio)=   2.02315

--- Pseudopotential description ------------------------------------------------
- pspini: atom type   1  psp file is Psps_for_tests/01h.pspgth
- pspatm: opening atomic psp file    Psps_for_tests/01h.pspgth
 Goedecker-Teter-Hutter  Wed May  8 14:27:44 EDT 1996
   1.00000   1.00000    960508                znucl, zion, pspdat
    2    1    0    0      2001   0.00000      pspcod,pspxc,lmax,lloc,mmax,r2well
 rloc=   0.2000000
  cc1=  -4.0663326; cc2=   0.6778322; cc3=   0.0000000; cc4=   0.0000000
  rrs=   0.0000000; h1s=   0.0000000; h2s=   0.0000000
  rrp=   0.0000000; h1p=   0.0000000
-  Local part computed in reciprocal space.

 pspatm : COMMENT -
  the projectors are not normalized,
  so that the KB energies are not consistent with
  definition in PRB44, 8503 (1991).
  However, this does not influence the results obtained hereafter.
 pspatm: epsatm=   -0.00480358
         --- l  ekb(1:nproj) -->
 pspatm: atomic psp has been read  and splines computed

- pspini: atom type   2  psp file is Psps_for_tests/08o.pspgth
- pspatm: opening atomic psp file    Psps_for_tests/08o.pspgth
   O SG LDA PSP
   8.00000   6.00000    960531                znucl, zion, pspdat
    2    1    0    0      2001   0.00000      pspcod,pspxc,lmax,lloc,mmax,r2well
 rloc=   0.2477535
  cc1= -16.4822284; cc2=   2.3701353; cc3=   0.0000000; cc4=   0.0000000
  rrs=   0.2222028; h1s=  18.1996387; h2s=   0.0000000
  rrp=   0.0000000; h1p=   0.0000000
-  Local part computed in reciprocal space.

 pspatm : COMMENT -
  the projectors are not normalized,
  so that the KB energies are not consistent with
  definition in PRB44, 8503 (1991).
  However, this does not influence the results obtained hereafter.
 pspatm: epsatm=    0.06936534
         --- l  ekb(1:nproj) -->
             0    0.707809
 pspatm: atomic psp has been read  and splines computed

   4.94591423E-01                                ecore*ucvol(ha*bohr**3)
--------------------------------------------------------------------------------

P newkpt: treating      5 bands with npw=   11792 for ikpt=   1

 setup2: Arith. and geom. avg. npw (full set) are   23583.000   23583.000

================================================================================

     iter   Etot(hartree)      deltaE(h)  residm     vres2    diffor    maxfor
 ETOT  1  -11.672595587197    -1.167E+01 3.365E-02 7.471E+03 7.768E-01 7.768E-01
 ETOT  2  -14.412646042374    -2.740E+00 2.960E-01 2.203E+03 8.735E-01 1.948E-01
 ETOT  3  -15.914155793326    -1.502E+00 4.501E-02 1.576E+02 2.350E-01 6.742E-02
 ETOT  4  -15.905984816553     8.171E-03 6.242E-04 8.109E+01 3.776E-02 6.030E-02
 ETOT  5  -15.930353018640    -2.437E-02 3.722E-04 8.197E+00 3.504E-02 8.753E-02
 ETOT  6  -15.930839035651    -4.860E-04 1.034E-05 2.704E+00 3.308E-03 8.940E-02
 ETOT  7  -15.931295653126    -4.566E-04 8.548E-06 7.784E-02 4.975E-03 9.369E-02
 ETOT  8  -15.931304703232    -9.050E-06 6.778E-07 1.871E-03 8.708E-04 9.425E-02
 ETOT  9  -15.931304824473    -1.212E-07 3.315E-08 8.941E-05 9.472E-05 9.420E-02
 ETOT 10  -15.931304849083    -2.461E-08 2.565E-09 9.924E-06 4.928E-05 9.422E-02

 Cartesian components of stress tensor (hartree/bohr^3)
  sigma(1 1)=  4.75313673E-05  sigma(3 2)=  2.16387752E-06
  sigma(2 2)=  5.68545623E-05  sigma(3 1)=  2.49019630E-06
  sigma(3 3)=  4.88060965E-05  sigma(2 1)= -1.67052619E-06


 scprqt:  WARNING -
  nstep=   10 was not enough SCF cycles to converge;
  maximum energy difference=  2.461E-08 exceeds toldfe=  1.000E-10

================================================================================

 ----iterations are completed or convergence reached----

 Mean square residual over all n,k,spin=   1.1718E-09; max=  2.5647E-09
   0.0000  0.0000  0.0000    1  2.56466E-09 kpt; spin; max resid(k); each band:
 2.56E-09 4.12E-10 1.61E-09 5.52E-10 7.24E-10
 reduced coordinates (array xred) for    4 atoms
      -0.306364667055      0.004913363514     -0.115285387872
      -0.345193247691      0.073685183723     -0.144588237056
      -0.231893584031      0.024957386166     -0.111668452069
      -0.330351338705     -0.003716259808     -0.043257645138
 rms dE/dt=  1.1945E+00; max dE/dt=  2.3553E+00; dE/dt below (all hartree)
    1       1.072202834770      1.099147030903      2.355324149750
    2       0.186702072306     -0.488516436655      0.011924065386
    3      -1.883427789957     -0.645422559962     -0.239653588019
    4       0.624309136130      0.035239712714     -2.128760226107

 cartesian coordinates (angstrom) at end:
    1     -4.05303000000000     0.06500100000000    -1.52516000000000
    2     -4.56671000000000     0.97481300000000    -1.91282000000000
    3     -3.06782000000000     0.33017200000000    -1.47731000000000
    4     -4.37036000000000    -0.04916400000000    -0.57227400000000

 cartesian forces (hartree/bohr) at end:
    1     -0.04289025085832    -0.04396140376611    -0.09422462197989
    2     -0.00747022035973     0.01954513493620    -0.00048861860533
    3      0.07533497413077     0.02582137986848     0.00957448753085
    4     -0.02497450291272    -0.00140511103857     0.08513875305437
 frms,max,avg= 4.7781267E-02 9.4224622E-02   2.137E-06 -4.477E-06  1.166E-05 h/b

 cartesian forces (eV/Angstrom) at end:
    1     -2.20550523262857    -2.26058612620700    -4.84522455943573
    2     -0.38413415082830     1.00505118323060    -0.02512577728634
    3      3.87387987527061     1.32778865299130     0.49233991236804
    4     -1.28424049181375    -0.07225371001489     4.37801042435403
 frms,max,avg= 2.4570114E+00 4.8452246E+00   1.099E-04 -2.302E-04  5.994E-04 e/A
 length scales= 25.000000000000 25.000000000000 25.000000000000 bohr
              = 13.229430270000 13.229430270000 13.229430270000 angstroms
 prteigrs : about to open file tmp_xo_EIG
 Fermi (or HOMO) energy (hartree) =  -0.56728   Average Vxc (hartree)=  -0.01402
 Eigenvalues (hartree) for nkpt=   1  k points:
 kpt#   1, nband=  5, wtk=  1.00000, kpt=  0.0000  0.0000  0.0000 (reduced coord)
  -1.31450  -0.72872  -0.70759  -0.56728  -0.21337

,Min el dens=  4.4156E-11 el/bohr^3 at reduced coord.  0.3333  0.3194  0.9444
,   next min=  6.2348E-11 el/bohr^3 at reduced coord.  0.0417  0.7500  0.3611
,Max el dens=  6.1239E-01 el/bohr^3 at reduced coord.  0.6806  0.9861  0.8750
,   next max=  6.0049E-01 el/bohr^3 at reduced coord.  0.6944  0.9861  0.8750

--------------------------------------------------------------------------------
 Components of total free energy (in Hartree) :

    Kinetic energy  =  9.30353548098581E+00
    Hartree energy  =  1.59440866507750E+01
    XC energy       = -3.81968276032880E+00
    Ewald energy    =  5.46533171765717E+00
    PspCore energy  =  3.16538511001262E-05
    Loc. psp. energy= -4.51330091464257E+01
    NL   psp  energy=  2.30840155440215E+00
    >>>>>>>>> Etotal= -1.59313048490832E+01

 Other information on the energy :
    Total energy(eV)= -4.33512861835118E+02 ; Band energy (Ha)=  -6.6361765077E+00
--------------------------------------------------------------------------------

 Cartesian components of stress tensor (hartree/bohr^3)
  sigma(1 1)=  4.75313673E-05  sigma(3 2)=  2.16387752E-06
  sigma(2 2)=  5.68545623E-05  sigma(3 1)=  2.49019630E-06
  sigma(3 3)=  4.88060965E-05  sigma(2 1)= -1.67052619E-06

-Cartesian components of stress tensor (GPa)         [Pressure= -1.5024E+00 GPa]
- sigma(1 1)=  1.39842092E+00  sigma(3 2)=  6.36634663E-02
- sigma(2 2)=  1.67271875E+00  sigma(3 1)=  7.32640950E-02
- sigma(3 3)=  1.43592475E+00  sigma(2 1)= -4.91485710E-02

== END DATASET(S) ==============================================================
================================================================================
  
 -outvars: echo values of variables after computation  --------
     acell    2.5000000000E+01  2.5000000000E+01  2.5000000000E+01 Bohr
       amu    1.00794000E+00  1.59994000E+01
    charge    1.00000000E+00
    diemac    2.00000000E+00
      ecut    1.00000000E+01 Hartree
    etotal   -1.5931304849E+01
     fcart   -4.2890250858E-02 -4.3961403766E-02 -9.4224621980E-02
             -7.4702203597E-03  1.9545134936E-02 -4.8861860533E-04
              7.5334974131E-02  2.5821379868E-02  9.5744875309E-03
             -2.4974502913E-02 -1.4051110386E-03  8.5138753054E-02
    istwfk      2
P    mkmem         1
     natom         4
     nband         5
     ngfft        72      72      72
      nkpt         1
     nstep        10
      nsym         1
    ntypat         2
       occ    2.000000  2.000000  2.000000  2.000000  0.000000
   spgroup         1
    strten    4.7531367275E-05  5.6854562251E-05  4.8806096519E-05
              2.1638775194E-06  2.4901963000E-06 -1.6705261906E-06
    toldfe    1.00000000E-10 Hartree
     typat    2  1  1  1
    xangst   -4.0530300000E+00  6.5001000000E-02 -1.5251600000E+00
             -4.5667100000E+00  9.7481300000E-01 -1.9128200000E+00
             -3.0678200000E+00  3.3017200000E-01 -1.4773100000E+00
             -4.3703600000E+00 -4.9164000000E-02 -5.7227400000E-01
     xcart   -7.6591166764E+00  1.2283408785E-01 -2.8821346968E+00
             -8.6298311923E+00  1.8421295931E+00 -3.6147059264E+00
             -5.7973396008E+00  6.2393465414E-01 -2.7917113017E+00
             -8.2587834676E+00 -9.2906495209E-02 -1.0814411285E+00
      xred   -3.0636466706E-01  4.9133635140E-03 -1.1528538787E-01
             -3.4519324769E-01  7.3685183723E-02 -1.4458823706E-01
             -2.3189358403E-01  2.4957386166E-02 -1.1166845207E-01
             -3.3035133871E-01 -3.7162598084E-03 -4.3257645138E-02
     znucl      1.00000    8.00000

================================================================================

- Total cpu        time (s,m,h):         19.7        0.33      0.005
- Total wall clock time (s,m,h):         19.7        0.33      0.005

- For major independent code sections, cpu and wall times (sec),
- as well as % of the total time and number of calls 

- routine                 cpu     %       wall     %      number of calls 
-                                                          (-1=no count)
- fourwf(pot)           12.737  64.8     12.730  64.8            300
- fourdp                 1.618   8.2      1.614   8.2             43
- fourwf(den)            1.364   6.9      1.368   7.0             40
- forces                 0.627   3.2      0.629   3.2             10
- xc:pot/=fourdp         0.529   2.7      0.529   2.7             11
- timing timab           0.485   2.5      0.485   2.5             14
- projbd                 0.294   1.5      0.265   1.3            480
- nonlop(apply)          0.180   0.9      0.176   0.9            300
- stress                 0.114   0.6      0.113   0.6              1
- 57   others            0.475   2.4      0.494   2.5

- subtotal              18.423  93.7     18.403  93.6

================================================================================

 Calculation completed.
.Delivered    2 WARNINGs and   3 COMMENTs to log file.
+Overall time at end (sec) : cpu=         19.7  wall=         19.7
