generated from tmp.xyz

6 atoms
2 atom types

-24.56671 16.93218 xlo xhi
-19.934999 22.7513 ylo yhi
-21.91282 23.20215 zlo zhi

Atoms

1	2 -4.053030 0.065001 -1.525160
2	1 -4.566710 0.974813 -1.912820
3	1 -3.067820 0.330172 -1.477310
4	2 -3.818880 2.024990 2.187990
5	1 -3.690880 1.961360 3.202150
6	1 -4.546490 2.751300 2.045370
