  MPI-parallelism will be employed.
------------------------------------------------------------
          Invoking FHI-aims ...
          Version 081213
          Compiled on 2013/08/29 at 17:41:06 on host generoso.

          When using FHI-aims, please cite the following reference:

          Volker Blum, Ralf Gehrke, Felix Hanke, Paula Havu,
          Ville Havu, Xinguo Ren, Karsten Reuter, and Matthias Scheffler,
          'Ab Initio Molecular Simulations with Numeric Atom-Centered Orbitals: FHI-aims',
          Computer Physics Communications 180, 2175-2196 (2009)

          For any questions about FHI-aims, please visit the aimsclub website
          with its forums and wiki. Contributions to both the forums and the
          wiki are warmly encouraged - they are for you, and everyone is welcome there.

------------------------------------------------------------

  Date     :  20150727, Time     :  122410.653
  Time zero on CPU 1             :   0.459920000000000E-01  s.
  Internal wall clock time zero  :           207231850.653  s.

  Using        8 parallel tasks.
  Task        0 on host gen60 reporting.
  Task        1 on host gen60 reporting.
  Task        2 on host gen60 reporting.
  Task        3 on host gen60 reporting.
  Task        4 on host gen60 reporting.
  Task        5 on host gen60 reporting.
  Task        6 on host gen60 reporting.
  Task        7 on host gen60 reporting.

  Performing system and environment tests:
  | Environment variable OMP_NUM_THREADS correctly set to 1.
  | Checking for scalapack...
  | No scalapack compiled in.

  Obtaining array dimensions for all initial allocations:
  
  -----------------------------------------------------------------------
  Parsing control.in (first pass over file, find array dimensions only).
  The contents of control.in will be repeated verbatim below
  unless switched off by setting 'verbatim_writeout .false.' .
  in the first line of control.in .
  -----------------------------------------------------------------------
  
  #########################################################################################
  #
  #  Volker Blum, FHI 2008 : Test run input file control.in
  #
  #########################################################################################
  #
  #  Physical model
  #
    xc                 rpbe
    spin               none
    relativistic       atomic_zora scalar
    charge             0.
   vdw_correction_hirshfeld
  #
  #  SCF convergence
  #
    occupation_type    gaussian 0.01
    mixer              pulay
      n_max_pulay        10
      charge_mix_param   0.1
    sc_accuracy_rho    5E-5
    sc_accuracy_eev    5E-3
    sc_accuracy_etot   5E-6
    sc_iter_limit      3000
  #
  #  Eigenvalue solver
  #
    KS_method          lapack
      empty_states       8
      basis_threshold    0.e-5
  #
  #  Efficiency
  #
  #   all previous settings are now default, except stratmann still
  #   undecided. Continue to handle stratmann with care, if at all.
  #
  #  partition_type stratmann
    partition_type rho_r2
  #  hartree_partition_type stratmann
  #
  #  Oprions for large clusters (100's of atoms: memory saving / better scaling)
  #
  # for periodic systems:
  #
    density_update_method orbital
    packed_matrix_format none
  #  k_grid 6 6 6
  #  output k_eigenvalue 1
  #  distributed_spline_storage .true.
  #
  #  Relaxation
  #
  #  relax_geometry   bfgs 5.e-3
    sc_accuracy_forces 5.E-4
    final_forces_cleaned .true.
  #
  #  Output options
  #
  #  output mulliken
    output Hirshfeld
  #  output dipole
  
  #harmonic_length_scale 0.001
  
  ################################################################################
  #
  #  FHI-aims code project
  #  VB, Fritz-Haber Institut, 2007
  #
  #  Suggested "safe" defaults for H atom (to be pasted into control.in file)
  #  Basis constructed for a non-relativistic H2 molecule using the
  #  PW-LDA functional.
  #
  ################################################################################
    species        H
  #     global species definitions
      nucleus             1
      cut_pot             4.0  2.0  1.0
      cut_free_atom       finite 8.0
      logarithmic         0.00010000 100.00  1.0123
      basis_dep_cutoff    1d-4  # 1d-4 is safe default - please check 5d-4 if you wish!
      radial_base         24 7.0
      radial_multiplier   2
      angular_grids       specified
        division   0.2783  110
        division   0.3822  194
        division   0.5626  302
  #      division   0.5922  434
  #      division   0.6227  590
  #      division   0.7206  770
        outer_grid  302
      l_hartree           4
  ################################################################################
  #
  #  Definition of "minimal" basis
  #
  ################################################################################
  #     valence basis states
      valence      1  s   1.
  #     ion occupancy
      ion_occ      1  s   0.5
  ################################################################################
  #
  #  Suggested additional basis functions. For production calculations,
  #  uncomment them one after another (the most important basis functions are
  #  listed first).
  #
  ################################################################################
  #  "First tier" - improvements: -1014.90 meV to -62.69 meV
       hydro 2 s 2.1
       hydro 2 p 3.5
  #  "Second tier" - improvements: -12.89 meV to -1.83 meV
       hydro 1 s 0.85
       hydro 2 p 3.7
       hydro 2 s 1.2
       hydro 3 d 7
  #  "Third tier" - improvements: -0.25 meV to -0.12 meV
  #     hydro 4 f 11.2
  #     hydro 3 p 4.8
  #     hydro 4 d 9
  #     hydro 3 s 3.2
  
  ################################################################################
  #
  #  FHI-aims code project
  #  VB, Fritz-Haber Institut, 2007
  #
  #  Suggested "safe" defaults for O atom (to be pasted into control.in file)
  #  All values have been tested for a non-relativistic, non-spinpolarized O2
  #  molecule using the PW-LDA functional. Validity for PBE is expected.
  #
  #  Constructed for dimers: 1.0 A, 1.208 A, 1.5 A, 2.0 A, 3.0 A
  #
  ################################################################################
    species        O
  #     global species definitions
      nucleus             8
      mass                15.9994
      l_hartree           4
      cut_pot             4.0  2.0  1.0
      cut_free_atom       finite 8.0
      basis_dep_cutoff    1d-4  # 1d-4 is safe default - please check 5d-4 if you wish!
      logarithmic         0.00010000 100.00  1.0123
      radial_base         36 7.0
      radial_multiplier   2
       angular_grids specified
        division   0.4087  110
        division   0.5181  194
        division   0.6184  302
  #      division   0.7315  434
  #      division   0.7934  590
  #      division   0.9656  770
  #      division   1.4041  974
  #      outer_grid 974
        outer_grid 302
  ################################################################################
  #
  #  Definition of "minimal" basis
  #
  ################################################################################
  #     valence basis states
      valence      2  s   2.
      valence      2  p   4.
  #     ion occupancy
      ion_occ      2  s   1.
      ion_occ      2  p   3.
  ################################################################################
  #
  #  Suggested additional basis functions. For production calculations,
  #  uncomment them one after another (the most important basis functions are
  #  listed first).
  #
  ################################################################################
  #  "First tier" - improvements: -699.05 meV to -159.38 meV
       hydro 2 p 1.8
       hydro 3 d 7.6
       hydro 3 s 6.4
  #  "Second tier" - improvements: -49.91 meV to -5.39 meV
       hydro 4 f 11.6
       hydro 3 p 6.2
       hydro 3 d 5.6
       hydro 5 g 17.6
       hydro 1 s 0.75
  #  "Third tier" - improvements: -2.83 meV to -0.50 meV
  #     ionic 2 p auto
  #     hydro 4 f 10.8
  #     hydro 4 d 4.7
  #     hydro 2 s 6.8
  #  "Fourth tier" - improvements: -0.40 meV to -0.12 meV
  #     hydro 3 p 5
  #     hydro 3 s 3.3
  #     hydro 5 g 15.6
  #     hydro 4 f 17.6
  #     hydro 4 d 14
  # Further basis functions - -0.08 meV and below
  #     hydro 3 s 2.1
  #     hydro 4 d 11.6
  #     hydro 3 p 16
  #     hydro 2 s 17.2
  
  
  -----------------------------------------------------------------------
  Completed first pass over input file control.in .
  -----------------------------------------------------------------------
  
  
  -----------------------------------------------------------------------
  Parsing geometry.in (first pass over file, find array dimensions only).
  The contents of geometry.in will be repeated verbatim below
  unless switched off by setting 'verbatim_writeout .false.' .
  in the first line of geometry.in .
  -----------------------------------------------------------------------
  
  atom      -4.053030000      0.065001000     -1.525160000  O
  atom      -4.566710000      0.974813000     -1.912820000  H
  atom      -3.067820000      0.330172000     -1.477310000  H
  atom      -5.293160000      2.192130000     -2.328800000  O
  atom      -4.829300000      2.988660000     -1.973850000  H
  atom      -5.428570000      2.328640000     -3.235170000  H
  atom      -1.645860000      0.870179000     -1.502250000  O
  atom      -1.568890000      1.501730000     -0.721051000  H
  atom      -0.824432000      0.282220000     -1.377720000  H
  
  -----------------------------------------------------------------------
  Completed first pass over input file geometry.in .
  -----------------------------------------------------------------------
  
 
  Basic array size parameters: 
  | Number of species                 :        2
  | Number of atoms                   :        9
  | Max. basis fn. angular momentum   :        4
  | Max. atomic/ionic basis occupied n:        2
  | Max. number of basis fn. types    :        2
  | Max. radial fns per species/type  :        8
  | Max. logarithmic grid size        :     1301
  | Max. radial integration grid size :       73
  | Max. angular integration grid size:      302
  | Max. angular grid division number :        8
  | Radial grid for Hartree potential :     1301
  | Number of spin channels           :        1

------------------------------------------------------------
          Reading file control.in.
------------------------------------------------------------
  XC: Using RPBE gradient-corrected functionals.
  Spin treatment: No spin polarisation.
  Scalar relativistic treatment of kinetic energy: on-site free-atom approximation to ZORA.
  Charge =   0.000000E+00: Neutral system requested explicitly.
  Using non-empirical van der Waals correction (Hirshfeld partitioning):
  Occupation type: Gaussian broadening, width =   0.100000E-01 eV.
  Using pulay charge density mixing.
  Pulay mixing - number of memorized iterations:   10
  Charge density mixing - mixing parameter:     0.1000
  Convergence accuracy of self-consistent charge density: 0.5000E-04
  Convergence accuracy of sum of eigenvalues: 0.5000E-02
  Convergence accuracy of total energy: 0.5000E-05
  Maximum number of s.-c. iterations  :  3000
  Kohn-Sham eigenvalues and eigenfunctions calculated by lapack diagonalisation (D&C).
  Number of empty states per atom:        8
  Threshold for basis singularities: 0.0000E+00
  Partition function in integrals calculations: rho / r^2
 Using packed matrix format           0
  Convergence accuracy of forces: 0.5000E-03
  Cleaning forces before final output.
  Hirshfeld charge analysis will be performed.
 
  Reading configuration options for species H                   .
  | Found nuclear charge :   1.0000
  | Found cutoff potl. onset [A], width [A], scale factor :    4.00000    2.00000    1.00000
  | Found cutoff specification for free atom: Cutoff potential begins at    8.00000 A.
  | Found logarithmic grid data [bohr] : 0.1000E-03 0.1000E+03 0.1012E+01
  | Threshold for basis-dependent cutoff potential is   0.100000E-03
  | Found data for basic radial integration grid :    24 points, outermost radius =    7.000 A
  | Found multiplier for basic radial grid :   2
  | Found angular grid specification: user-specified.
  | Specified grid contains     4 separate shells.
  | Check grid settings after all constraints further below.
  | Found l_max for Hartree potential  :   4
  | Found free-atom valence shell :  1 s   1.000
  | No ionic wave fns used. Skipping ion_occ.
  | Found hydrogenic basis function :  2 s   2.100
  | Found hydrogenic basis function :  2 p   3.500
  | Found hydrogenic basis function :  1 s   0.850
  | Found hydrogenic basis function :  2 p   3.700
  | Found hydrogenic basis function :  2 s   1.200
  | Found hydrogenic basis function :  3 d   7.000
  Species H                   : Missing cutoff potential type.
  Defaulting to exp(1/x)/(1-x)^2 type cutoff potential.
  Species H : On-site basis accuracy parameter (for Gram-Schmidt orthonormalisation) not specified.
  Using default value basis_acc =  0.1000000E-03.
  Species H                   : Using default innermost maximum threshold i_radial=  2 for radial functions.
  Species H                   : Basic radial grid will be enhanced according to radial_multiplier =   2, to contain    49 grid points.
 
  Reading configuration options for species O                   .
  | Found nuclear charge :   8.0000
  | Found atomic mass :    15.9994000000000      amu
  | Found l_max for Hartree potential  :   4
  | Found cutoff potl. onset [A], width [A], scale factor :    4.00000    2.00000    1.00000
  | Found cutoff specification for free atom: Cutoff potential begins at    8.00000 A.
  | Threshold for basis-dependent cutoff potential is   0.100000E-03
  | Found logarithmic grid data [bohr] : 0.1000E-03 0.1000E+03 0.1012E+01
  | Found data for basic radial integration grid :    36 points, outermost radius =    7.000 A
  | Found multiplier for basic radial grid :   2
  | Found angular grid specification: user-specified.
  | Specified grid contains     4 separate shells.
  | Check grid settings after all constraints further below.
  | Found free-atom valence shell :  2 s   2.000
  | Found free-atom valence shell :  2 p   4.000
  | No ionic wave fns used. Skipping ion_occ.
  | No ionic wave fns used. Skipping ion_occ.
  | Found hydrogenic basis function :  2 p   1.800
  | Found hydrogenic basis function :  3 d   7.600
  | Found hydrogenic basis function :  3 s   6.400
  | Found hydrogenic basis function :  4 f  11.600
  | Found hydrogenic basis function :  3 p   6.200
  | Found hydrogenic basis function :  3 d   5.600
  | Found hydrogenic basis function :  5 g  17.600
  | Found hydrogenic basis function :  1 s   0.750
  Species O                   : Missing cutoff potential type.
  Defaulting to exp(1/x)/(1-x)^2 type cutoff potential.
  Species O : On-site basis accuracy parameter (for Gram-Schmidt orthonormalisation) not specified.
  Using default value basis_acc =  0.1000000E-03.
  Species O                   : Using default innermost maximum threshold i_radial=  2 for radial functions.
  Species O                   : Basic radial grid will be enhanced according to radial_multiplier =   2, to contain    73 grid points.
 
  Finished reading input file 'control.in'. Consistency checks are next.
 
  Target number of points in a grid batch is not set. Defaulting to  100
  Method for grid partitioning is not set. Defaulting to parallel hash+maxmin partitioning.
  Batch size limit is not set. Defaulting to    200
  By default, will store active basis functions for each batch.
  If in need of memory, prune_basis_once .false. can be used to disable this option.
  communication_type for Hartree potential was not specified.
  Defaulting to calc_hartree .
  Pulay mixer: Number of initial linear mixing iterations not set.
  Defaulting to    0 iterations.
  Work space size for distributed Hartree potential not set.
  Defaulting to   0.200000E+03 MB.
  Algorithm-dependent basis array size parameters:
  | n_max_pulay                         :       10
  Geometry relaxation not requested: no relaxation will be performed.
  Handling of forces: Unphysical translation and rotation will be removed from forces.
  No accuracy limit for integral partition fn. given. Defaulting to 0.1000E-14.
  No threshold value for u(r) in integrations given. Defaulting to 0.1000E-05.
  No accuracy for occupation numbers given. Defaulting to 0.1000E-07.
  No threshold value for occupation numbers given. Defaulting to 0.0000E+00.
  No accuracy for fermi level given. Defaulting to 0.1000E-19.
  Maximum # of iterations to find E_F not set. Defaulting to  200.
  Will not use alltoall communication since running on < 1024 CPUs.
  Partitioning for Hartree potential was not defined. Using partition_type for integrals.
  | Reporting present value of keyword multip_moments_threshold  :       0.10000000E-09
  | This value may affect high angular momentum components of the Hartree potential in periodic systems.
  No q(lm)/r^(l+1) cutoff set for long-range Hartree potential.
  | Using default value of  0.100000E-09 .
  | Verify using the multipole_threshold keyword.
  Defaulting to new monopole extrapolation.
  Density update method: Loop over occupied states selected for charge density update.
------------------------------------------------------------


------------------------------------------------------------
          Reading geometry description geometry.in.
------------------------------------------------------------
  Input structure read successfully.
  The structure contains        9 atoms,  and a total of         30.000 electrons.

  Input geometry:
  | No unit cell requested.
  | Atomic structure:
  |       Atom                x [A]            y [A]            z [A]
  |    1: Species O             -4.053030         0.065001        -1.525160
  |    2: Species H             -4.566710         0.974813        -1.912820
  |    3: Species H             -3.067820         0.330172        -1.477310
  |    4: Species O             -5.293160         2.192130        -2.328800
  |    5: Species H             -4.829300         2.988660        -1.973850
  |    6: Species H             -5.428570         2.328640        -3.235170
  |    7: Species O             -1.645860         0.870179        -1.502250
  |    8: Species H             -1.568890         1.501730        -0.721051
  |    9: Species H             -0.824432         0.282220        -1.377720
  |

  | The smallest distance between any two atoms is         0.92654057 AA.
  |
  | The first atom of this pair is atom number                      4 .
  | The second atom of this pair is atom number                     6 .

  Structure-dependent array size parameters: 
  | Maximum number of distinct radial functions  :       18
  | Maximum number of basis functions            :      207
  | Number of Kohn-Sham states (occupied + empty):       51
------------------------------------------------------------

------------------------------------------------------------
          Preparing all fixed parts of the calculation.
------------------------------------------------------------
  Determining machine precision:
    2.225073858507201E-308
  Setting up grids for atomic and cluster calculations.

  Creating wave function, potential, and density for free atoms.

  Species: H

  List of occupied orbitals and eigenvalues:
    n    l              occ      energy [Ha]    energy [eV]
    1    0           1.0000        -0.241408        -6.5691


  Species: O

  List of occupied orbitals and eigenvalues:
    n    l              occ      energy [Ha]    energy [eV]
    1    0           2.0000       -18.944147      -515.4965
    2    0           2.0000        -0.883529       -24.0421
    2    1           4.0000        -0.330176        -8.9845

  Creating fixed part of basis set: Ionic, confined, hydrogenic.
 
  H                    hydrogenic:
 
  List of hydrogenic basis orbitals: 
    n    l      effective z      eigenvalue [eV]  inner max. [A]     outer max. [A]     outer radius [A]   
    2    0         2.100000       -14.9965           0.193241           1.317192           5.372934
    2    1         3.500000       -41.6672           0.602363           0.602363           4.056010
    1    0         0.850000        -9.8292           0.624864           0.624864           5.372934
    2    1         3.700000       -46.5653           0.573616           0.573616           3.909951
    2    0         1.200000        -4.5995           0.334977           2.228160           5.505921
    3    2         7.000000       -74.0753           0.680692           0.680692           3.769152
 
 
  O                    hydrogenic:
 
  List of hydrogenic basis orbitals: 
    n    l      effective z      eigenvalue [eV]  inner max. [A]     outer max. [A]     outer radius [A]   
    2    1         1.800000       -11.0118           1.178546           1.178546           5.432516
    3    2         7.600000       -87.3182           0.624117           0.624117           3.541422
    3    0         6.400000       -61.9209           0.061166           1.081887           4.306510
    4    3        11.600000      -114.4238           0.731621           0.731621           3.584982
    3    1         6.200000       -58.1113           0.255677           1.030255           4.306510
    3    2         5.600000       -47.4081           0.847222           0.847222           4.413102
    5    4        17.600000      -168.5799           0.749730           0.749730           3.372413
    1    0         0.750000        -7.6499           0.705275           0.705275           5.366508
 

  Adding cutoff potential to free-atom effective potential.
  Creating atomic-like basis functions for current effective potential.

  Species H                   :

  List of atomic basis orbitals and eigenvalues:
    n    l      energy [Ha]    energy [eV]    outer radius [A]
    1    0        -0.241374        -6.5681       5.372934


  Species O                   :

  List of atomic basis orbitals and eigenvalues:
    n    l      energy [Ha]    energy [eV]    outer radius [A]
    1    0       -18.944147      -515.4965       1.415745
    2    0        -0.883529       -24.0421       5.048305
    2    1        -0.330173        -8.9845       5.301302

  Assembling full basis from fixed parts.
  | Species H :   atomic orbital   1 s accepted.
  | Species H :    hydro orbital   2 s accepted.
  | Species H :    hydro orbital   1 s accepted.
  | Species H :    hydro orbital   2 s accepted.
  | Species H :    hydro orbital   2 p accepted.
  | Species H :    hydro orbital   2 p accepted.
  | Species H :    hydro orbital   3 d accepted.
  | Species O :   atomic orbital   1 s accepted.
  | Species O :    hydro orbital   3 s accepted.
  | Species O :   atomic orbital   2 s accepted.
  | Species O :    hydro orbital   1 s accepted.
  | Species O :    hydro orbital   3 p accepted.
  | Species O :   atomic orbital   2 p accepted.
  | Species O :    hydro orbital   2 p accepted.
  | Species O :    hydro orbital   3 d accepted.
  | Species O :    hydro orbital   3 d accepted.
  | Species O :    hydro orbital   4 f accepted.
  | Species O :    hydro orbital   5 g accepted.
 
  Basis size parameters after reduction:
  | Total number of radial functions:       18
  | Total number of basis functions :      207
 
  Testing on-site integration grid accuracy.
  |  Species  Function  <phi|h_atom|phi> (log., in eV)  <phi|h_atom|phi> (rad., in eV)
           1        1                 -6.5683835025                 -6.5684759159
           1        2                 13.3711789951                 13.3708738703
           1        3                 23.6590910787                 23.6532055418
           1        4                 16.2963827186                 16.1870710655 ***
           1        5                 28.7627214838                 28.7627215090
           1        6                 59.5965249172                 59.5965950857
           1        7                 60.2220506392                 60.2220503827
           2        8               -515.4964576505               -515.4964530710
           2        9                 15.3030791347                 15.3030722972
           2       10                -21.7296094581                -21.7296135470
           2       11                 14.2969371730                 14.2969701621
           2       12                 21.0679693190                 21.0679697493
           2       13                 -2.3833606469                 -2.3833613176
           2       14                 13.7067136422                 13.7066766629
           2       15                 45.8013116808                 45.8013116965
           2       16                 52.2309815402                 52.2309831494
           2       17                 85.4120732416                 85.4120732763
           2       18                142.1019167745                142.1019167817
 * Note: Onsite integrals marked "***" above are less accurate than
 * onsite_accuracy_threshold =    0.03000 eV. Usually, this is harmless.
 * When in doubt, tighten the "radial" and/or "radial_multiplier" flags to check.

  Preparing densities etc. for the partition functions (integrals / Hartree potential).

  Preparations completed.
  max(cpu_time)          :      0.171 s.
  Wall clock time (cpu1) :      0.469 s.
------------------------------------------------------------

------------------------------------------------------------
          Begin self-consistency loop: Initialization.

          Date     :  20150727, Time     :  122411.152
------------------------------------------------------------

  Initializing index lists of integration centers etc. from given atomic structure:
  | Number of centers in hartree potential         :         9
  | Number of centers in hartree multipole         :         9
  | Number of centers in electron density summation:         9
  | Number of centers in basis integrals           :         9
  | Number of centers in integrals                 :         9
  Partitioning the integration grid into batches with parallel hashing+maxmin method.
  | Number of batches:     1302
  | Maximal batch size:     190
  | Minimal batch size:      52
  | Average batch size:      90.650
  | Standard deviation of batch sizes:      26.369

  Integration load balanced across     8 MPI tasks.
  Work distribution over tasks is as follows:
  Task     0 has      14734 integration points.
  Task     1 has      14775 integration points.
  Task     2 has      14749 integration points.
  Task     3 has      14734 integration points.
  Task     4 has      14718 integration points.
  Task     5 has      14791 integration points.
  Task     6 has      14751 integration points.
  Task     7 has      14774 integration points.
  Initializing partition tables, free-atom densities, potentials, etc. across the integration grid (initialize_grid_storage).
  | Net number of integration points:   118026
  | of which are non-zero points    :   117527
  Obtaining max. number of non-zero basis functions in each batch (get_n_compute_maxes).
  | Maximal number of non-zero basis functions:      206 in task     0
  | Maximal number of non-zero basis functions:      206 in task     1
  | Maximal number of non-zero basis functions:      206 in task     2
  | Maximal number of non-zero basis functions:      206 in task     3
  | Maximal number of non-zero basis functions:      206 in task     4
  | Maximal number of non-zero basis functions:      206 in task     5
  | Maximal number of non-zero basis functions:      206 in task     6
  | Maximal number of non-zero basis functions:      206 in task     7
  Integrating Hamiltonian matrix: batch-based integration.
  Time summed over all CPUs for integration: real work        2.564 s, elapsed        2.647 s
  Integrating overlap matrix.
  Time summed over all CPUs for integration: real work        1.325 s, elapsed        1.362 s

  Updating Kohn-Sham eigenvalues, eigenvectors, occupation numbers, and Fermi level.
  Solving generalized eigenproblem
  Updating Kohn-Sham eigenvalues and eigenfunctions.
  Transforming overlap matrix and checking for singularities.
  Overlap matrix is nonsingular:
  | Lowest eigenvalue:  0.262242E-03
  Solving real generalised eigenvalue problem by standard LAPACK (fast)
  Determining occupation numbers for Kohn-Sham eigenstates.
  | Chemical potential (Fermi level) in eV                 : -.36836386E+01
  | Error in electron count due to remaining E_F inaccuracy: 0.00000000E+00
  | Maximum occupation number of highest empty state:  0.00E+00

  Writing Kohn-Sham eigenvalues.

  State    Occupation    Eigenvalue [Ha]    Eigenvalue [eV]
      1       2.00000         -19.064785         -518.77918
      2       2.00000         -19.042417         -518.17053
      3       2.00000         -19.019675         -517.55168
      4       2.00000          -1.121185          -30.50900
      5       2.00000          -1.086669          -29.56977
      6       2.00000          -1.042002          -28.35432
      7       2.00000          -0.650114          -17.69051
      8       2.00000          -0.608794          -16.56612
      9       2.00000          -0.600543          -16.34161
     10       2.00000          -0.548453          -14.92416
     11       2.00000          -0.500706          -13.62490
     12       2.00000          -0.476463          -12.96521
     13       2.00000          -0.441342          -12.00954
     14       2.00000          -0.431359          -11.73788
     15       2.00000          -0.409711          -11.14881
     16       0.00000          -0.086003           -2.34027
     17       0.00000          -0.063271           -1.72169
     18       0.00000          -0.016876           -0.45921
     19       0.00000           0.000029            0.00078
     20       0.00000           0.012169            0.33113
     21       0.00000           0.061574            1.67552
     22       0.00000           0.077394            2.10599
     23       0.00000           0.083635            2.27583
     24       0.00000           0.099975            2.72046
     25       0.00000           0.103242            2.80935
     26       0.00000           0.108919            2.96383
     27       0.00000           0.122141            3.32363
     28       0.00000           0.151092            4.11142
     29       0.00000           0.158067            4.30122
     30       0.00000           0.173925            4.73273
     31       0.00000           0.180641            4.91550
     32       0.00000           0.228720            6.22378
     33       0.00000           0.235481            6.40777
     34       0.00000           0.258715            7.04000
     35       0.00000           0.277512            7.55149
     36       0.00000           0.308080            8.38329
     37       0.00000           0.345262            9.39507
     38       0.00000           0.351382            9.56160
     39       0.00000           0.365097            9.93479
     40       0.00000           0.384423           10.46069
     41       0.00000           0.402087           10.94134
     42       0.00000           0.408878           11.12614
     43       0.00000           0.424820           11.55993
     44       0.00000           0.433967           11.80885
     45       0.00000           0.472362           12.85361
     46       0.00000           0.533500           14.51728
     47       0.00000           0.560749           15.25876
     48       0.00000           0.594450           16.17579
     49       0.00000           0.654891           17.82049
     50       0.00000           0.700599           19.06426
     51       0.00000           0.743627           20.23512

  Highest occupied state (VBM) at    -11.14880812 eV
  | Occupation number:      2.00000000

  Lowest unoccupied state (CBM) at    -2.34026643 eV
  | Occupation number:      0.00000000

  Overall HOMO-LUMO gap:      8.80854169 eV.
  Calculating total energy contributions from superposition of free atom densities.

  Total energy components:
  | Sum of eigenvalues            :        -130.08843584 Ha       -3539.88644662 eV
  | XC energy correction          :         -27.34983405 Ha        -744.22685032 eV
  | XC potential correction       :          34.95082563 Ha         951.06035477 eV
  | Free-atom electrostatic energy:        -107.35513406 Ha       -2921.28183101 eV
  | Hartree energy correction     :           0.00000000 Ha           0.00000000 eV
  | van der Waals energy corr.    :           0.00000000 Ha           0.00000000 eV
  | Entropy correction            :           0.00000000 Ha           0.00000000 eV
  | ---------------------------
  | Total energy                  :        -229.84257832 Ha       -6254.33477319 eV
  | Total energy, T -> 0          :        -229.84257832 Ha       -6254.33477319 eV  <-- do not rely on this value for anything but (periodic) metals
  | Electronic free energy        :        -229.84257832 Ha       -6254.33477319 eV

  Derived energy quantities:
  | Kinetic energy                :         227.52515021 Ha        6191.27434573 eV
  | Electrostatic energy          :        -430.01789448 Ha      -11701.38226860 eV
  | Energy correction for multipole
  | error in Hartree potential    :           0.00000000 Ha           0.00000000 eV
  | Sum of eigenvalues per atom                           :        -393.32071629 eV
  | Total energy (T->0) per atom                          :        -694.92608591 eV  <-- do not rely on this value for anything but (periodic) metals
  | Electronic free energy per atom                       :        -694.92608591 eV
  Initialize hartree_potential_storage
  Max. number of atoms included in rho_multipole:            9

  End scf initialization - timings             :  max(cpu_time)    wall_clock(cpu1)
  | Time for scf. initialization               :        0.753 s           0.753 s
  | Boundary condition initialization          :        0.000 s           0.000 s
  | Integration                                :        0.503 s           0.503 s
  | Solution of K.-S. eqns.                    :        0.065 s           0.065 s
  | Grid partitioning                          :        0.091 s           0.091 s
  | Preloading free-atom quantities on grid    :        0.014 s           0.014 s
  | Free-atom superposition energy             :        0.029 s           0.029 s
  | Total energy evaluation                    :        0.001 s           0.000 s
------------------------------------------------------------

------------------------------------------------------------
          Begin self-consistency iteration #    1

  Date     :  20150727, Time     :  122411.905
------------------------------------------------------------
  Evaluating new KS density.
  Integration grid: deviation in total charge (<rho> - N_e) =   3.552714E-15
  Pulay mixing of updated and previous charge densities.

  Evaluating partitioned Hartree potential by multipole expansion.
  | Analytical far-field extrapolation by fixed multipoles:
  | Hartree multipole sum: apparent total charge =  -0.131665E-05
  Summing up the Hartree potential.
  Time summed over all CPUs for potential: real work        0.945 s, elapsed        0.948 s
  | RMS charge density error from multipole expansion :   0.124549E-02

  Integrating Hamiltonian matrix: batch-based integration.
  Time summed over all CPUs for integration: real work        2.558 s, elapsed        2.650 s

  Updating Kohn-Sham eigenvalues, eigenvectors, occupation numbers, and Fermi level.
  Solving generalized eigenproblem
  Updating Kohn-Sham eigenvalues and eigenfunctions.
  Solving real generalised eigenvalue problem by standard LAPACK (fast)
  Determining occupation numbers for Kohn-Sham eigenstates.
  | Chemical potential (Fermi level) in eV                 : -.33400023E+01
  | Error in electron count due to remaining E_F inaccuracy: 0.00000000E+00
  | Maximum occupation number of highest empty state:  0.00E+00

  Writing Kohn-Sham eigenvalues.

  State    Occupation    Eigenvalue [Ha]    Eigenvalue [eV]
      1       2.00000         -18.997355         -516.94433
      2       2.00000         -18.977601         -516.40679
      3       2.00000         -18.923691         -514.93983
      4       2.00000          -1.089498          -29.64674
      5       2.00000          -1.055075          -28.71004
      6       2.00000          -0.989333          -26.92112
      7       2.00000          -0.623080          -16.95487
      8       2.00000          -0.578913          -15.75303
      9       2.00000          -0.566148          -15.40568
     10       2.00000          -0.513777          -13.98058
     11       2.00000          -0.463269          -12.60619
     12       2.00000          -0.436975          -11.89070
     13       2.00000          -0.400942          -10.91020
     14       2.00000          -0.390775          -10.63354
     15       2.00000          -0.355487           -9.67329
     16       0.00000          -0.079669           -2.16789
     17       0.00000          -0.057878           -1.57495
     18       0.00000          -0.012024           -0.32720
     19       0.00000           0.005478            0.14907
     20       0.00000           0.024043            0.65426
     21       0.00000           0.069164            1.88204
     22       0.00000           0.086698            2.35918
     23       0.00000           0.093947            2.55643
     24       0.00000           0.106032            2.88528
     25       0.00000           0.110387            3.00379
     26       0.00000           0.122328            3.32870
     27       0.00000           0.135131            3.67711
     28       0.00000           0.168295            4.57954
     29       0.00000           0.175681            4.78053
     30       0.00000           0.183398            4.99053
     31       0.00000           0.193881            5.27577
     32       0.00000           0.237924            6.47423
     33       0.00000           0.243533            6.62688
     34       0.00000           0.264834            7.20649
     35       0.00000           0.285303            7.76349
     36       0.00000           0.318496            8.66672
     37       0.00000           0.354798            9.65453
     38       0.00000           0.361709            9.84260
     39       0.00000           0.374849           10.20017
     40       0.00000           0.396607           10.79223
     41       0.00000           0.409655           11.14728
     42       0.00000           0.419850           11.42469
     43       0.00000           0.430982           11.72762
     44       0.00000           0.442050           12.02880
     45       0.00000           0.480015           13.06188
     46       0.00000           0.544250           14.80979
     47       0.00000           0.573603           15.60853
     48       0.00000           0.609485           16.58492
     49       0.00000           0.669234           18.21078
     50       0.00000           0.714338           19.43812
     51       0.00000           0.753711           20.50951

  Highest occupied state (VBM) at     -9.67329218 eV
  | Occupation number:      2.00000000

  Lowest unoccupied state (CBM) at    -2.16789270 eV
  | Occupation number:      0.00000000

  Overall HOMO-LUMO gap:      7.50539948 eV.

  Total energy components:
  | Sum of eigenvalues            :        -128.72383974 Ha       -3502.75389754 eV
  | XC energy correction          :         -27.49225945 Ha        -748.10244273 eV
  | XC potential correction       :          35.13726496 Ha         956.13362697 eV
  | Free-atom electrostatic energy:        -107.35513406 Ha       -2921.28183101 eV
  | Hartree energy correction     :          -1.31933102 Ha         -35.90082373 eV
  | van der Waals energy corr.    :           0.00000000 Ha           0.00000000 eV
  | Entropy correction            :           0.00000000 Ha           0.00000000 eV
  | ---------------------------
  | Total energy                  :        -229.75329932 Ha       -6251.90536804 eV
  | Total energy, T -> 0          :        -229.75329932 Ha       -6251.90536804 eV  <-- do not rely on this value for anything but (periodic) metals
  | Electronic free energy        :        -229.75329932 Ha       -6251.90536804 eV

  Derived energy quantities:
  | Kinetic energy                :         228.37321639 Ha        6214.35140078 eV
  | Electrostatic energy          :        -430.63425626 Ha      -11718.15432609 eV
  | Energy correction for multipole
  | error in Hartree potential    :          -0.00018017 Ha          -0.00490264 eV
  | Sum of eigenvalues per atom                           :        -389.19487750 eV
  | Total energy (T->0) per atom                          :        -694.65615200 eV  <-- do not rely on this value for anything but (periodic) metals
  | Electronic free energy per atom                       :        -694.65615200 eV

  Self-consistency convergence accuracy:
  | Change of charge density      : 0.5060E+00
  | Change of sum of eigenvalues  : 0.3713E+02 eV
  | Change of total energy        : 0.2429E+01 eV

  End self-consistency iteration #     1       :  max(cpu_time)    wall_clock(cpu1)
  | Time for this iteration                    :        0.702 s           0.702 s
  | Charge density update                      :        0.229 s           0.229 s
  | Density mixing                             :        0.002 s           0.001 s
  | Hartree multipole update                   :        0.003 s           0.004 s
  | Hartree multipole summation                :        0.119 s           0.119 s
  | Integration                                :        0.332 s           0.332 s
  | Solution of K.-S. eqns.                    :        0.016 s           0.016 s
  | Total energy evaluation                    :        0.000 s           0.000 s
------------------------------------------------------------

------------------------------------------------------------
          Begin self-consistency iteration #    2

  Date     :  20150727, Time     :  122412.607
------------------------------------------------------------
  Evaluating new KS density.
  Integration grid: deviation in total charge (<rho> - N_e) =  -3.552714E-15
  Pulay mixing of updated and previous charge densities.

  Evaluating partitioned Hartree potential by multipole expansion.
  | Analytical far-field extrapolation by fixed multipoles:
  | Hartree multipole sum: apparent total charge =  -0.395711E-05
  Summing up the Hartree potential.
  Time summed over all CPUs for potential: real work        0.945 s, elapsed        0.947 s
  | RMS charge density error from multipole expansion :   0.500508E-02

  Integrating Hamiltonian matrix: batch-based integration.
  Time summed over all CPUs for integration: real work        2.558 s, elapsed        2.642 s

  Updating Kohn-Sham eigenvalues, eigenvectors, occupation numbers, and Fermi level.
  Solving generalized eigenproblem
  Updating Kohn-Sham eigenvalues and eigenfunctions.
  Solving real generalised eigenvalue problem by standard LAPACK (fast)
  Determining occupation numbers for Kohn-Sham eigenstates.
  | Chemical potential (Fermi level) in eV                 : -.24782829E+01
  | Error in electron count due to remaining E_F inaccuracy: 0.00000000E+00
  | Maximum occupation number of highest empty state:  0.00E+00

  Highest occupied state (VBM) at     -6.11289799 eV
  | Occupation number:      2.00000000

  Lowest unoccupied state (CBM) at    -1.78370992 eV
  | Occupation number:      0.00000000

  Overall HOMO-LUMO gap:      4.32918807 eV.

  Total energy components:
  | Sum of eigenvalues            :        -125.45661714 Ha       -3413.84824718 eV
  | XC energy correction          :         -27.84646348 Ha        -757.74082477 eV
  | XC potential correction       :          35.60051782 Ha         968.73937888 eV
  | Free-atom electrostatic energy:        -107.35513406 Ha       -2921.28183101 eV
  | Hartree energy correction     :          -4.58802063 Ha        -124.84639340 eV
  | van der Waals energy corr.    :           0.00000000 Ha           0.00000000 eV
  | Entropy correction            :           0.00000000 Ha           0.00000000 eV
  | ---------------------------
  | Total energy                  :        -229.64571749 Ha       -6248.97791747 eV
  | Total energy, T -> 0          :        -229.64571749 Ha       -6248.97791747 eV  <-- do not rely on this value for anything but (periodic) metals
  | Electronic free energy        :        -229.64571749 Ha       -6248.97791747 eV

  Derived energy quantities:
  | Kinetic energy                :         230.08912203 Ha        6261.04356890 eV
  | Electrostatic energy          :        -431.88837604 Ha      -11752.28066161 eV
  | Energy correction for multipole
  | error in Hartree potential    :          -0.00115250 Ha          -0.03136110 eV
  | Sum of eigenvalues per atom                           :        -379.31647191 eV
  | Total energy (T->0) per atom                          :        -694.33087972 eV  <-- do not rely on this value for anything but (periodic) metals
  | Electronic free energy per atom                       :        -694.33087972 eV

  Self-consistency convergence accuracy:
  | Change of charge density      : 0.3826E+00
  | Change of sum of eigenvalues  : 0.8891E+02 eV
  | Change of total energy        : 0.2927E+01 eV

  End self-consistency iteration #     2       :  max(cpu_time)    wall_clock(cpu1)
  | Time for this iteration                    :        0.699 s           0.700 s
  | Charge density update                      :        0.226 s           0.227 s
  | Density mixing                             :        0.003 s           0.003 s
  | Hartree multipole update                   :        0.004 s           0.003 s
  | Hartree multipole summation                :        0.119 s           0.119 s
  | Integration                                :        0.331 s           0.331 s
  | Solution of K.-S. eqns.                    :        0.016 s           0.016 s
  | Total energy evaluation                    :        0.000 s           0.000 s
------------------------------------------------------------

------------------------------------------------------------
          Begin self-consistency iteration #    3

  Date     :  20150727, Time     :  122413.307
------------------------------------------------------------
  Evaluating new KS density.
  Integration grid: deviation in total charge (<rho> - N_e) =   7.105427E-15
  Pulay mixing of updated and previous charge densities.

  Evaluating partitioned Hartree potential by multipole expansion.
  | Analytical far-field extrapolation by fixed multipoles:
  | Hartree multipole sum: apparent total charge =  -0.424577E-05
  Summing up the Hartree potential.
  Time summed over all CPUs for potential: real work        0.944 s, elapsed        0.947 s
  | RMS charge density error from multipole expansion :   0.987885E-02

  Integrating Hamiltonian matrix: batch-based integration.
  Time summed over all CPUs for integration: real work        2.547 s, elapsed        2.624 s

  Updating Kohn-Sham eigenvalues, eigenvectors, occupation numbers, and Fermi level.
  Solving generalized eigenproblem
  Updating Kohn-Sham eigenvalues and eigenfunctions.
  Solving real generalised eigenvalue problem by standard LAPACK (fast)
  Determining occupation numbers for Kohn-Sham eigenstates.
  | Chemical potential (Fermi level) in eV                 : -.23545284E+01
  | Error in electron count due to remaining E_F inaccuracy: 0.00000000E+00
  | Maximum occupation number of highest empty state:  0.00E+00

  Highest occupied state (VBM) at     -5.86889088 eV
  | Occupation number:      2.00000000

  Lowest unoccupied state (CBM) at    -1.71286969 eV
  | Occupation number:      0.00000000

  Overall HOMO-LUMO gap:      4.15602120 eV.

  Total energy components:
  | Sum of eigenvalues            :        -125.57301544 Ha       -3417.01560592 eV
  | XC energy correction          :         -27.82127786 Ha        -757.05548904 eV
  | XC potential correction       :          35.56483531 Ha         967.76840833 eV
  | Free-atom electrostatic energy:        -107.35513406 Ha       -2921.28183101 eV
  | Hartree energy correction     :          -4.45682186 Ha        -121.27629332 eV
  | van der Waals energy corr.    :           0.00000000 Ha           0.00000000 eV
  | Entropy correction            :           0.00000000 Ha           0.00000000 eV
  | ---------------------------
  | Total energy                  :        -229.64141391 Ha       -6248.86081096 eV
  | Total energy, T -> 0          :        -229.64141391 Ha       -6248.86081096 eV  <-- do not rely on this value for anything but (periodic) metals
  | Electronic free energy        :        -229.64141391 Ha       -6248.86081096 eV

  Derived energy quantities:
  | Kinetic energy                :         228.85728018 Ha        6227.52344665 eV
  | Electrostatic energy          :        -430.67741623 Ha      -11719.32876857 eV
  | Energy correction for multipole
  | error in Hartree potential    :          -0.00398406 Ha          -0.10841184 eV
  | Sum of eigenvalues per atom                           :        -379.66840066 eV
  | Total energy (T->0) per atom                          :        -694.31786788 eV  <-- do not rely on this value for anything but (periodic) metals
  | Electronic free energy per atom                       :        -694.31786788 eV

  Self-consistency convergence accuracy:
  | Change of charge density      : 0.1900E+00
  | Change of sum of eigenvalues  : -.3167E+01 eV
  | Change of total energy        : 0.1171E+00 eV

  End self-consistency iteration #     3       :  max(cpu_time)    wall_clock(cpu1)
  | Time for this iteration                    :        0.697 s           0.698 s
  | Charge density update                      :        0.225 s           0.226 s
  | Density mixing                             :        0.004 s           0.004 s
  | Hartree multipole update                   :        0.004 s           0.003 s
  | Hartree multipole summation                :        0.119 s           0.119 s
  | Integration                                :        0.329 s           0.329 s
  | Solution of K.-S. eqns.                    :        0.016 s           0.016 s
  | Total energy evaluation                    :        0.000 s           0.000 s
------------------------------------------------------------

------------------------------------------------------------
          Begin self-consistency iteration #    4

  Date     :  20150727, Time     :  122414.005
------------------------------------------------------------
  Evaluating new KS density.
  Integration grid: deviation in total charge (<rho> - N_e) =   1.065814E-14
  Pulay mixing of updated and previous charge densities.

  Evaluating partitioned Hartree potential by multipole expansion.
  | Analytical far-field extrapolation by fixed multipoles:
  | Hartree multipole sum: apparent total charge =  -0.523957E-05
  Summing up the Hartree potential.
  Time summed over all CPUs for potential: real work        0.944 s, elapsed        0.947 s
  | RMS charge density error from multipole expansion :   0.131543E-01

  Integrating Hamiltonian matrix: batch-based integration.
  Time summed over all CPUs for integration: real work        2.547 s, elapsed        2.618 s

  Updating Kohn-Sham eigenvalues, eigenvectors, occupation numbers, and Fermi level.
  Solving generalized eigenproblem
  Updating Kohn-Sham eigenvalues and eigenfunctions.
  Solving real generalised eigenvalue problem by standard LAPACK (fast)
  Determining occupation numbers for Kohn-Sham eigenstates.
  | Chemical potential (Fermi level) in eV                 : -.20050099E+01
  | Error in electron count due to remaining E_F inaccuracy: 0.00000000E+00
  | Maximum occupation number of highest empty state:  0.00E+00

  Highest occupied state (VBM) at     -4.54752159 eV
  | Occupation number:      2.00000000

  Lowest unoccupied state (CBM) at    -1.54062245 eV
  | Occupation number:      0.00000000

  Overall HOMO-LUMO gap:      3.00689914 eV.

  Total energy components:
  | Sum of eigenvalues            :        -124.49934040 Ha       -3387.79942149 eV
  | XC energy correction          :         -27.94648153 Ha        -760.46245445 eV
  | XC potential correction       :          35.72797712 Ha         972.20772293 eV
  | Free-atom electrostatic energy:        -107.35513406 Ha       -2921.28183101 eV
  | Hartree energy correction     :          -5.56061647 Ha        -151.31207286 eV
  | van der Waals energy corr.    :           0.00000000 Ha           0.00000000 eV
  | Entropy correction            :           0.00000000 Ha           0.00000000 eV
  | ---------------------------
  | Total energy                  :        -229.63359534 Ha       -6248.64805688 eV
  | Total energy, T -> 0          :        -229.63359534 Ha       -6248.64805688 eV  <-- do not rely on this value for anything but (periodic) metals
  | Electronic free energy        :        -229.63359534 Ha       -6248.64805688 eV

  Derived energy quantities:
  | Kinetic energy                :         228.93530658 Ha        6229.64665294 eV
  | Electrostatic energy          :        -430.62242038 Ha      -11717.83225537 eV
  | Energy correction for multipole
  | error in Hartree potential    :          -0.00550549 Ha          -0.14981208 eV
  | Sum of eigenvalues per atom                           :        -376.42215794 eV
  | Total energy (T->0) per atom                          :        -694.29422854 eV  <-- do not rely on this value for anything but (periodic) metals
  | Electronic free energy per atom                       :        -694.29422854 eV

  Self-consistency convergence accuracy:
  | Change of charge density      : 0.1094E+00
  | Change of sum of eigenvalues  : 0.2922E+02 eV
  | Change of total energy        : 0.2128E+00 eV

  End self-consistency iteration #     4       :  max(cpu_time)    wall_clock(cpu1)
  | Time for this iteration                    :        0.698 s           0.697 s
  | Charge density update                      :        0.226 s           0.225 s
  | Density mixing                             :        0.005 s           0.005 s
  | Hartree multipole update                   :        0.003 s           0.004 s
  | Hartree multipole summation                :        0.119 s           0.119 s
  | Integration                                :        0.327 s           0.328 s
  | Solution of K.-S. eqns.                    :        0.016 s           0.016 s
  | Total energy evaluation                    :        0.000 s           0.000 s
------------------------------------------------------------

------------------------------------------------------------
          Begin self-consistency iteration #    5

  Date     :  20150727, Time     :  122414.702
------------------------------------------------------------
  Evaluating new KS density.
  Integration grid: deviation in total charge (<rho> - N_e) =   1.065814E-14
  Pulay mixing of updated and previous charge densities.

  Evaluating partitioned Hartree potential by multipole expansion.
  | Analytical far-field extrapolation by fixed multipoles:
  | Hartree multipole sum: apparent total charge =  -0.523470E-05
  Summing up the Hartree potential.
  Time summed over all CPUs for potential: real work        0.945 s, elapsed        0.947 s
  | RMS charge density error from multipole expansion :   0.135993E-01

  Integrating Hamiltonian matrix: batch-based integration.
  Time summed over all CPUs for integration: real work        2.551 s, elapsed        2.636 s

  Updating Kohn-Sham eigenvalues, eigenvectors, occupation numbers, and Fermi level.
  Solving generalized eigenproblem
  Updating Kohn-Sham eigenvalues and eigenfunctions.
  Solving real generalised eigenvalue problem by standard LAPACK (fast)
  Determining occupation numbers for Kohn-Sham eigenstates.
  | Chemical potential (Fermi level) in eV                 : -.19897486E+01
  | Error in electron count due to remaining E_F inaccuracy: 0.00000000E+00
  | Maximum occupation number of highest empty state:  0.00E+00

  Highest occupied state (VBM) at     -4.45700705 eV
  | Occupation number:      2.00000000

  Lowest unoccupied state (CBM) at    -1.53010909 eV
  | Occupation number:      0.00000000

  Overall HOMO-LUMO gap:      2.92689796 eV.

  Total energy components:
  | Sum of eigenvalues            :        -124.46298880 Ha       -3386.81024430 eV
  | XC energy correction          :         -27.95533886 Ha        -760.70347452 eV
  | XC potential correction       :          35.73912372 Ha         972.51103722 eV
  | Free-atom electrostatic energy:        -107.35513406 Ha       -2921.28183101 eV
  | Hartree energy correction     :          -5.59913986 Ha        -152.36034771 eV
  | van der Waals energy corr.    :           0.00000000 Ha           0.00000000 eV
  | Entropy correction            :           0.00000000 Ha           0.00000000 eV
  | ---------------------------
  | Total energy                  :        -229.63347787 Ha       -6248.64486032 eV
  | Total energy, T -> 0          :        -229.63347787 Ha       -6248.64486032 eV  <-- do not rely on this value for anything but (periodic) metals
  | Electronic free energy        :        -229.63347787 Ha       -6248.64486032 eV

  Derived energy quantities:
  | Kinetic energy                :         228.97185416 Ha        6230.64116332 eV
  | Electrostatic energy          :        -430.64999317 Ha      -11718.58254912 eV
  | Energy correction for multipole
  | error in Hartree potential    :          -0.00555490 Ha          -0.15115647 eV
  | Sum of eigenvalues per atom                           :        -376.31224937 eV
  | Total energy (T->0) per atom                          :        -694.29387337 eV  <-- do not rely on this value for anything but (periodic) metals
  | Electronic free energy per atom                       :        -694.29387337 eV

  Self-consistency convergence accuracy:
  | Change of charge density      : 0.2312E-01
  | Change of sum of eigenvalues  : 0.9892E+00 eV
  | Change of total energy        : 0.3197E-02 eV

  End self-consistency iteration #     5       :  max(cpu_time)    wall_clock(cpu1)
  | Time for this iteration                    :        0.701 s           0.700 s
  | Charge density update                      :        0.226 s           0.225 s
  | Density mixing                             :        0.006 s           0.006 s
  | Hartree multipole update                   :        0.003 s           0.004 s
  | Hartree multipole summation                :        0.119 s           0.119 s
  | Integration                                :        0.330 s           0.330 s
  | Solution of K.-S. eqns.                    :        0.016 s           0.016 s
  | Total energy evaluation                    :        0.000 s           0.000 s
------------------------------------------------------------

------------------------------------------------------------
          Begin self-consistency iteration #    6

  Date     :  20150727, Time     :  122415.403
------------------------------------------------------------
  Evaluating new KS density.
  Integration grid: deviation in total charge (<rho> - N_e) =   0.000000E+00
  Pulay mixing of updated and previous charge densities.

  Evaluating partitioned Hartree potential by multipole expansion.
  | Analytical far-field extrapolation by fixed multipoles:
  | Hartree multipole sum: apparent total charge =  -0.524741E-05
  Summing up the Hartree potential.
  Time summed over all CPUs for potential: real work        0.944 s, elapsed        0.947 s
  | RMS charge density error from multipole expansion :   0.137780E-01

  Integrating Hamiltonian matrix: batch-based integration.
  Time summed over all CPUs for integration: real work        2.542 s, elapsed        2.622 s

  Updating Kohn-Sham eigenvalues, eigenvectors, occupation numbers, and Fermi level.
  Solving generalized eigenproblem
  Updating Kohn-Sham eigenvalues and eigenfunctions.
  Solving real generalised eigenvalue problem by standard LAPACK (fast)
  Determining occupation numbers for Kohn-Sham eigenstates.
  | Chemical potential (Fermi level) in eV                 : -.19843719E+01
  | Error in electron count due to remaining E_F inaccuracy: 0.00000000E+00
  | Maximum occupation number of highest empty state:  0.00E+00

  Highest occupied state (VBM) at     -4.43664943 eV
  | Occupation number:      2.00000000

  Lowest unoccupied state (CBM) at    -1.52415634 eV
  | Occupation number:      0.00000000

  Overall HOMO-LUMO gap:      2.91249309 eV.

  Total energy components:
  | Sum of eigenvalues            :        -124.44390994 Ha       -3386.29108216 eV
  | XC energy correction          :         -27.95903361 Ha        -760.80401371 eV
  | XC potential correction       :          35.74380442 Ha         972.63840569 eV
  | Free-atom electrostatic energy:        -107.35513406 Ha       -2921.28183101 eV
  | Hartree energy correction     :          -5.61923723 Ha        -152.90722492 eV
  | van der Waals energy corr.    :           0.00000000 Ha           0.00000000 eV
  | Entropy correction            :           0.00000000 Ha           0.00000000 eV
  | ---------------------------
  | Total energy                  :        -229.63351042 Ha       -6248.64574610 eV
  | Total energy, T -> 0          :        -229.63351042 Ha       -6248.64574610 eV  <-- do not rely on this value for anything but (periodic) metals
  | Electronic free energy        :        -229.63351042 Ha       -6248.64574610 eV

  Derived energy quantities:
  | Kinetic energy                :         228.98342845 Ha        6230.95611565 eV
  | Electrostatic energy          :        -430.65790526 Ha      -11718.79784805 eV
  | Energy correction for multipole
  | error in Hartree potential    :          -0.00558191 Ha          -0.15189139 eV
  | Sum of eigenvalues per atom                           :        -376.25456468 eV
  | Total energy (T->0) per atom                          :        -694.29397179 eV  <-- do not rely on this value for anything but (periodic) metals
  | Electronic free energy per atom                       :        -694.29397179 eV

  Self-consistency convergence accuracy:
  | Change of charge density      : 0.9820E-02
  | Change of sum of eigenvalues  : 0.5192E+00 eV
  | Change of total energy        : -.8858E-03 eV

  End self-consistency iteration #     6       :  max(cpu_time)    wall_clock(cpu1)
  | Time for this iteration                    :        0.699 s           0.698 s
  | Charge density update                      :        0.225 s           0.225 s
  | Density mixing                             :        0.007 s           0.006 s
  | Hartree multipole update                   :        0.003 s           0.004 s
  | Hartree multipole summation                :        0.119 s           0.119 s
  | Integration                                :        0.329 s           0.328 s
  | Solution of K.-S. eqns.                    :        0.016 s           0.016 s
  | Total energy evaluation                    :        0.000 s           0.000 s
------------------------------------------------------------

------------------------------------------------------------
          Begin self-consistency iteration #    7

  Date     :  20150727, Time     :  122416.103
------------------------------------------------------------
  Evaluating new KS density.
  Integration grid: deviation in total charge (<rho> - N_e) =   2.131628E-14
  Pulay mixing of updated and previous charge densities.

  Evaluating partitioned Hartree potential by multipole expansion.
  | Analytical far-field extrapolation by fixed multipoles:
  | Hartree multipole sum: apparent total charge =  -0.508046E-05
  Summing up the Hartree potential.
  Time summed over all CPUs for potential: real work        0.944 s, elapsed        0.947 s
  | RMS charge density error from multipole expansion :   0.136689E-01

  Integrating Hamiltonian matrix: batch-based integration.
  Time summed over all CPUs for integration: real work        2.548 s, elapsed        2.632 s

  Updating Kohn-Sham eigenvalues, eigenvectors, occupation numbers, and Fermi level.
  Solving generalized eigenproblem
  Updating Kohn-Sham eigenvalues and eigenfunctions.
  Solving real generalised eigenvalue problem by standard LAPACK (fast)
  Determining occupation numbers for Kohn-Sham eigenstates.
  | Chemical potential (Fermi level) in eV                 : -.21174870E+01
  | Error in electron count due to remaining E_F inaccuracy: 0.00000000E+00
  | Maximum occupation number of highest empty state:  0.00E+00

  Highest occupied state (VBM) at     -4.63701887 eV
  | Occupation number:      2.00000000

  Lowest unoccupied state (CBM) at    -1.54808070 eV
  | Occupation number:      0.00000000

  Overall HOMO-LUMO gap:      3.08893818 eV.

  Total energy components:
  | Sum of eigenvalues            :        -124.56792994 Ha       -3389.66583790 eV
  | XC energy correction          :         -27.94727506 Ha        -760.48404737 eV
  | XC potential correction       :          35.72809705 Ha         972.21098617 eV
  | Free-atom electrostatic energy:        -107.35513406 Ha       -2921.28183101 eV
  | Hartree energy correction     :          -5.49115275 Ha        -149.42186895 eV
  | van der Waals energy corr.    :           0.00000000 Ha           0.00000000 eV
  | Entropy correction            :           0.00000000 Ha           0.00000000 eV
  | ---------------------------
  | Total energy                  :        -229.63339477 Ha       -6248.64259906 eV
  | Total energy, T -> 0          :        -229.63339477 Ha       -6248.64259906 eV  <-- do not rely on this value for anything but (periodic) metals
  | Electronic free energy        :        -229.63339477 Ha       -6248.64259906 eV

  Derived energy quantities:
  | Kinetic energy                :         229.01569825 Ha        6231.83422165 eV
  | Electrostatic energy          :        -430.70181796 Ha      -11719.99277334 eV
  | Energy correction for multipole
  | error in Hartree potential    :          -0.00536820 Ha          -0.14607617 eV
  | Sum of eigenvalues per atom                           :        -376.62953754 eV
  | Total energy (T->0) per atom                          :        -694.29362212 eV  <-- do not rely on this value for anything but (periodic) metals
  | Electronic free energy per atom                       :        -694.29362212 eV

  Self-consistency convergence accuracy:
  | Change of charge density      : 0.1015E-01
  | Change of sum of eigenvalues  : -.3375E+01 eV
  | Change of total energy        : 0.3147E-02 eV

  End self-consistency iteration #     7       :  max(cpu_time)    wall_clock(cpu1)
  | Time for this iteration                    :        0.702 s           0.701 s
  | Charge density update                      :        0.226 s           0.225 s
  | Density mixing                             :        0.007 s           0.007 s
  | Hartree multipole update                   :        0.004 s           0.004 s
  | Hartree multipole summation                :        0.119 s           0.119 s
  | Integration                                :        0.330 s           0.330 s
  | Solution of K.-S. eqns.                    :        0.016 s           0.016 s
  | Total energy evaluation                    :        0.000 s           0.000 s
------------------------------------------------------------

------------------------------------------------------------
          Begin self-consistency iteration #    8

  Date     :  20150727, Time     :  122416.804
------------------------------------------------------------
  Evaluating new KS density.
  Integration grid: deviation in total charge (<rho> - N_e) =   1.065814E-14
  Pulay mixing of updated and previous charge densities.

  Evaluating partitioned Hartree potential by multipole expansion.
  | Analytical far-field extrapolation by fixed multipoles:
  | Hartree multipole sum: apparent total charge =  -0.510132E-05
  Summing up the Hartree potential.
  Time summed over all CPUs for potential: real work        0.944 s, elapsed        0.947 s
  | RMS charge density error from multipole expansion :   0.137366E-01

  Integrating Hamiltonian matrix: batch-based integration.
  Time summed over all CPUs for integration: real work        2.548 s, elapsed        2.639 s

  Updating Kohn-Sham eigenvalues, eigenvectors, occupation numbers, and Fermi level.
  Solving generalized eigenproblem
  Updating Kohn-Sham eigenvalues and eigenfunctions.
  Solving real generalised eigenvalue problem by standard LAPACK (fast)
  Determining occupation numbers for Kohn-Sham eigenstates.
  | Chemical potential (Fermi level) in eV                 : -.21406150E+01
  | Error in electron count due to remaining E_F inaccuracy: 0.00000000E+00
  | Maximum occupation number of highest empty state:  0.00E+00

  Highest occupied state (VBM) at     -4.59288693 eV
  | Occupation number:      2.00000000

  Lowest unoccupied state (CBM) at    -1.54453057 eV
  | Occupation number:      0.00000000

  Overall HOMO-LUMO gap:      3.04835636 eV.

  Total energy components:
  | Sum of eigenvalues            :        -124.54400218 Ha       -3389.01473050 eV
  | XC energy correction          :         -27.94970143 Ha        -760.55007230 eV
  | XC potential correction       :          35.73126636 Ha         972.29722758 eV
  | Free-atom electrostatic energy:        -107.35513406 Ha       -2921.28183101 eV
  | Hartree energy correction     :          -5.51582023 Ha        -150.09310501 eV
  | van der Waals energy corr.    :           0.00000000 Ha           0.00000000 eV
  | Entropy correction            :           0.00000000 Ha           0.00000000 eV
  | ---------------------------
  | Total energy                  :        -229.63339154 Ha       -6248.64251124 eV
  | Total energy, T -> 0          :        -229.63339154 Ha       -6248.64251124 eV  <-- do not rely on this value for anything but (periodic) metals
  | Electronic free energy        :        -229.63339154 Ha       -6248.64251124 eV

  Derived energy quantities:
  | Kinetic energy                :         229.01692214 Ha        6231.86752526 eV
  | Electrostatic energy          :        -430.70061225 Ha      -11719.95996420 eV
  | Energy correction for multipole
  | error in Hartree potential    :          -0.00541738 Ha          -0.14741441 eV
  | Sum of eigenvalues per atom                           :        -376.55719228 eV
  | Total energy (T->0) per atom                          :        -694.29361236 eV  <-- do not rely on this value for anything but (periodic) metals
  | Electronic free energy per atom                       :        -694.29361236 eV

  Self-consistency convergence accuracy:
  | Change of charge density      : 0.2538E-02
  | Change of sum of eigenvalues  : 0.6511E+00 eV
  | Change of total energy        : 0.8782E-04 eV

  End self-consistency iteration #     8       :  max(cpu_time)    wall_clock(cpu1)
  | Time for this iteration                    :        0.705 s           0.705 s
  | Charge density update                      :        0.227 s           0.227 s
  | Density mixing                             :        0.008 s           0.008 s
  | Hartree multipole update                   :        0.004 s           0.004 s
  | Hartree multipole summation                :        0.119 s           0.119 s
  | Integration                                :        0.330 s           0.330 s
  | Solution of K.-S. eqns.                    :        0.016 s           0.016 s
  | Total energy evaluation                    :        0.000 s           0.000 s
------------------------------------------------------------

------------------------------------------------------------
          Begin self-consistency iteration #    9

  Date     :  20150727, Time     :  122417.509
------------------------------------------------------------
  Evaluating new KS density.
  Integration grid: deviation in total charge (<rho> - N_e) =   2.842171E-14
  Pulay mixing of updated and previous charge densities.

  Evaluating partitioned Hartree potential by multipole expansion.
  | Analytical far-field extrapolation by fixed multipoles:
  | Hartree multipole sum: apparent total charge =  -0.510069E-05
  Summing up the Hartree potential.
  Time summed over all CPUs for potential: real work        0.944 s, elapsed        0.947 s
  | RMS charge density error from multipole expansion :   0.137425E-01

  Integrating Hamiltonian matrix: batch-based integration.
  Time summed over all CPUs for integration: real work        2.548 s, elapsed        2.637 s

  Updating Kohn-Sham eigenvalues, eigenvectors, occupation numbers, and Fermi level.
  Solving generalized eigenproblem
  Updating Kohn-Sham eigenvalues and eigenfunctions.
  Solving real generalised eigenvalue problem by standard LAPACK (fast)
  Determining occupation numbers for Kohn-Sham eigenstates.
  | Chemical potential (Fermi level) in eV                 : -.20519358E+01
  | Error in electron count due to remaining E_F inaccuracy: 0.00000000E+00
  | Maximum occupation number of highest empty state:  0.00E+00

  Highest occupied state (VBM) at     -4.59331566 eV
  | Occupation number:      2.00000000

  Lowest unoccupied state (CBM) at    -1.54435424 eV
  | Occupation number:      0.00000000

  Overall HOMO-LUMO gap:      3.04896142 eV.

  Total energy components:
  | Sum of eigenvalues            :        -124.54235775 Ha       -3388.96998336 eV
  | XC energy correction          :         -27.94985689 Ha        -760.55430251 eV
  | XC potential correction       :          35.73146291 Ha         972.30257610 eV
  | Free-atom electrostatic energy:        -107.35513406 Ha       -2921.28183101 eV
  | Hartree energy correction     :          -5.51750573 Ha        -150.13896998 eV
  | van der Waals energy corr.    :           0.00000000 Ha           0.00000000 eV
  | Entropy correction            :           0.00000000 Ha           0.00000000 eV
  | ---------------------------
  | Total energy                  :        -229.63339152 Ha       -6248.64251075 eV
  | Total energy, T -> 0          :        -229.63339152 Ha       -6248.64251075 eV  <-- do not rely on this value for anything but (periodic) metals
  | Electronic free energy        :        -229.63339152 Ha       -6248.64251075 eV

  Derived energy quantities:
  | Kinetic energy                :         229.01908161 Ha        6231.92628740 eV
  | Electrostatic energy          :        -430.70261624 Ha      -11720.01449565 eV
  | Energy correction for multipole
  | error in Hartree potential    :          -0.00541871 Ha          -0.14745065 eV
  | Sum of eigenvalues per atom                           :        -376.55222037 eV
  | Total energy (T->0) per atom                          :        -694.29361231 eV  <-- do not rely on this value for anything but (periodic) metals
  | Electronic free energy per atom                       :        -694.29361231 eV

  Self-consistency convergence accuracy:
  | Change of charge density      : 0.8664E-03
  | Change of sum of eigenvalues  : 0.4475E-01 eV
  | Change of total energy        : 0.4901E-06 eV

  End self-consistency iteration #     9       :  max(cpu_time)    wall_clock(cpu1)
  | Time for this iteration                    :        0.704 s           0.704 s
  | Charge density update                      :        0.226 s           0.226 s
  | Density mixing                             :        0.009 s           0.009 s
  | Hartree multipole update                   :        0.003 s           0.003 s
  | Hartree multipole summation                :        0.119 s           0.119 s
  | Integration                                :        0.331 s           0.331 s
  | Solution of K.-S. eqns.                    :        0.016 s           0.016 s
  | Total energy evaluation                    :        0.000 s           0.000 s
------------------------------------------------------------

------------------------------------------------------------
          Begin self-consistency iteration #   10

  Date     :  20150727, Time     :  122418.213
------------------------------------------------------------
  Evaluating new KS density.
  Integration grid: deviation in total charge (<rho> - N_e) =   3.197442E-14
  Pulay mixing of updated and previous charge densities.

  Evaluating partitioned Hartree potential by multipole expansion.
  | Analytical far-field extrapolation by fixed multipoles:
  | Hartree multipole sum: apparent total charge =  -0.509184E-05
  Summing up the Hartree potential.
  Time summed over all CPUs for potential: real work        0.944 s, elapsed        0.947 s
  | RMS charge density error from multipole expansion :   0.137384E-01

  Integrating Hamiltonian matrix: batch-based integration.
  Time summed over all CPUs for integration: real work        2.548 s, elapsed        2.637 s

  Updating Kohn-Sham eigenvalues, eigenvectors, occupation numbers, and Fermi level.
  Solving generalized eigenproblem
  Updating Kohn-Sham eigenvalues and eigenfunctions.
  Solving real generalised eigenvalue problem by standard LAPACK (fast)
  Determining occupation numbers for Kohn-Sham eigenstates.
  | Chemical potential (Fermi level) in eV                 : -.21717622E+01
  | Error in electron count due to remaining E_F inaccuracy: 0.00000000E+00
  | Maximum occupation number of highest empty state:  0.00E+00

  Highest occupied state (VBM) at     -4.60110801 eV
  | Occupation number:      2.00000000

  Lowest unoccupied state (CBM) at    -1.54553051 eV
  | Occupation number:      0.00000000

  Overall HOMO-LUMO gap:      3.05557750 eV.

  Total energy components:
  | Sum of eigenvalues            :        -124.54803816 Ha       -3389.12455501 eV
  | XC energy correction          :         -27.94911392 Ha        -760.53408534 eV
  | XC potential correction       :          35.73047574 Ha         972.27571383 eV
  | Free-atom electrostatic energy:        -107.35513406 Ha       -2921.28183101 eV
  | Hartree energy correction     :          -5.51157989 Ha        -149.97771964 eV
  | van der Waals energy corr.    :           0.00000000 Ha           0.00000000 eV
  | Entropy correction            :           0.00000000 Ha           0.00000000 eV
  | ---------------------------
  | Total energy                  :        -229.63339029 Ha       -6248.64247718 eV
  | Total energy, T -> 0          :        -229.63339029 Ha       -6248.64247718 eV  <-- do not rely on this value for anything but (periodic) metals
  | Electronic free energy        :        -229.63339029 Ha       -6248.64247718 eV

  Derived energy quantities:
  | Kinetic energy                :         229.02020162 Ha        6231.95676464 eV
  | Electrostatic energy          :        -430.70447799 Ha      -11720.06515648 eV
  | Energy correction for multipole
  | error in Hartree potential    :          -0.00541642 Ha          -0.14738820 eV
  | Sum of eigenvalues per atom                           :        -376.56939500 eV
  | Total energy (T->0) per atom                          :        -694.29360858 eV  <-- do not rely on this value for anything but (periodic) metals
  | Electronic free energy per atom                       :        -694.29360858 eV

  Self-consistency convergence accuracy:
  | Change of charge density      : 0.7152E-03
  | Change of sum of eigenvalues  : -.1546E+00 eV
  | Change of total energy        : 0.3358E-04 eV

[...]
  |   Hirshfeld volume        :     19.92784251
  |   Hirshfeld dipole vector :      0.02944433      -0.00946641      -0.01686234
  |   Hirshfeld dipole moment :      0.03522670
  |   Hirshfeld second moments:      0.05017586       0.02052596       0.02877633
  |                                  0.02052596       0.09394902       0.01448710
  |                                  0.02877633       0.01448710       0.11083696
  ----------------------------------------------------------------------
  | Atom     5: H
  |   Hirshfeld charge        :      0.18120731
  |   Free atom volume        :     10.44207651
  |   Hirshfeld volume        :      5.72668003
  |   Hirshfeld dipole vector :      0.05917931       0.09324328       0.04694220
  |   Hirshfeld dipole moment :      0.12000029
  |   Hirshfeld second moments:      0.11978565      -0.00028210       0.00418449
  |                                 -0.00028210       0.12683482      -0.00057936
  |                                  0.00418449      -0.00057936       0.14842665
  ----------------------------------------------------------------------
  | Atom     6: H
  |   Hirshfeld charge        :      0.17482370
  |   Free atom volume        :     10.44207651
  |   Hirshfeld volume        :      5.63464925
  |   Hirshfeld dipole vector :     -0.01810570       0.00835713      -0.12038682
  |   Hirshfeld dipole moment :      0.12202723
  |   Hirshfeld second moments:      0.12799355       0.01109467       0.00806421
  |                                  0.01109467       0.14194463       0.00515340
  |                                  0.00806421       0.00515340       0.13054148
  ----------------------------------------------------------------------
  | Atom     7: O
  |   Hirshfeld charge        :     -0.18519650
  |   Free atom volume        :     23.95238533
  |   Hirshfeld volume        :     20.53256164
  |   Hirshfeld dipole vector :     -0.01760949      -0.02845448       0.02913225
  |   Hirshfeld dipole moment :      0.04436710
  |   Hirshfeld second moments:      0.06932821      -0.02859921       0.00791862
  |                                 -0.02859921       0.07887564       0.03924802
  |                                  0.00791862       0.03924802       0.04723178
  ----------------------------------------------------------------------
  | Atom     8: H
  |   Hirshfeld charge        :      0.16698988
  |   Free atom volume        :     10.44207651
  |   Hirshfeld volume        :      5.97706027
  |   Hirshfeld dipole vector :      0.00258127       0.07332493       0.09351185
  |   Hirshfeld dipole moment :      0.11885989
  |   Hirshfeld second moments:      0.12802045      -0.01268889       0.00713404
  |                                 -0.01268889       0.12991885       0.00237534
  |                                  0.00713404       0.00237534       0.11435229
  ----------------------------------------------------------------------
  | Atom     9: H
  |   Hirshfeld charge        :      0.17273239
  |   Free atom volume        :     10.44207651
  |   Hirshfeld volume        :      5.75463099
  |   Hirshfeld dipole vector :      0.09049509      -0.07899407       0.01254998
  |   Hirshfeld dipole moment :      0.12077635
  |   Hirshfeld second moments:      0.12416993       0.00100137       0.00084238
  |                                  0.00100137       0.13002468       0.01574496
  |                                  0.00084238       0.01574496       0.13286793
  ----------------------------------------------------------------------


  Total energy components:
  | Sum of eigenvalues            :        -124.54780489 Ha       -3389.11820748 eV
  | XC energy correction          :         -27.94917484 Ha        -760.53574302 eV
  | XC potential correction       :          35.73055086 Ha         972.27775790 eV
  | Free-atom electrostatic energy:        -107.35513406 Ha       -2921.28183101 eV
  | Hartree energy correction     :          -5.51182728 Ha        -149.98445133 eV
  | van der Waals energy corr.    :          -0.00077105 Ha          -0.02098144 eV
  | Entropy correction            :           0.00000000 Ha           0.00000000 eV
  | ---------------------------
  | Total energy                  :        -229.63416126 Ha       -6248.66345639 eV
  | Total energy, T -> 0          :        -229.63416126 Ha       -6248.66345639 eV  <-- do not rely on this value for anything but (periodic) metals
  | Electronic free energy        :        -229.63416126 Ha       -6248.66345639 eV

  Derived energy quantities:
  | Kinetic energy                :         229.02066169 Ha        6231.96928383 eV
  | Electrostatic energy          :        -430.70487706 Ha      -11720.07601575 eV
  | Energy correction for multipole
  | error in Hartree potential    :          -0.00541998 Ha          -0.14748520 eV
  | Sum of eigenvalues per atom                           :        -376.56868972 eV
  | Total energy (T->0) per atom                          :        -694.29593960 eV  <-- do not rely on this value for anything but (periodic) metals
  | Electronic free energy per atom                       :        -694.29593960 eV

  atomic forces [eV/Ang]:
  -----------------------
  atom #    1
   Hellmann-Feynman + Multipole  : -.666932E+01 -.102887E+02 0.257169E+01
   Pulay + GGA                   : 0.608389E+01 0.127787E+02 -.341716E+01
   Van der Waals               : -.194240E-02 -.645197E-02 0.220952E-03
   ----------------------------------------------------------------
   Total forces(   1)            : -.587363E+00 0.248355E+01 -.845250E+00
  atom #    2
   Hellmann-Feynman + Multipole  : 0.189960E+01 -.336106E+01 0.136257E+01
   Pulay + GGA                   : -.116086E-02 0.581610E-01 -.217197E-01
   Van der Waals               : -.135039E-02 -.192141E-03 0.433710E-03
   ----------------------------------------------------------------
   Total forces(   2)            : 0.189708E+01 -.330309E+01 0.134128E+01
  atom #    3
   Hellmann-Feynman + Multipole  : -.214381E+01 -.652897E+00 -.257011E+00
   Pulay + GGA                   : 0.588353E-01 0.191151E-01 0.309708E-01
   Van der Waals               : 0.289113E-03 -.417323E-03 0.612285E-04
   ----------------------------------------------------------------
   Total forces(   3)            : -.208469E+01 -.634199E+00 -.225979E+00
  atom #    4
   Hellmann-Feynman + Multipole  : -.611482E+01 -.917011E+01 0.925102E+01
   Pulay + GGA                   : 0.624412E+01 0.103093E+02 -.670118E+01
   Van der Waals               : -.380370E-03 0.251121E-02 -.660872E-03
   ----------------------------------------------------------------
   Total forces(   4)            : 0.128923E+00 0.114165E+01 0.254918E+01
  atom #    5
   Hellmann-Feynman + Multipole  : -.496178E+00 -.745948E+00 -.478190E+00
   Pulay + GGA                   : 0.558945E-01 0.120106E+00 0.358356E-01
   Van der Waals               : 0.194870E-02 0.481886E-03 0.290480E-03
   ----------------------------------------------------------------
   Total forces(   5)            : -.438335E+00 -.625359E+00 -.442064E+00
  atom #    6
   Hellmann-Feynman + Multipole  : -.244708E+00 0.405568E+00 -.232264E+01
   Pulay + GGA                   : -.358598E-01 0.435681E-01 -.127997E+00
   Van der Waals               : 0.101521E-02 -.227128E-03 0.282981E-03
   ----------------------------------------------------------------
   Total forces(   6)            : -.279552E+00 0.448909E+00 -.245036E+01
  atom #    7
   Hellmann-Feynman + Multipole  : -.645714E+01 0.546997E+00 -.101982E+02
   Pulay + GGA                   : 0.945906E+01 -.110469E+00 0.117084E+02
   Van der Waals               : 0.120539E-02 0.188160E-02 -.301433E-03
   ----------------------------------------------------------------
   Total forces(   7)            : 0.300313E+01 0.438409E+00 0.150986E+01
  atom #    8
   Hellmann-Feynman + Multipole  : -.165133E+00 -.101858E+01 -.123207E+01
   Pulay + GGA                   : 0.371637E-01 0.929721E-01 0.949903E-01
   Van der Waals               : 0.298497E-03 0.219764E-02 -.106966E-03
   ----------------------------------------------------------------
   Total forces(   8)            : -.127671E+00 -.923406E+00 -.113719E+01
  atom #    9
   Hellmann-Feynman + Multipole  : -.163506E+01 0.102993E+01 -.320952E+00
   Pulay + GGA                   : 0.127384E+00 -.534973E-01 0.217943E-01
   Van der Waals               : -.108374E-02 0.216225E-03 -.220082E-03
   ----------------------------------------------------------------
   Total forces(   9)            : -.150876E+01 0.976645E+00 -.299378E+00
  Timings for vdw_correction_hirshfeld (Tkatchenko-Scheffler 2009):
  | CPU time:        1.846 s, Wall clock time:        1.846 s.
  Removing unitary transformations (pure translations, rotations) from forces on atoms.
  Atomic forces before filtering:
  | Net force on center of mass :  0.276165E-02 0.310588E-02 0.100999E-03 eV/A
  | Net torque on center of mass:  0.243921E-02 -.337342E-02 0.319040E-03 eV
  Atomic forces after filtering:
  | Net force on center of mass :  0.000000E+00 0.892031E-15 0.178406E-15 eV/A
  | Net torque on center of mass:  0.849676E-15 0.207699E-14 -.377634E-15 eV
 
  Energy and forces in a compact form:
  | Total energy uncorrected      :         -0.624866345639185E+04 eV
  | Total energy corrected        :         -0.624866345639185E+04 eV  <-- do not rely on this value for anything but (periodic) metals
  | Electronic free energy        :         -0.624866345639185E+04 eV
  Total atomic forces (unitary forces cleaned) [eV/Ang]:
  |   1         -0.587776982757715E+00          0.248340904400436E+01         -0.844540363773742E+00
  |   2          0.189669787847619E+01         -0.330334102911047E+01          0.134170764427865E+01
  |   3         -0.208504951680804E+01         -0.634460687308055E+00         -0.225657795252508E+00
  |   4          0.128601035225165E+00          0.114131606315504E+01          0.254923357595844E+01
  |   5         -0.438445286870280E+00         -0.625596334658600E+00         -0.442503210068221E+00
  |   6         -0.280098289029795E+00          0.448172512988206E+00         -0.245033037132209E+01
  |   7          0.300283649549510E+01          0.437929769349141E+00          0.150954243887554E+01
  |   8         -0.127659414988743E+00         -0.923533654510002E+00         -0.113781328712515E+01
  |   9         -0.150910591874188E+01          0.976104316090386E+00         -0.299638631570917E+00
 
  ------------------------------------ 
  Start decomposition of the XC Energy 
  ------------------------------------ 
  Hartree-Fock part   :          0.000000000 Ha              0.000000000 eV
  ------------------------------------ 
  X Energy            :        -26.964423736 Ha           -733.739302090 eV
  C Energy GGA        :         -0.984751104 Ha            -26.796440931 eV
  Total XC Energy     :        -27.949174840 Ha           -760.535743021 eV
  LDA X and C from self-consistent density 
  X Energy LDA        :        -24.306874699 Ha           -661.423713430 eV
  C Energy LDA        :         -1.980034535 Ha            -53.879481043 eV
  ------------------------------------ 
  End decomposition of the XC Energy 
  ------------------------------------ 
  Performing Hirshfeld analysis of fragment charges and moments.
  ----------------------------------------------------------------------
  | Atom     1: O
  |   Hirshfeld charge        :     -0.43007460
  |   Free atom volume        :     23.95238533
  |   Hirshfeld volume        :     25.40466567
  |   Hirshfeld dipole vector :      0.03843350       0.07457962      -0.02425151
  |   Hirshfeld dipole moment :      0.08733493
  |   Hirshfeld second moments:     -0.02459187      -0.02852066       0.02896848
  |                                 -0.02852066      -0.08958276      -0.02263393
  |                                  0.02896848      -0.02263393      -0.13788789
  ----------------------------------------------------------------------
  | Atom     2: H
  |   Hirshfeld charge        :      0.05466162
  |   Free atom volume        :     10.44207651
  |   Hirshfeld volume        :      8.81104733
  |   Hirshfeld dipole vector :     -0.02091670       0.04524820      -0.02167774
  |   Hirshfeld dipole moment :      0.05435837
  |   Hirshfeld second moments:      0.06405720       0.02647950       0.00237343
  |                                  0.02647950       0.01989529       0.01593985
  |                                  0.00237343       0.01593985       0.04851807
  ----------------------------------------------------------------------
  | Atom     3: H
  |   Hirshfeld charge        :      0.03864598
  |   Free atom volume        :     10.44207651
  |   Hirshfeld volume        :      8.98245158
  |   Hirshfeld dipole vector :      0.05389170       0.01580890       0.00398085
  |   Hirshfeld dipole moment :      0.05630349
  |   Hirshfeld second moments:      0.01374451      -0.03007559       0.00763969
  |                                 -0.03007559       0.06189500      -0.00299679
  |                                  0.00763969      -0.00299679       0.04253214
  ----------------------------------------------------------------------
  | Atom     4: O
  |   Hirshfeld charge        :     -0.17372653
  |   Free atom volume        :     23.95238533
  |   Hirshfeld volume        :     19.92784251
  |   Hirshfeld dipole vector :      0.02944433      -0.00946641      -0.01686234
  |   Hirshfeld dipole moment :      0.03522670
  |   Hirshfeld second moments:      0.05017586       0.02052596       0.02877633
  |                                  0.02052596       0.09394902       0.01448710
  |                                  0.02877633       0.01448710       0.11083696
  ----------------------------------------------------------------------
  | Atom     5: H
  |   Hirshfeld charge        :      0.18120731
  |   Free atom volume        :     10.44207651
  |   Hirshfeld volume        :      5.72668003
  |   Hirshfeld dipole vector :      0.05917931       0.09324328       0.04694220
  |   Hirshfeld dipole moment :      0.12000029
  |   Hirshfeld second moments:      0.11978565      -0.00028210       0.00418449
  |                                 -0.00028210       0.12683482      -0.00057936
  |                                  0.00418449      -0.00057936       0.14842665
  ----------------------------------------------------------------------
  | Atom     6: H
  |   Hirshfeld charge        :      0.17482370
  |   Free atom volume        :     10.44207651
  |   Hirshfeld volume        :      5.63464925
  |   Hirshfeld dipole vector :     -0.01810570       0.00835713      -0.12038682
  |   Hirshfeld dipole moment :      0.12202723
  |   Hirshfeld second moments:      0.12799355       0.01109467       0.00806421
  |                                  0.01109467       0.14194463       0.00515340
  |                                  0.00806421       0.00515340       0.13054148
  ----------------------------------------------------------------------
  | Atom     7: O
  |   Hirshfeld charge        :     -0.18519650
  |   Free atom volume        :     23.95238533
  |   Hirshfeld volume        :     20.53256164
  |   Hirshfeld dipole vector :     -0.01760949      -0.02845448       0.02913225
  |   Hirshfeld dipole moment :      0.04436710
  |   Hirshfeld second moments:      0.06932821      -0.02859921       0.00791862
  |                                 -0.02859921       0.07887564       0.03924802
  |                                  0.00791862       0.03924802       0.04723178
  ----------------------------------------------------------------------
  | Atom     8: H
  |   Hirshfeld charge        :      0.16698988
  |   Free atom volume        :     10.44207651
  |   Hirshfeld volume        :      5.97706027
  |   Hirshfeld dipole vector :      0.00258127       0.07332493       0.09351185
  |   Hirshfeld dipole moment :      0.11885989
  |   Hirshfeld second moments:      0.12802045      -0.01268889       0.00713404
  |                                 -0.01268889       0.12991885       0.00237534
  |                                  0.00713404       0.00237534       0.11435229
  ----------------------------------------------------------------------
  | Atom     9: H
  |   Hirshfeld charge        :      0.17273239
  |   Free atom volume        :     10.44207651
  |   Hirshfeld volume        :      5.75463099
  |   Hirshfeld dipole vector :      0.09049509      -0.07899407       0.01254998
  |   Hirshfeld dipole moment :      0.12077635
  |   Hirshfeld second moments:      0.12416993       0.00100137       0.00084238
  |                                  0.00100137       0.13002468       0.01574496
  |                                  0.00084238       0.01574496       0.13286793
  ----------------------------------------------------------------------


------------------------------------------------------------------------------
  Final output of selected total energy values:

  The following output summarizes some interesting total energy values
  at the end of a run (AFTER all relaxation, molecular dynamics, etc.).

  | Total energy of the DFT / Hartree-Fock s.c.f. calculation      :          -6248.663456392 eV
  | Final zero-broadening corrected energy (caution - metals only) :          -6248.663456392 eV
  | For reference only, the value of 1 Hartree used in FHI-aims is :             27.211384500 eV

  Before relying on these values, please be sure to understand exactly which
  total energy value is referred to by a given number. Different objects may
  all carry the same name 'total energy'. Definitions:

  Total energy of the DFT / Hartree-Fock s.c.f. calculation:
  | Note that this energy does not include ANY quantities calculated after the
  | s.c.f. cycle, in particular not ANY RPA, MP2, etc. many-body perturbation terms.

  Final zero-broadening corrected energy:
  | For metallic systems only, a broadening of the occupation numbers at the Fermi
  | level can be extrapolated back to zero broadening by an electron-gas inspired
  | formula. For all systems that are not real metals, this value can be
  | meaningless and should be avoided.

------------------------------------------------------------------------------

------------------------------------------------------------
          Leaving FHI-aims.
          Date     :  20150727, Time     :  122423.135

          Computational steps:
          | Number of self-consistency cycles          :           14

          Detailed time accounting                     :  max(cpu_time)    wall_clock(cpu1)
          | Total time                                 :       12.436 s          12.482 s
          | Preparation time                           :        0.171 s           0.469 s
          | Grid partitioning                          :        0.091 s           0.091 s
          | Preloading free-atom quantities on grid    :        0.014 s           0.014 s
          | Free-atom superposition energy             :        0.029 s           0.029 s
          | Total time for integrations                :        5.118 s           5.118 s
          | Total time for solution of K.-S. equations :        0.288 s           0.287 s
          | Total time for density & force components  :        4.110 s           4.111 s
          | Total time for mixing                      :        0.101 s           0.100 s
          | Total time for Hartree multipole update    :        0.050 s           0.050 s
          | Total time for Hartree multipole sum       :        2.056 s           2.057 s
          | Total time for total energy evaluation     :        0.003 s           0.001 s
          | Total time for scaled ZORA corrections     :        0.000 s           0.000 s
          | Total time for TS (2009) vdW correction    :        0.021 s           0.021 s

          Have a nice day.
------------------------------------------------------------
