  MPI-parallelism will be employed.
------------------------------------------------------------
          Invoking FHI-aims ...
          Version 081213
          Compiled on 2013/08/29 at 17:41:06 on host generoso.

          When using FHI-aims, please cite the following reference:

          Volker Blum, Ralf Gehrke, Felix Hanke, Paula Havu,
          Ville Havu, Xinguo Ren, Karsten Reuter, and Matthias Scheffler,
          'Ab Initio Molecular Simulations with Numeric Atom-Centered Orbitals: FHI-aims',
          Computer Physics Communications 180, 2175-2196 (2009)

          For any questions about FHI-aims, please visit the aimsclub website
          with its forums and wiki. Contributions to both the forums and the
          wiki are warmly encouraged - they are for you, and everyone is welcome there.

------------------------------------------------------------

  Date     :  20150727, Time     :  114043.803
  Time zero on CPU 1             :   0.529900000000000E-01  s.
  Internal wall clock time zero  :           207229243.803  s.

  Using        8 parallel tasks.
  Task        0 on host gen60 reporting.
  Task        1 on host gen60 reporting.
  Task        2 on host gen60 reporting.
  Task        3 on host gen60 reporting.
  Task        4 on host gen60 reporting.
  Task        5 on host gen60 reporting.
  Task        6 on host gen60 reporting.
  Task        7 on host gen60 reporting.

  Performing system and environment tests:
  | Environment variable OMP_NUM_THREADS correctly set to 1.
  | Checking for scalapack...
  | No scalapack compiled in.

  Obtaining array dimensions for all initial allocations:
  
  -----------------------------------------------------------------------
  Parsing control.in (first pass over file, find array dimensions only).
  The contents of control.in will be repeated verbatim below
  unless switched off by setting 'verbatim_writeout .false.' .
  in the first line of control.in .
  -----------------------------------------------------------------------
  
  #########################################################################################
  #
  #  Volker Blum, FHI 2008 : Test run input file control.in
  #
  #########################################################################################
  #
  #  Physical model
  #
    xc                 rpbe
    spin               none
    relativistic       atomic_zora scalar
    charge             0.
   vdw_correction_hirshfeld
  #
  #  SCF convergence
  #
    occupation_type    gaussian 0.01
    mixer              pulay
      n_max_pulay        10
      charge_mix_param   0.1
    sc_accuracy_rho    5E-5
    sc_accuracy_eev    5E-3
    sc_accuracy_etot   5E-6
    sc_iter_limit      3000
  #
  #  Eigenvalue solver
  #
    KS_method          lapack
      empty_states       8
      basis_threshold    0.e-5
  #
  #  Efficiency
  #
  #   all previous settings are now default, except stratmann still
  #   undecided. Continue to handle stratmann with care, if at all.
  #
  #  partition_type stratmann
    partition_type rho_r2
  #  hartree_partition_type stratmann
  #
  #  Oprions for large clusters (100's of atoms: memory saving / better scaling)
  #
  # for periodic systems:
  #
    density_update_method orbital
    packed_matrix_format none
  #  k_grid 6 6 6
  #  output k_eigenvalue 1
  #  distributed_spline_storage .true.
  #
  #  Relaxation
  #
  #  relax_geometry   bfgs 5.e-3
    sc_accuracy_forces 5.E-4
    final_forces_cleaned .true.
  #
  #  Output options
  #
  #  output mulliken
    output Hirshfeld
  #  output dipole
  
  #harmonic_length_scale 0.001
  
  ################################################################################
  #
  #  FHI-aims code project
  #  VB, Fritz-Haber Institut, 2007
  #
  #  Suggested "safe" defaults for H atom (to be pasted into control.in file)
  #  Basis constructed for a non-relativistic H2 molecule using the
  #  PW-LDA functional.
  #
  ################################################################################
    species        H
  #     global species definitions
      nucleus             1
      cut_pot             4.0  2.0  1.0
      cut_free_atom       finite 8.0
      logarithmic         0.00010000 100.00  1.0123
      basis_dep_cutoff    1d-4  # 1d-4 is safe default - please check 5d-4 if you wish!
      radial_base         24 7.0
      radial_multiplier   2
      angular_grids       specified
        division   0.2783  110
        division   0.3822  194
        division   0.5626  302
  #      division   0.5922  434
  #      division   0.6227  590
  #      division   0.7206  770
        outer_grid  302
      l_hartree           4
  ################################################################################
  #
  #  Definition of "minimal" basis
  #
  ################################################################################
  #     valence basis states
      valence      1  s   1.
  #     ion occupancy
      ion_occ      1  s   0.5
  ################################################################################
  #
  #  Suggested additional basis functions. For production calculations,
  #  uncomment them one after another (the most important basis functions are
  #  listed first).
  #
  ################################################################################
  #  "First tier" - improvements: -1014.90 meV to -62.69 meV
       hydro 2 s 2.1
       hydro 2 p 3.5
  #  "Second tier" - improvements: -12.89 meV to -1.83 meV
       hydro 1 s 0.85
       hydro 2 p 3.7
       hydro 2 s 1.2
       hydro 3 d 7
  #  "Third tier" - improvements: -0.25 meV to -0.12 meV
  #     hydro 4 f 11.2
  #     hydro 3 p 4.8
  #     hydro 4 d 9
  #     hydro 3 s 3.2
  
  ################################################################################
  #
  #  FHI-aims code project
  #  VB, Fritz-Haber Institut, 2007
  #
  #  Suggested "safe" defaults for O atom (to be pasted into control.in file)
  #  All values have been tested for a non-relativistic, non-spinpolarized O2
  #  molecule using the PW-LDA functional. Validity for PBE is expected.
  #
  #  Constructed for dimers: 1.0 A, 1.208 A, 1.5 A, 2.0 A, 3.0 A
  #
  ################################################################################
    species        O
  #     global species definitions
      nucleus             8
      mass                15.9994
      l_hartree           4
      cut_pot             4.0  2.0  1.0
      cut_free_atom       finite 8.0
      basis_dep_cutoff    1d-4  # 1d-4 is safe default - please check 5d-4 if you wish!
      logarithmic         0.00010000 100.00  1.0123
      radial_base         36 7.0
      radial_multiplier   2
       angular_grids specified
        division   0.4087  110
        division   0.5181  194
        division   0.6184  302
  #      division   0.7315  434
  #      division   0.7934  590
  #      division   0.9656  770
  #      division   1.4041  974
  #      outer_grid 974
        outer_grid 302
  ################################################################################
  #
  #  Definition of "minimal" basis
  #
  ################################################################################
  #     valence basis states
      valence      2  s   2.
      valence      2  p   4.
  #     ion occupancy
      ion_occ      2  s   1.
      ion_occ      2  p   3.
  ################################################################################
  #
  #  Suggested additional basis functions. For production calculations,
  #  uncomment them one after another (the most important basis functions are
  #  listed first).
  #
  ################################################################################
  #  "First tier" - improvements: -699.05 meV to -159.38 meV
       hydro 2 p 1.8
       hydro 3 d 7.6
       hydro 3 s 6.4
  #  "Second tier" - improvements: -49.91 meV to -5.39 meV
       hydro 4 f 11.6
       hydro 3 p 6.2
       hydro 3 d 5.6
       hydro 5 g 17.6
       hydro 1 s 0.75
  #  "Third tier" - improvements: -2.83 meV to -0.50 meV
  #     ionic 2 p auto
  #     hydro 4 f 10.8
  #     hydro 4 d 4.7
  #     hydro 2 s 6.8
  #  "Fourth tier" - improvements: -0.40 meV to -0.12 meV
  #     hydro 3 p 5
  #     hydro 3 s 3.3
  #     hydro 5 g 15.6
  #     hydro 4 f 17.6
  #     hydro 4 d 14
  # Further basis functions - -0.08 meV and below
  #     hydro 3 s 2.1
  #     hydro 4 d 11.6
  #     hydro 3 p 16
  #     hydro 2 s 17.2
  
  
  -----------------------------------------------------------------------
  Completed first pass over input file control.in .
  -----------------------------------------------------------------------
  
  
  -----------------------------------------------------------------------
  Parsing geometry.in (first pass over file, find array dimensions only).
  The contents of geometry.in will be repeated verbatim below
  unless switched off by setting 'verbatim_writeout .false.' .
  in the first line of geometry.in .
  -----------------------------------------------------------------------
  
  atom      -4.053030000      0.065001000     -1.525160000  O
  atom      -4.566710000      0.974813000     -1.912820000  H
  atom      -3.067820000      0.330172000     -1.477310000  H
  atom      -4.581760000     -0.256435000      0.939478000  O
  atom      -4.349860000      0.471090000      1.504340000  H
  atom      -5.393870000     -0.726611000      1.228070000  H
  atom      -5.293160000      2.192130000     -2.328800000  O
  atom      -4.829300000      2.988660000     -1.973850000  H
  atom      -5.428570000      2.328640000     -3.235170000  H
  atom      -1.645860000      0.870179000     -1.502250000  O
  atom      -1.568890000      1.501730000     -0.721051000  H
  atom      -0.824432000      0.282220000     -1.377720000  H
  atom      -1.975360000      2.858040000      0.453140000  O
  atom      -1.223550000      3.375850000      0.786238000  H
  atom      -2.537520000      2.567960000      1.156120000  H
  atom      -4.066610000      4.258280000     -0.900064000  O
  atom      -3.224110000      3.876870000     -0.569443000  H
  atom      -3.737450000      5.116530000     -1.322720000  H
  
  -----------------------------------------------------------------------
  Completed first pass over input file geometry.in .
  -----------------------------------------------------------------------
  
 
  Basic array size parameters: 
  | Number of species                 :        2
  | Number of atoms                   :       18
  | Max. basis fn. angular momentum   :        4
  | Max. atomic/ionic basis occupied n:        2
  | Max. number of basis fn. types    :        2
  | Max. radial fns per species/type  :        8
  | Max. logarithmic grid size        :     1301
  | Max. radial integration grid size :       73
  | Max. angular integration grid size:      302
  | Max. angular grid division number :        8
  | Radial grid for Hartree potential :     1301
  | Number of spin channels           :        1

------------------------------------------------------------
          Reading file control.in.
------------------------------------------------------------
  XC: Using RPBE gradient-corrected functionals.
  Spin treatment: No spin polarisation.
  Scalar relativistic treatment of kinetic energy: on-site free-atom approximation to ZORA.
  Charge =   0.000000E+00: Neutral system requested explicitly.
  Using non-empirical van der Waals correction (Hirshfeld partitioning):
  Occupation type: Gaussian broadening, width =   0.100000E-01 eV.
  Using pulay charge density mixing.
  Pulay mixing - number of memorized iterations:   10
  Charge density mixing - mixing parameter:     0.1000
  Convergence accuracy of self-consistent charge density: 0.5000E-04
  Convergence accuracy of sum of eigenvalues: 0.5000E-02
  Convergence accuracy of total energy: 0.5000E-05
  Maximum number of s.-c. iterations  :  3000
  Kohn-Sham eigenvalues and eigenfunctions calculated by lapack diagonalisation (D&C).
  Number of empty states per atom:        8
  Threshold for basis singularities: 0.0000E+00
  Partition function in integrals calculations: rho / r^2
 Using packed matrix format           0
  Convergence accuracy of forces: 0.5000E-03
  Cleaning forces before final output.
  Hirshfeld charge analysis will be performed.
 
  Reading configuration options for species H                   .
  | Found nuclear charge :   1.0000
  | Found cutoff potl. onset [A], width [A], scale factor :    4.00000    2.00000    1.00000
  | Found cutoff specification for free atom: Cutoff potential begins at    8.00000 A.
  | Found logarithmic grid data [bohr] : 0.1000E-03 0.1000E+03 0.1012E+01
  | Threshold for basis-dependent cutoff potential is   0.100000E-03
  | Found data for basic radial integration grid :    24 points, outermost radius =    7.000 A
  | Found multiplier for basic radial grid :   2
  | Found angular grid specification: user-specified.
  | Specified grid contains     4 separate shells.
  | Check grid settings after all constraints further below.
  | Found l_max for Hartree potential  :   4
  | Found free-atom valence shell :  1 s   1.000
  | No ionic wave fns used. Skipping ion_occ.
  | Found hydrogenic basis function :  2 s   2.100
  | Found hydrogenic basis function :  2 p   3.500
  | Found hydrogenic basis function :  1 s   0.850
  | Found hydrogenic basis function :  2 p   3.700
  | Found hydrogenic basis function :  2 s   1.200
  | Found hydrogenic basis function :  3 d   7.000
  Species H                   : Missing cutoff potential type.
  Defaulting to exp(1/x)/(1-x)^2 type cutoff potential.
  Species H : On-site basis accuracy parameter (for Gram-Schmidt orthonormalisation) not specified.
  Using default value basis_acc =  0.1000000E-03.
  Species H                   : Using default innermost maximum threshold i_radial=  2 for radial functions.
  Species H                   : Basic radial grid will be enhanced according to radial_multiplier =   2, to contain    49 grid points.
 
  Reading configuration options for species O                   .
  | Found nuclear charge :   8.0000
  | Found atomic mass :    15.9994000000000      amu
  | Found l_max for Hartree potential  :   4
  | Found cutoff potl. onset [A], width [A], scale factor :    4.00000    2.00000    1.00000
  | Found cutoff specification for free atom: Cutoff potential begins at    8.00000 A.
  | Threshold for basis-dependent cutoff potential is   0.100000E-03
  | Found logarithmic grid data [bohr] : 0.1000E-03 0.1000E+03 0.1012E+01
  | Found data for basic radial integration grid :    36 points, outermost radius =    7.000 A
  | Found multiplier for basic radial grid :   2
  | Found angular grid specification: user-specified.
  | Specified grid contains     4 separate shells.
  | Check grid settings after all constraints further below.
  | Found free-atom valence shell :  2 s   2.000
  | Found free-atom valence shell :  2 p   4.000
  | No ionic wave fns used. Skipping ion_occ.
  | No ionic wave fns used. Skipping ion_occ.
  | Found hydrogenic basis function :  2 p   1.800
  | Found hydrogenic basis function :  3 d   7.600
  | Found hydrogenic basis function :  3 s   6.400
  | Found hydrogenic basis function :  4 f  11.600
  | Found hydrogenic basis function :  3 p   6.200
  | Found hydrogenic basis function :  3 d   5.600
  | Found hydrogenic basis function :  5 g  17.600
  | Found hydrogenic basis function :  1 s   0.750
  Species O                   : Missing cutoff potential type.
  Defaulting to exp(1/x)/(1-x)^2 type cutoff potential.
  Species O : On-site basis accuracy parameter (for Gram-Schmidt orthonormalisation) not specified.
  Using default value basis_acc =  0.1000000E-03.
  Species O                   : Using default innermost maximum threshold i_radial=  2 for radial functions.
  Species O                   : Basic radial grid will be enhanced according to radial_multiplier =   2, to contain    73 grid points.
 
  Finished reading input file 'control.in'. Consistency checks are next.
 
  Target number of points in a grid batch is not set. Defaulting to  100
  Method for grid partitioning is not set. Defaulting to parallel hash+maxmin partitioning.
  Batch size limit is not set. Defaulting to    200
  By default, will store active basis functions for each batch.
  If in need of memory, prune_basis_once .false. can be used to disable this option.
  communication_type for Hartree potential was not specified.
  Defaulting to calc_hartree .
  Pulay mixer: Number of initial linear mixing iterations not set.
  Defaulting to    0 iterations.
  Work space size for distributed Hartree potential not set.
  Defaulting to   0.200000E+03 MB.
  Algorithm-dependent basis array size parameters:
  | n_max_pulay                         :       10
  Geometry relaxation not requested: no relaxation will be performed.
  Handling of forces: Unphysical translation and rotation will be removed from forces.
  No accuracy limit for integral partition fn. given. Defaulting to 0.1000E-14.
  No threshold value for u(r) in integrations given. Defaulting to 0.1000E-05.
  No accuracy for occupation numbers given. Defaulting to 0.1000E-07.
  No threshold value for occupation numbers given. Defaulting to 0.0000E+00.
  No accuracy for fermi level given. Defaulting to 0.1000E-19.
  Maximum # of iterations to find E_F not set. Defaulting to  200.
  Will not use alltoall communication since running on < 1024 CPUs.
  Partitioning for Hartree potential was not defined. Using partition_type for integrals.
  | Reporting present value of keyword multip_moments_threshold  :       0.10000000E-09
  | This value may affect high angular momentum components of the Hartree potential in periodic systems.
  No q(lm)/r^(l+1) cutoff set for long-range Hartree potential.
  | Using default value of  0.100000E-09 .
  | Verify using the multipole_threshold keyword.
  Defaulting to new monopole extrapolation.
  Density update method: Loop over occupied states selected for charge density update.
------------------------------------------------------------


------------------------------------------------------------
          Reading geometry description geometry.in.
------------------------------------------------------------
  Input structure read successfully.
  The structure contains       18 atoms,  and a total of         60.000 electrons.

  Input geometry:
  | No unit cell requested.
  | Atomic structure:
  |       Atom                x [A]            y [A]            z [A]
  |    1: Species O             -4.053030         0.065001        -1.525160
  |    2: Species H             -4.566710         0.974813        -1.912820
  |    3: Species H             -3.067820         0.330172        -1.477310
  |    4: Species O             -4.581760        -0.256435         0.939478
  |    5: Species H             -4.349860         0.471090         1.504340
  |    6: Species H             -5.393870        -0.726611         1.228070
  |    7: Species O             -5.293160         2.192130        -2.328800
  |    8: Species H             -4.829300         2.988660        -1.973850
  |    9: Species H             -5.428570         2.328640        -3.235170
  |   10: Species O             -1.645860         0.870179        -1.502250
  |   11: Species H             -1.568890         1.501730        -0.721051
  |   12: Species H             -0.824432         0.282220        -1.377720
  |   13: Species O             -1.975360         2.858040         0.453140
  |   14: Species H             -1.223550         3.375850         0.786238
  |   15: Species H             -2.537520         2.567960         1.156120
  |   16: Species O             -4.066610         4.258280        -0.900064
  |   17: Species H             -3.224110         3.876870        -0.569443
  |   18: Species H             -3.737450         5.116530        -1.322720
  |

  | The smallest distance between any two atoms is         0.92654057 AA.
  |
  | The first atom of this pair is atom number                      7 .
  | The second atom of this pair is atom number                     9 .

  Structure-dependent array size parameters: 
  | Maximum number of distinct radial functions  :       18
  | Maximum number of basis functions            :      414
  | Number of Kohn-Sham states (occupied + empty):      102
------------------------------------------------------------

------------------------------------------------------------
          Preparing all fixed parts of the calculation.
------------------------------------------------------------
  Determining machine precision:
    2.225073858507201E-308
  Setting up grids for atomic and cluster calculations.

  Creating wave function, potential, and density for free atoms.

  Species: H

  List of occupied orbitals and eigenvalues:
    n    l              occ      energy [Ha]    energy [eV]
    1    0           1.0000        -0.241408        -6.5691


  Species: O

  List of occupied orbitals and eigenvalues:
    n    l              occ      energy [Ha]    energy [eV]
    1    0           2.0000       -18.944147      -515.4965
    2    0           2.0000        -0.883529       -24.0421
    2    1           4.0000        -0.330176        -8.9845

  Creating fixed part of basis set: Ionic, confined, hydrogenic.
 
  H                    hydrogenic:
 
  List of hydrogenic basis orbitals: 
    n    l      effective z      eigenvalue [eV]  inner max. [A]     outer max. [A]     outer radius [A]   
    2    0         2.100000       -14.9965           0.193241           1.317192           5.372934
    2    1         3.500000       -41.6672           0.602363           0.602363           4.056010
    1    0         0.850000        -9.8292           0.624864           0.624864           5.372934
    2    1         3.700000       -46.5653           0.573616           0.573616           3.909951
    2    0         1.200000        -4.5995           0.334977           2.228160           5.505921
    3    2         7.000000       -74.0753           0.680692           0.680692           3.769152
 
 
  O                    hydrogenic:
 
  List of hydrogenic basis orbitals: 
    n    l      effective z      eigenvalue [eV]  inner max. [A]     outer max. [A]     outer radius [A]   
    2    1         1.800000       -11.0118           1.178546           1.178546           5.432516
    3    2         7.600000       -87.3182           0.624117           0.624117           3.541422
    3    0         6.400000       -61.9209           0.061166           1.081887           4.306510
    4    3        11.600000      -114.4238           0.731621           0.731621           3.584982
    3    1         6.200000       -58.1113           0.255677           1.030255           4.306510
    3    2         5.600000       -47.4081           0.847222           0.847222           4.413102
    5    4        17.600000      -168.5799           0.749730           0.749730           3.372413
    1    0         0.750000        -7.6499           0.705275           0.705275           5.366508
 

  Adding cutoff potential to free-atom effective potential.
  Creating atomic-like basis functions for current effective potential.

  Species H                   :

  List of atomic basis orbitals and eigenvalues:
    n    l      energy [Ha]    energy [eV]    outer radius [A]
    1    0        -0.241374        -6.5681       5.372934


  Species O                   :

  List of atomic basis orbitals and eigenvalues:
    n    l      energy [Ha]    energy [eV]    outer radius [A]
    1    0       -18.944147      -515.4965       1.415745
    2    0        -0.883529       -24.0421       5.048305
    2    1        -0.330173        -8.9845       5.301302

  Assembling full basis from fixed parts.
  | Species H :   atomic orbital   1 s accepted.
  | Species H :    hydro orbital   2 s accepted.
  | Species H :    hydro orbital   1 s accepted.
  | Species H :    hydro orbital   2 s accepted.
  | Species H :    hydro orbital   2 p accepted.
  | Species H :    hydro orbital   2 p accepted.
  | Species H :    hydro orbital   3 d accepted.
  | Species O :   atomic orbital   1 s accepted.
  | Species O :    hydro orbital   3 s accepted.
  | Species O :   atomic orbital   2 s accepted.
  | Species O :    hydro orbital   1 s accepted.
  | Species O :    hydro orbital   3 p accepted.
  | Species O :   atomic orbital   2 p accepted.
  | Species O :    hydro orbital   2 p accepted.
  | Species O :    hydro orbital   3 d accepted.
  | Species O :    hydro orbital   3 d accepted.
  | Species O :    hydro orbital   4 f accepted.
  | Species O :    hydro orbital   5 g accepted.
 
  Basis size parameters after reduction:
  | Total number of radial functions:       18
  | Total number of basis functions :      414
 
  Testing on-site integration grid accuracy.
  |  Species  Function  <phi|h_atom|phi> (log., in eV)  <phi|h_atom|phi> (rad., in eV)
           1        1                 -6.5683835025                 -6.5684759159
           1        2                 13.3711789951                 13.3708738703
           1        3                 23.6590910787                 23.6532055418
           1        4                 16.2963827186                 16.1870710655 ***
           1        5                 28.7627214838                 28.7627215090
           1        6                 59.5965249172                 59.5965950857
           1        7                 60.2220506392                 60.2220503827
           2        8               -515.4964576505               -515.4964530710
           2        9                 15.3030791347                 15.3030722972
           2       10                -21.7296094581                -21.7296135470
           2       11                 14.2969371730                 14.2969701621
           2       12                 21.0679693190                 21.0679697493
           2       13                 -2.3833606469                 -2.3833613176
           2       14                 13.7067136422                 13.7066766629
           2       15                 45.8013116808                 45.8013116965
           2       16                 52.2309815402                 52.2309831494
           2       17                 85.4120732416                 85.4120732763
           2       18                142.1019167745                142.1019167817
 * Note: Onsite integrals marked "***" above are less accurate than
 * onsite_accuracy_threshold =    0.03000 eV. Usually, this is harmless.
 * When in doubt, tighten the "radial" and/or "radial_multiplier" flags to check.

  Preparing densities etc. for the partition functions (integrals / Hartree potential).

  Preparations completed.
  max(cpu_time)          :      0.171 s.
  Wall clock time (cpu1) :      0.453 s.
------------------------------------------------------------

------------------------------------------------------------
          Begin self-consistency loop: Initialization.

          Date     :  20150727, Time     :  114044.271
------------------------------------------------------------

  Initializing index lists of integration centers etc. from given atomic structure:
  | Number of centers in hartree potential         :        18
  | Number of centers in hartree multipole         :        18
  | Number of centers in electron density summation:        18
  | Number of centers in basis integrals           :        18
  | Number of centers in integrals                 :        18
  Partitioning the integration grid into batches with parallel hashing+maxmin method.
  | Number of batches:     2466
  | Maximal batch size:     166
  | Minimal batch size:      60
  | Average batch size:      95.723
  | Standard deviation of batch sizes:      33.195

  Integration load balanced across     8 MPI tasks.
  Work distribution over tasks is as follows:
  Task     0 has      29530 integration points.
  Task     1 has      29470 integration points.
  Task     2 has      29602 integration points.
  Task     3 has      29471 integration points.
  Task     4 has      29529 integration points.
  Task     5 has      29492 integration points.
  Task     6 has      29488 integration points.
  Task     7 has      29470 integration points.
  Initializing partition tables, free-atom densities, potentials, etc. across the integration grid (initialize_grid_storage).
  | Net number of integration points:   236052
  | of which are non-zero points    :   235479
  Obtaining max. number of non-zero basis functions in each batch (get_n_compute_maxes).
  | Maximal number of non-zero basis functions:      410 in task     0
  | Maximal number of non-zero basis functions:      410 in task     1
  | Maximal number of non-zero basis functions:      410 in task     2
  | Maximal number of non-zero basis functions:      410 in task     3
  | Maximal number of non-zero basis functions:      409 in task     4
  | Maximal number of non-zero basis functions:      410 in task     5
  | Maximal number of non-zero basis functions:      410 in task     6
  | Maximal number of non-zero basis functions:      410 in task     7
  Integrating Hamiltonian matrix: batch-based integration.
  Time summed over all CPUs for integration: real work       11.468 s, elapsed       11.697 s
  Integrating overlap matrix.
  Time summed over all CPUs for integration: real work        6.256 s, elapsed        6.377 s

  Updating Kohn-Sham eigenvalues, eigenvectors, occupation numbers, and Fermi level.
  Solving generalized eigenproblem
  Updating Kohn-Sham eigenvalues and eigenfunctions.
  Transforming overlap matrix and checking for singularities.
  Overlap matrix is nonsingular:
  | Lowest eigenvalue:  0.210265E-03
  Solving real generalised eigenvalue problem by standard LAPACK (fast)
  Determining occupation numbers for Kohn-Sham eigenstates.
  | Chemical potential (Fermi level) in eV                 : -.38163400E+01
  | Error in electron count due to remaining E_F inaccuracy: 0.00000000E+00
  | Maximum occupation number of highest empty state:  0.00E+00

  Writing Kohn-Sham eigenvalues.

  State    Occupation    Eigenvalue [Ha]    Eigenvalue [eV]
      1       2.00000         -19.064900         -518.78231
      2       2.00000         -19.059399         -518.63265
      3       2.00000         -19.051955         -518.43008
      4       2.00000         -19.042966         -518.18547
      5       2.00000         -19.042537         -518.17380
      6       2.00000         -19.019935         -517.55876
      7       2.00000          -1.122194          -30.53645
      8       2.00000          -1.111643          -30.24935
      9       2.00000          -1.098590          -29.89417
     10       2.00000          -1.087352          -29.58837
     11       2.00000          -1.085780          -29.54557
     12       2.00000          -1.042388          -28.36483
     13       2.00000          -0.653378          -17.77931
     14       2.00000          -0.651952          -17.74051
     15       2.00000          -0.644484          -17.53731
     16       2.00000          -0.611242          -16.63273
     17       2.00000          -0.609028          -16.57249
     18       2.00000          -0.604484          -16.44885
     19       2.00000          -0.551794          -15.01509
     20       2.00000          -0.520139          -14.15370
     21       2.00000          -0.505600          -13.75807
     22       2.00000          -0.503581          -13.70315
     23       2.00000          -0.497624          -13.54104
     24       2.00000          -0.475597          -12.94165
     25       2.00000          -0.448030          -12.19151
     26       2.00000          -0.441234          -12.00660
     27       2.00000          -0.439640          -11.96322
     28       2.00000          -0.433378          -11.79283
     29       2.00000          -0.430469          -11.71365
     30       2.00000          -0.402852          -10.96216
     31       0.00000          -0.098524           -2.68097
     32       0.00000          -0.066288           -1.80378
     33       0.00000          -0.059996           -1.63258
     34       0.00000          -0.055000           -1.49664
     35       0.00000          -0.033300           -0.90613
     36       0.00000          -0.013913           -0.37859
     37       0.00000           0.016068            0.43723
     38       0.00000           0.029305            0.79742
     39       0.00000           0.037056            1.00834
     40       0.00000           0.043714            1.18952
     41       0.00000           0.050477            1.37355
     42       0.00000           0.058521            1.59245
     43       0.00000           0.071702            1.95110
     44       0.00000           0.079208            2.15536
     45       0.00000           0.086193            2.34544
     46       0.00000           0.096795            2.63393
     47       0.00000           0.097092            2.64202
     48       0.00000           0.102529            2.78995
     49       0.00000           0.109410            2.97719
     50       0.00000           0.114121            3.10539
     51       0.00000           0.124517            3.38828
     52       0.00000           0.127366            3.46580
     53       0.00000           0.129419            3.52166
     54       0.00000           0.143381            3.90160
     55       0.00000           0.143430            3.90294
     56       0.00000           0.155568            4.23323
     57       0.00000           0.160848            4.37689
     58       0.00000           0.179209            4.87652
     59       0.00000           0.187170            5.09317
     60       0.00000           0.196518            5.34754
     61       0.00000           0.225373            6.13270
     62       0.00000           0.236185            6.42692
     63       0.00000           0.243582            6.62821
     64       0.00000           0.245454            6.67915
     65       0.00000           0.262996            7.15649
     66       0.00000           0.270039            7.34815
     67       0.00000           0.273463            7.44130
     68       0.00000           0.305978            8.32610
     69       0.00000           0.308097            8.38374
     70       0.00000           0.315663            8.58963
     71       0.00000           0.329281            8.96020
     72       0.00000           0.332295            9.04221
     73       0.00000           0.354543            9.64761
     74       0.00000           0.366131            9.96293
     75       0.00000           0.371925           10.12060
     76       0.00000           0.385909           10.50111
     77       0.00000           0.395381           10.75887
     78       0.00000           0.403005           10.96633
     79       0.00000           0.408954           11.12820
     80       0.00000           0.423896           11.53480
     81       0.00000           0.431760           11.74879
     82       0.00000           0.445460           12.12158
     83       0.00000           0.458109           12.46578
     84       0.00000           0.459802           12.51185
     85       0.00000           0.471182           12.82151
     86       0.00000           0.493876           13.43904
     87       0.00000           0.513168           13.96402
     88       0.00000           0.523406           14.24260
     89       0.00000           0.541337           14.73052
     90       0.00000           0.548267           14.91911
     91       0.00000           0.562136           15.29651
     92       0.00000           0.563518           15.33411
     93       0.00000           0.587634           15.99033
     94       0.00000           0.617760           16.81011
     95       0.00000           0.655447           17.83562
     96       0.00000           0.667360           18.15979
     97       0.00000           0.697519           18.98046
     98       0.00000           0.703769           19.15053
     99       0.00000           0.711490           19.36062
    100       0.00000           0.740438           20.14835
    101       0.00000           0.761069           20.70975
    102       0.00000           0.784199           21.33913

  Highest occupied state (VBM) at    -10.96216496 eV
  | Occupation number:      2.00000000

  Lowest unoccupied state (CBM) at    -2.68096934 eV
  | Occupation number:      0.00000000

  Overall HOMO-LUMO gap:      8.28119562 eV.
  Calculating total energy contributions from superposition of free atom densities.

  Total energy components:
  | Sum of eigenvalues            :        -260.50829344 Ha       -7088.79133823 eV
  | XC energy correction          :         -54.72631417 Ha       -1489.17877715 eV
  | XC potential correction       :          69.93789643 Ha        1903.10699094 eV
  | Free-atom electrostatic energy:        -214.40759698 Ha       -5834.32756117 eV
  | Hartree energy correction     :           0.00000000 Ha           0.00000000 eV
  | van der Waals energy corr.    :           0.00000000 Ha           0.00000000 eV
  | Entropy correction            :           0.00000000 Ha           0.00000000 eV
  | ---------------------------
  | Total energy                  :        -459.70430816 Ha      -12509.19068560 eV
  | Total energy, T -> 0          :        -459.70430816 Ha      -12509.19068560 eV  <-- do not rely on this value for anything but (periodic) metals
  | Electronic free energy        :        -459.70430816 Ha      -12509.19068560 eV

  Derived energy quantities:
  | Kinetic energy                :         455.06490459 Ha       12382.94609125 eV
  | Electrostatic energy          :        -860.04289858 Ha      -23402.95799971 eV
  | Energy correction for multipole
  | error in Hartree potential    :           0.00000000 Ha           0.00000000 eV
  | Sum of eigenvalues per atom                           :        -393.82174101 eV
  | Total energy (T->0) per atom                          :        -694.95503809 eV  <-- do not rely on this value for anything but (periodic) metals
  | Electronic free energy per atom                       :        -694.95503809 eV
  Initialize hartree_potential_storage
  Max. number of atoms included in rho_multipole:           18

  End scf initialization - timings             :  max(cpu_time)    wall_clock(cpu1)
  | Time for scf. initialization               :        3.020 s           3.020 s
  | Boundary condition initialization          :        0.000 s           0.000 s
  | Integration                                :        2.264 s           2.264 s
  | Solution of K.-S. eqns.                    :        0.297 s           0.296 s
  | Grid partitioning                          :        0.163 s           0.163 s
  | Preloading free-atom quantities on grid    :        0.014 s           0.013 s
  | Free-atom superposition energy             :        0.088 s           0.089 s
  | Total energy evaluation                    :        0.000 s           0.000 s
------------------------------------------------------------

------------------------------------------------------------
          Begin self-consistency iteration #    1

  Date     :  20150727, Time     :  114047.291
------------------------------------------------------------
  Evaluating new KS density.
  Integration grid: deviation in total charge (<rho> - N_e) =   4.263256E-14
  Pulay mixing of updated and previous charge densities.

  Evaluating partitioned Hartree potential by multipole expansion.
  | Analytical far-field extrapolation by fixed multipoles:
  | Hartree multipole sum: apparent total charge =  -0.220385E-05
  Summing up the Hartree potential.
  Time summed over all CPUs for potential: real work        3.784 s, elapsed        3.805 s
  | RMS charge density error from multipole expansion :   0.182536E-02

  Integrating Hamiltonian matrix: batch-based integration.
  Time summed over all CPUs for integration: real work       11.446 s, elapsed       11.672 s

  Updating Kohn-Sham eigenvalues, eigenvectors, occupation numbers, and Fermi level.
  Solving generalized eigenproblem
  Updating Kohn-Sham eigenvalues and eigenfunctions.
  Solving real generalised eigenvalue problem by standard LAPACK (fast)
  Determining occupation numbers for Kohn-Sham eigenstates.
  | Chemical potential (Fermi level) in eV                 : -.34408709E+01
  | Error in electron count due to remaining E_F inaccuracy: 0.00000000E+00
  | Maximum occupation number of highest empty state:  0.00E+00

  Writing Kohn-Sham eigenvalues.

  State    Occupation    Eigenvalue [Ha]    Eigenvalue [eV]
      1       2.00000         -18.994796         -516.87470
      2       2.00000         -18.989431         -516.72871
      3       2.00000         -18.972389         -516.26496
      4       2.00000         -18.971204         -516.23272
      5       2.00000         -18.964106         -516.03957
      6       2.00000         -18.916864         -514.75405
      7       2.00000          -1.084034          -29.49806
      8       2.00000          -1.082700          -29.46178
      9       2.00000          -1.052778          -28.64754
     10       2.00000          -1.052419          -28.63779
     11       2.00000          -1.049250          -28.55155
     12       2.00000          -0.983255          -26.75574
     13       2.00000          -0.628444          -17.10083
     14       2.00000          -0.619184          -16.84885
     15       2.00000          -0.604689          -16.45443
     16       2.00000          -0.581208          -15.81547
     17       2.00000          -0.577530          -15.71539
     18       2.00000          -0.561762          -15.28633
     19       2.00000          -0.511654          -13.92281
     20       2.00000          -0.488031          -13.28001
     21       2.00000          -0.471214          -12.82240
     22       2.00000          -0.459013          -12.49039
     23       2.00000          -0.452796          -12.32120
     24       2.00000          -0.430900          -11.72539
     25       2.00000          -0.416638          -11.33729
     26       2.00000          -0.397421          -10.81439
     27       2.00000          -0.394873          -10.74503
     28       2.00000          -0.391124          -10.64301
     29       2.00000          -0.382529          -10.40915
     30       2.00000          -0.342197           -9.31165
     31       0.00000          -0.090839           -2.47187
     32       0.00000          -0.057962           -1.57724
     33       0.00000          -0.051078           -1.38991
     34       0.00000          -0.046464           -1.26434
     35       0.00000          -0.025742           -0.70049
     36       0.00000          -0.007565           -0.20586
     37       0.00000           0.029730            0.80899
     38       0.00000           0.041243            1.12229
     39       0.00000           0.046614            1.26842
     40       0.00000           0.051782            1.40905
     41       0.00000           0.058258            1.58529
     42       0.00000           0.068908            1.87509
     43       0.00000           0.081194            2.20939
     44       0.00000           0.091568            2.49170
     45       0.00000           0.096212            2.61805
     46       0.00000           0.105671            2.87545
     47       0.00000           0.109240            2.97256
     48       0.00000           0.115485            3.14251
     49       0.00000           0.120613            3.28204
     50       0.00000           0.128125            3.48645
     51       0.00000           0.133993            3.64612
     52       0.00000           0.140323            3.81839
     53       0.00000           0.142212            3.86980
     54       0.00000           0.153993            4.19036
     55       0.00000           0.156249            4.25175
     56       0.00000           0.168575            4.58716
     57       0.00000           0.185020            5.03466
     58       0.00000           0.191768            5.21827
     59       0.00000           0.198687            5.40655
     60       0.00000           0.208697            5.67894
     61       0.00000           0.237539            6.46378
     62       0.00000           0.247220            6.72719
     63       0.00000           0.254071            6.91361
     64       0.00000           0.256462            6.97870
     65       0.00000           0.273570            7.44421
     66       0.00000           0.280942            7.64482
     67       0.00000           0.283493            7.71425
     68       0.00000           0.316101            8.60155
     69       0.00000           0.317720            8.64561
     70       0.00000           0.327626            8.91516
     71       0.00000           0.337577            9.18594
     72       0.00000           0.347730            9.46222
     73       0.00000           0.365819            9.95445
     74       0.00000           0.375350           10.21380
     75       0.00000           0.381721           10.38716
     76       0.00000           0.396102           10.77849
     77       0.00000           0.407288           11.08287
     78       0.00000           0.415226           11.29888
     79       0.00000           0.422039           11.48427
     80       0.00000           0.433287           11.79034
     81       0.00000           0.444408           12.09295
     82       0.00000           0.455730           12.40106
     83       0.00000           0.467636           12.72501
     84       0.00000           0.470619           12.80620
     85       0.00000           0.484653           13.18807
     86       0.00000           0.505283           13.74945
     87       0.00000           0.527063           14.34210
     88       0.00000           0.536322           14.59406
     89       0.00000           0.553228           15.05410
     90       0.00000           0.563626           15.33704
     91       0.00000           0.573359           15.60188
     92       0.00000           0.578974           15.75468
     93       0.00000           0.601839           16.37687
     94       0.00000           0.631396           17.18115
     95       0.00000           0.670081           18.23383
     96       0.00000           0.683052           18.58680
     97       0.00000           0.711600           19.36362
     98       0.00000           0.719442           19.57701
     99       0.00000           0.729422           19.84857
    100       0.00000           0.755896           20.56896
    101       0.00000           0.772869           21.03084
    102       0.00000           0.795247           21.63976

  Highest occupied state (VBM) at     -9.31165400 eV
  | Occupation number:      2.00000000

  Lowest unoccupied state (CBM) at    -2.47186504 eV
  | Occupation number:      0.00000000

  Overall HOMO-LUMO gap:      6.83978896 eV.

  Total energy components:
  | Sum of eigenvalues            :        -257.64886524 Ha       -7010.98233812 eV
  | XC energy correction          :         -55.01661568 Ha       -1497.07828316 eV
  | XC potential correction       :          70.31721230 Ha        1913.42870077 eV
  | Free-atom electrostatic energy:        -214.40759698 Ha       -5834.32756117 eV
  | Hartree energy correction     :          -2.76889048 Ha         -75.34534359 eV
  | van der Waals energy corr.    :           0.00000000 Ha           0.00000000 eV
  | Entropy correction            :           0.00000000 Ha           0.00000000 eV
  | ---------------------------
  | Total energy                  :        -459.52475609 Ha      -12504.30482526 eV
  | Total energy, T -> 0          :        -459.52475609 Ha      -12504.30482526 eV  <-- do not rely on this value for anything but (periodic) metals
  | Electronic free energy        :        -459.52475609 Ha      -12504.30482526 eV

  Derived energy quantities:
  | Kinetic energy                :         456.80483025 Ha       12430.29187733 eV
  | Electrostatic energy          :        -861.31297066 Ha      -23437.51841943 eV
  | Energy correction for multipole
  | error in Hartree potential    :           0.00005621 Ha           0.00152949 eV
  | Sum of eigenvalues per atom                           :        -389.49901878 eV
  | Total energy (T->0) per atom                          :        -694.68360140 eV  <-- do not rely on this value for anything but (periodic) metals
  | Electronic free energy per atom                       :        -694.68360140 eV

  Self-consistency convergence accuracy:
  | Change of charge density      : 0.7292E+00
  | Change of sum of eigenvalues  : 0.7781E+02 eV
  | Change of total energy        : 0.4886E+01 eV

  End self-consistency iteration #     1       :  max(cpu_time)    wall_clock(cpu1)
  | Time for this iteration                    :        2.954 s           2.953 s
  | Charge density update                      :        0.923 s           0.923 s
  | Density mixing                             :        0.004 s           0.004 s
  | Hartree multipole update                   :        0.006 s           0.006 s
  | Hartree multipole summation                :        0.477 s           0.476 s
  | Integration                                :        1.461 s           1.461 s
  | Solution of K.-S. eqns.                    :        0.082 s           0.082 s
  | Total energy evaluation                    :        0.000 s           0.000 s
------------------------------------------------------------

------------------------------------------------------------
          Begin self-consistency iteration #    2

  Date     :  20150727, Time     :  114050.245
------------------------------------------------------------
  Evaluating new KS density.
  Integration grid: deviation in total charge (<rho> - N_e) =  -1.421085E-14
  Pulay mixing of updated and previous charge densities.

  Evaluating partitioned Hartree potential by multipole expansion.
  | Analytical far-field extrapolation by fixed multipoles:
  | Hartree multipole sum: apparent total charge =  -0.631957E-05
  Summing up the Hartree potential.
  Time summed over all CPUs for potential: real work        3.785 s, elapsed        3.805 s
  | RMS charge density error from multipole expansion :   0.739236E-02

  Integrating Hamiltonian matrix: batch-based integration.
  Time summed over all CPUs for integration: real work       11.425 s, elapsed       11.665 s

  Updating Kohn-Sham eigenvalues, eigenvectors, occupation numbers, and Fermi level.
  Solving generalized eigenproblem
  Updating Kohn-Sham eigenvalues and eigenfunctions.
  Solving real generalised eigenvalue problem by standard LAPACK (fast)
  Determining occupation numbers for Kohn-Sham eigenstates.
  | Chemical potential (Fermi level) in eV                 : -.24051043E+01
  | Error in electron count due to remaining E_F inaccuracy: 0.00000000E+00
  | Maximum occupation number of highest empty state:  0.00E+00

  Highest occupied state (VBM) at     -5.22164817 eV
  | Occupation number:      2.00000000

  Lowest unoccupied state (CBM) at    -2.07826468 eV
  | Occupation number:      0.00000000

  Overall HOMO-LUMO gap:      3.14338349 eV.

  Total energy components:
  | Sum of eigenvalues            :        -250.70364184 Ha       -6821.99319358 eV
  | XC energy correction          :         -55.74973265 Ha       -1517.02741086 eV
  | XC potential correction       :          71.27416018 Ha        1939.46857745 eV
  | Free-atom electrostatic energy:        -214.40759698 Ha       -5834.32756117 eV
  | Hartree energy correction     :          -9.72194765 Ha        -264.54765564 eV
  | van der Waals energy corr.    :           0.00000000 Ha           0.00000000 eV
  | Entropy correction            :           0.00000000 Ha           0.00000000 eV
  | ---------------------------
  | Total energy                  :        -459.30875894 Ha      -12498.42724380 eV
  | Total energy, T -> 0          :        -459.30875894 Ha      -12498.42724380 eV  <-- do not rely on this value for anything but (periodic) metals
  | Electronic free energy        :        -459.30875894 Ha      -12498.42724380 eV

  Derived energy quantities:
  | Kinetic energy                :         460.38739861 Ha       12527.77852242 eV
  | Electrostatic energy          :        -863.94642490 Ha      -23509.17835537 eV
  | Energy correction for multipole
  | error in Hartree potential    :          -0.00076841 Ha          -0.02090949 eV
  | Sum of eigenvalues per atom                           :        -378.99962187 eV
  | Total energy (T->0) per atom                          :        -694.35706910 eV  <-- do not rely on this value for anything but (periodic) metals
  | Electronic free energy per atom                       :        -694.35706910 eV

  Self-consistency convergence accuracy:
  | Change of charge density      : 0.5528E+00
  | Change of sum of eigenvalues  : 0.1890E+03 eV
  | Change of total energy        : 0.5878E+01 eV

  End self-consistency iteration #     2       :  max(cpu_time)    wall_clock(cpu1)
  | Time for this iteration                    :        2.949 s           2.948 s
  | Charge density update                      :        0.918 s           0.917 s
  | Density mixing                             :        0.007 s           0.007 s
  | Hartree multipole update                   :        0.006 s           0.006 s
  | Hartree multipole summation                :        0.476 s           0.476 s
  | Integration                                :        1.461 s           1.461 s
  | Solution of K.-S. eqns.                    :        0.081 s           0.081 s
  | Total energy evaluation                    :        0.000 s           0.000 s
------------------------------------------------------------

------------------------------------------------------------
          Begin self-consistency iteration #    3

  Date     :  20150727, Time     :  114053.193
------------------------------------------------------------
  Evaluating new KS density.
  Integration grid: deviation in total charge (<rho> - N_e) =   2.842171E-14
  Pulay mixing of updated and previous charge densities.

  Evaluating partitioned Hartree potential by multipole expansion.
  | Analytical far-field extrapolation by fixed multipoles:
  | Hartree multipole sum: apparent total charge =  -0.572960E-05
  Summing up the Hartree potential.
  Time summed over all CPUs for potential: real work        3.784 s, elapsed        3.804 s
  | RMS charge density error from multipole expansion :   0.144877E-01

  Integrating Hamiltonian matrix: batch-based integration.
  Time summed over all CPUs for integration: real work       11.421 s, elapsed       11.648 s

  Updating Kohn-Sham eigenvalues, eigenvectors, occupation numbers, and Fermi level.
  Solving generalized eigenproblem
  Updating Kohn-Sham eigenvalues and eigenfunctions.
  Solving real generalised eigenvalue problem by standard LAPACK (fast)
  Determining occupation numbers for Kohn-Sham eigenstates.
  | Chemical potential (Fermi level) in eV                 : -.32597593E+01
  | Error in electron count due to remaining E_F inaccuracy: 0.00000000E+00
  | Maximum occupation number of highest empty state:  0.00E+00

  Highest occupied state (VBM) at     -4.88481889 eV
  | Occupation number:      2.00000000

  Lowest unoccupied state (CBM) at    -2.12733356 eV
  | Occupation number:      0.00000000

  Overall HOMO-LUMO gap:      2.75748533 eV.

  Total energy components:
  | Sum of eigenvalues            :        -250.88691466 Ha       -6826.98030088 eV
  | XC energy correction          :         -55.71303117 Ha       -1516.02871286 eV
  | XC potential correction       :          71.21976349 Ha        1937.98836824 eV
  | Free-atom electrostatic energy:        -214.40759698 Ha       -5834.32756117 eV
  | Hartree energy correction     :          -9.51330517 Ha        -258.87020475 eV
  | van der Waals energy corr.    :           0.00000000 Ha           0.00000000 eV
  | Entropy correction            :           0.00000000 Ha           0.00000000 eV
  | ---------------------------
  | Total energy                  :        -459.30108449 Ha      -12498.21841141 eV
  | Total energy, T -> 0          :        -459.30108449 Ha      -12498.21841141 eV  <-- do not rely on this value for anything but (periodic) metals
  | Electronic free energy        :        -459.30108449 Ha      -12498.21841141 eV

  Derived energy quantities:
  | Kinetic energy                :         457.97353663 Ha       12462.09399593 eV
  | Electrostatic energy          :        -861.56158995 Ha      -23444.28369449 eV
  | Energy correction for multipole
  | error in Hartree potential    :          -0.00572085 Ha          -0.15567217 eV
  | Sum of eigenvalues per atom                           :        -379.27668338 eV
  | Total energy (T->0) per atom                          :        -694.34546730 eV  <-- do not rely on this value for anything but (periodic) metals
  | Electronic free energy per atom                       :        -694.34546730 eV

  Self-consistency convergence accuracy:
  | Change of charge density      : 0.2714E+00
  | Change of sum of eigenvalues  : -.4987E+01 eV
  | Change of total energy        : 0.2088E+00 eV

  End self-consistency iteration #     3       :  max(cpu_time)    wall_clock(cpu1)
  | Time for this iteration                    :        2.945 s           2.944 s
  | Charge density update                      :        0.914 s           0.914 s
  | Density mixing                             :        0.008 s           0.008 s
  | Hartree multipole update                   :        0.006 s           0.006 s
  | Hartree multipole summation                :        0.476 s           0.476 s
  | Integration                                :        1.459 s           1.458 s
  | Solution of K.-S. eqns.                    :        0.081 s           0.081 s
  | Total energy evaluation                    :        0.000 s           0.000 s
------------------------------------------------------------

------------------------------------------------------------
          Begin self-consistency iteration #    4

  Date     :  20150727, Time     :  114056.137
------------------------------------------------------------
  Evaluating new KS density.
  Integration grid: deviation in total charge (<rho> - N_e) =   1.421085E-14
  Pulay mixing of updated and previous charge densities.

  Evaluating partitioned Hartree potential by multipole expansion.
  | Analytical far-field extrapolation by fixed multipoles:
  | Hartree multipole sum: apparent total charge =  -0.671432E-05
  Summing up the Hartree potential.
  Time summed over all CPUs for potential: real work        3.784 s, elapsed        3.804 s
  | RMS charge density error from multipole expansion :   0.191104E-01

  Integrating Hamiltonian matrix: batch-based integration.
  Time summed over all CPUs for integration: real work       11.411 s, elapsed       11.642 s

  Updating Kohn-Sham eigenvalues, eigenvectors, occupation numbers, and Fermi level.
  Solving generalized eigenproblem
  Updating Kohn-Sham eigenvalues and eigenfunctions.
  Solving real generalised eigenvalue problem by standard LAPACK (fast)
  Determining occupation numbers for Kohn-Sham eigenstates.
  | Chemical potential (Fermi level) in eV                 : -.27793936E+01
  | Error in electron count due to remaining E_F inaccuracy: 0.00000000E+00
  | Maximum occupation number of highest empty state:  0.00E+00

  Highest occupied state (VBM) at     -3.43543610 eV
  | Occupation number:      2.00000000

  Lowest unoccupied state (CBM) at    -2.05897996 eV
  | Occupation number:      0.00000000

  Overall HOMO-LUMO gap:      1.37645614 eV.

  Total energy components:
  | Sum of eigenvalues            :        -248.74129959 Ha       -6768.59514428 eV
  | XC energy correction          :         -55.95851648 Ha       -1522.70870807 eV
  | XC potential correction       :          71.53874847 Ha        1946.66839116 eV
  | Free-atom electrostatic energy:        -214.40759698 Ha       -5834.32756117 eV
  | Hartree energy correction     :         -11.71797110 Ha        -318.86221720 eV
  | van der Waals energy corr.    :           0.00000000 Ha           0.00000000 eV
  | Entropy correction            :           0.00000000 Ha           0.00000000 eV
  | ---------------------------
  | Total energy                  :        -459.28663569 Ha      -12497.82523956 eV
  | Total energy, T -> 0          :        -459.28663569 Ha      -12497.82523956 eV  <-- do not rely on this value for anything but (periodic) metals
  | Electronic free energy        :        -459.28663569 Ha      -12497.82523956 eV

  Derived energy quantities:
  | Kinetic energy                :         458.12971936 Ha       12466.34394435 eV
  | Electrostatic energy          :        -861.45783857 Ha      -23441.46047585 eV
  | Energy correction for multipole
  | error in Hartree potential    :          -0.00806644 Ha          -0.21949895 eV
  | Sum of eigenvalues per atom                           :        -376.03306357 eV
  | Total energy (T->0) per atom                          :        -694.32362442 eV  <-- do not rely on this value for anything but (periodic) metals
  | Electronic free energy per atom                       :        -694.32362442 eV

  Self-consistency convergence accuracy:
  | Change of charge density      : 0.1518E+00
  | Change of sum of eigenvalues  : 0.5839E+02 eV
  | Change of total energy        : 0.3932E+00 eV

  End self-consistency iteration #     4       :  max(cpu_time)    wall_clock(cpu1)
  | Time for this iteration                    :        2.946 s           2.946 s
  | Charge density update                      :        0.914 s           0.914 s
  | Density mixing                             :        0.010 s           0.010 s
  | Hartree multipole update                   :        0.006 s           0.006 s
  | Hartree multipole summation                :        0.476 s           0.477 s
  | Integration                                :        1.458 s           1.457 s
  | Solution of K.-S. eqns.                    :        0.081 s           0.081 s
  | Total energy evaluation                    :        0.001 s           0.001 s
------------------------------------------------------------

------------------------------------------------------------
          Begin self-consistency iteration #    5

  Date     :  20150727, Time     :  114059.083
------------------------------------------------------------
  Evaluating new KS density.
  Integration grid: deviation in total charge (<rho> - N_e) =   0.000000E+00
  Pulay mixing of updated and previous charge densities.

  Evaluating partitioned Hartree potential by multipole expansion.
  | Analytical far-field extrapolation by fixed multipoles:
  | Hartree multipole sum: apparent total charge =  -0.664008E-05
  Summing up the Hartree potential.
  Time summed over all CPUs for potential: real work        3.789 s, elapsed        3.829 s
  | RMS charge density error from multipole expansion :   0.197818E-01

  Integrating Hamiltonian matrix: batch-based integration.
  Time summed over all CPUs for integration: real work       11.455 s, elapsed       11.655 s

  Updating Kohn-Sham eigenvalues, eigenvectors, occupation numbers, and Fermi level.
  Solving generalized eigenproblem
  Updating Kohn-Sham eigenvalues and eigenfunctions.
  Solving real generalised eigenvalue problem by standard LAPACK (fast)
  Determining occupation numbers for Kohn-Sham eigenstates.
  | Chemical potential (Fermi level) in eV                 : -.27548594E+01
  | Error in electron count due to remaining E_F inaccuracy: 0.00000000E+00
  | Maximum occupation number of highest empty state:  0.00E+00

  Highest occupied state (VBM) at     -3.34073607 eV
  | Occupation number:      2.00000000

  Lowest unoccupied state (CBM) at    -2.04599748 eV
  | Occupation number:      0.00000000

  Overall HOMO-LUMO gap:      1.29473859 eV.

  Total energy components:
  | Sum of eigenvalues            :        -248.59646176 Ha       -6764.65390625 eV
  | XC energy correction          :         -55.98315583 Ha       -1523.37917881 eV
  | XC potential correction       :          71.57023202 Ha        1947.52510236 eV
  | Free-atom electrostatic energy:        -214.40759698 Ha       -5834.32756117 eV
  | Hartree energy correction     :         -11.86948942 Ha        -322.98524046 eV
  | van der Waals energy corr.    :           0.00000000 Ha           0.00000000 eV
  | Entropy correction            :           0.00000000 Ha           0.00000000 eV
  | ---------------------------
  | Total energy                  :        -459.28647197 Ha      -12497.82078433 eV
  | Total energy, T -> 0          :        -459.28647197 Ha      -12497.82078433 eV  <-- do not rely on this value for anything but (periodic) metals
  | Electronic free energy        :        -459.28647197 Ha      -12497.82078433 eV

  Derived energy quantities:
  | Kinetic energy                :         458.20089385 Ha       12468.28070084 eV
  | Electrostatic energy          :        -861.50420999 Ha      -23442.72230636 eV
  | Energy correction for multipole
  | error in Hartree potential    :          -0.00826288 Ha          -0.22484435 eV
  | Sum of eigenvalues per atom                           :        -375.81410590 eV
  | Total energy (T->0) per atom                          :        -694.32337691 eV  <-- do not rely on this value for anything but (periodic) metals
  | Electronic free energy per atom                       :        -694.32337691 eV

  Self-consistency convergence accuracy:
  | Change of charge density      : 0.3232E-01
  | Change of sum of eigenvalues  : 0.3941E+01 eV
  | Change of total energy        : 0.4455E-02 eV

  End self-consistency iteration #     5       :  max(cpu_time)    wall_clock(cpu1)
  | Time for this iteration                    :        2.952 s           2.952 s
  | Charge density update                      :        0.915 s           0.915 s
  | Density mixing                             :        0.011 s           0.011 s
  | Hartree multipole update                   :        0.006 s           0.006 s
  | Hartree multipole summation                :        0.480 s           0.480 s
  | Integration                                :        1.459 s           1.459 s
  | Solution of K.-S. eqns.                    :        0.081 s           0.080 s
  | Total energy evaluation                    :        0.000 s           0.000 s
------------------------------------------------------------

------------------------------------------------------------
          Begin self-consistency iteration #    6

  Date     :  20150727, Time     :  114102.035
------------------------------------------------------------
  Evaluating new KS density.
  Integration grid: deviation in total charge (<rho> - N_e) =   3.552714E-14
  Pulay mixing of updated and previous charge densities.

  Evaluating partitioned Hartree potential by multipole expansion.
  | Analytical far-field extrapolation by fixed multipoles:
  | Hartree multipole sum: apparent total charge =  -0.654572E-05
  Summing up the Hartree potential.
  Time summed over all CPUs for potential: real work        3.784 s, elapsed        3.804 s
  | RMS charge density error from multipole expansion :   0.199230E-01

  Integrating Hamiltonian matrix: batch-based integration.
  Time summed over all CPUs for integration: real work       11.413 s, elapsed       11.643 s

  Updating Kohn-Sham eigenvalues, eigenvectors, occupation numbers, and Fermi level.
  Solving generalized eigenproblem
  Updating Kohn-Sham eigenvalues and eigenfunctions.
  Solving real generalised eigenvalue problem by standard LAPACK (fast)
  Determining occupation numbers for Kohn-Sham eigenstates.
  | Chemical potential (Fermi level) in eV                 : -.27633037E+01
  | Error in electron count due to remaining E_F inaccuracy: 0.00000000E+00
  | Maximum occupation number of highest empty state:  0.00E+00

  Highest occupied state (VBM) at     -3.37841494 eV
  | Occupation number:      2.00000000

  Lowest unoccupied state (CBM) at    -2.04524781 eV
  | Occupation number:      0.00000000

  Overall HOMO-LUMO gap:      1.33316713 eV.

  Total energy components:
  | Sum of eigenvalues            :        -248.63613018 Ha       -6765.73333884 eV
  | XC energy correction          :         -55.98197134 Ha       -1523.34694732 eV
  | XC potential correction       :          71.56836252 Ha        1947.47423068 eV
  | Free-atom electrostatic energy:        -214.40759698 Ha       -5834.32756117 eV
  | Hartree energy correction     :         -11.82907972 Ha        -321.88563653 eV
  | van der Waals energy corr.    :           0.00000000 Ha           0.00000000 eV
  | Entropy correction            :           0.00000000 Ha           0.00000000 eV
  | ---------------------------
  | Total energy                  :        -459.28641570 Ha      -12497.81925318 eV
  | Total energy, T -> 0          :        -459.28641570 Ha      -12497.81925318 eV  <-- do not rely on this value for anything but (periodic) metals
  | Electronic free energy        :        -459.28641570 Ha      -12497.81925318 eV

  Derived energy quantities:
  | Kinetic energy                :         458.21054137 Ha       12468.54322316 eV
  | Electrostatic energy          :        -861.51498572 Ha      -23443.01552902 eV
  | Energy correction for multipole
  | error in Hartree potential    :          -0.00827318 Ha          -0.22512460 eV
  | Sum of eigenvalues per atom                           :        -375.87407438 eV
  | Total energy (T->0) per atom                          :        -694.32329184 eV  <-- do not rely on this value for anything but (periodic) metals
  | Electronic free energy per atom                       :        -694.32329184 eV

  Self-consistency convergence accuracy:
  | Change of charge density      : 0.1503E-01
  | Change of sum of eigenvalues  : -.1079E+01 eV
  | Change of total energy        : 0.1531E-02 eV

  End self-consistency iteration #     6       :  max(cpu_time)    wall_clock(cpu1)
  | Time for this iteration                    :        2.950 s           2.949 s
  | Charge density update                      :        0.915 s           0.914 s
  | Density mixing                             :        0.013 s           0.014 s
  | Hartree multipole update                   :        0.006 s           0.006 s
  | Hartree multipole summation                :        0.476 s           0.476 s
  | Integration                                :        1.457 s           1.457 s
  | Solution of K.-S. eqns.                    :        0.081 s           0.081 s
  | Total energy evaluation                    :        0.000 s           0.000 s
------------------------------------------------------------

------------------------------------------------------------
          Begin self-consistency iteration #    7

  Date     :  20150727, Time     :  114104.984
------------------------------------------------------------
  Evaluating new KS density.
  Integration grid: deviation in total charge (<rho> - N_e) =   2.131628E-14
  Pulay mixing of updated and previous charge densities.

  Evaluating partitioned Hartree potential by multipole expansion.
  | Analytical far-field extrapolation by fixed multipoles:
  | Hartree multipole sum: apparent total charge =  -0.625233E-05
  Summing up the Hartree potential.
  Time summed over all CPUs for potential: real work        3.783 s, elapsed        3.803 s
  | RMS charge density error from multipole expansion :   0.198880E-01

  Integrating Hamiltonian matrix: batch-based integration.
  Time summed over all CPUs for integration: real work       11.414 s, elapsed       11.646 s

  Updating Kohn-Sham eigenvalues, eigenvectors, occupation numbers, and Fermi level.
  Solving generalized eigenproblem
  Updating Kohn-Sham eigenvalues and eigenfunctions.
  Solving real generalised eigenvalue problem by standard LAPACK (fast)
  Determining occupation numbers for Kohn-Sham eigenstates.
  | Chemical potential (Fermi level) in eV                 : -.28095901E+01
  | Error in electron count due to remaining E_F inaccuracy: 0.00000000E+00
  | Maximum occupation number of highest empty state:  0.00E+00

  Highest occupied state (VBM) at     -3.57380597 eV
  | Occupation number:      2.00000000

  Lowest unoccupied state (CBM) at    -2.05079868 eV
  | Occupation number:      0.00000000

  Overall HOMO-LUMO gap:      1.52300729 eV.

  Total energy components:
  | Sum of eigenvalues            :        -248.83703314 Ha       -6771.20018666 eV
  | XC energy correction          :         -55.96552939 Ha       -1522.89953888 eV
  | XC potential correction       :          71.54624208 Ha        1946.87230270 eV
  | Free-atom electrostatic energy:        -214.40759698 Ha       -5834.32756117 eV
  | Hartree energy correction     :         -11.62235737 Ha        -316.26043513 eV
  | van der Waals energy corr.    :           0.00000000 Ha           0.00000000 eV
  | Entropy correction            :           0.00000000 Ha           0.00000000 eV
  | ---------------------------
  | Total energy                  :        -459.28627480 Ha      -12497.81541913 eV
  | Total energy, T -> 0          :        -459.28627480 Ha      -12497.81541913 eV  <-- do not rely on this value for anything but (periodic) metals
  | Electronic free energy        :        -459.28627480 Ha      -12497.81541913 eV

  Derived energy quantities:
  | Kinetic energy                :         458.27789966 Ha       12470.37613560 eV
  | Electrostatic energy          :        -861.59864508 Ha      -23445.29201585 eV
  | Energy correction for multipole
  | error in Hartree potential    :          -0.00807917 Ha          -0.21984535 eV
  | Sum of eigenvalues per atom                           :        -376.17778815 eV
  | Total energy (T->0) per atom                          :        -694.32307884 eV  <-- do not rely on this value for anything but (periodic) metals
  | Electronic free energy per atom                       :        -694.32307884 eV

  Self-consistency convergence accuracy:
  | Change of charge density      : 0.1201E-01
  | Change of sum of eigenvalues  : -.5467E+01 eV
  | Change of total energy        : 0.3834E-02 eV

  End self-consistency iteration #     7       :  max(cpu_time)    wall_clock(cpu1)
  | Time for this iteration                    :        2.951 s           2.951 s
  | Charge density update                      :        0.915 s           0.915 s
  | Density mixing                             :        0.015 s           0.015 s
  | Hartree multipole update                   :        0.006 s           0.006 s
  | Hartree multipole summation                :        0.476 s           0.476 s
  | Integration                                :        1.458 s           1.458 s
  | Solution of K.-S. eqns.                    :        0.081 s           0.080 s
  | Total energy evaluation                    :        0.000 s           0.000 s
------------------------------------------------------------

------------------------------------------------------------
          Begin self-consistency iteration #    8

  Date     :  20150727, Time     :  114107.935
------------------------------------------------------------
  Evaluating new KS density.
  Integration grid: deviation in total charge (<rho> - N_e) =   2.842171E-14
  Pulay mixing of updated and previous charge densities.

  Evaluating partitioned Hartree potential by multipole expansion.
  | Analytical far-field extrapolation by fixed multipoles:
  | Hartree multipole sum: apparent total charge =  -0.626504E-05
  Summing up the Hartree potential.
  Time summed over all CPUs for potential: real work        3.783 s, elapsed        3.803 s
  | RMS charge density error from multipole expansion :   0.199751E-01

  Integrating Hamiltonian matrix: batch-based integration.
  Time summed over all CPUs for integration: real work       11.410 s, elapsed       11.657 s

  Updating Kohn-Sham eigenvalues, eigenvectors, occupation numbers, and Fermi level.
  Solving generalized eigenproblem
  Updating Kohn-Sham eigenvalues and eigenfunctions.
  Solving real generalised eigenvalue problem by standard LAPACK (fast)
  Determining occupation numbers for Kohn-Sham eigenstates.
  | Chemical potential (Fermi level) in eV                 : -.28033601E+01
  | Error in electron count due to remaining E_F inaccuracy: 0.00000000E+00
  | Maximum occupation number of highest empty state:  0.00E+00

  Highest occupied state (VBM) at     -3.53630024 eV
  | Occupation number:      2.00000000

  Lowest unoccupied state (CBM) at    -2.05083468 eV
  | Occupation number:      0.00000000

  Overall HOMO-LUMO gap:      1.48546556 eV.

  Total energy components:
  | Sum of eigenvalues            :        -248.80371467 Ha       -6770.29354493 eV
  | XC energy correction          :         -55.96903690 Ha       -1522.99498306 eV
  | XC potential correction       :          71.55078624 Ha        1946.99595560 eV
  | Free-atom electrostatic energy:        -214.40759698 Ha       -5834.32756117 eV
  | Hartree energy correction     :         -11.65670955 Ha        -317.19520558 eV
  | van der Waals energy corr.    :           0.00000000 Ha           0.00000000 eV
  | Entropy correction            :           0.00000000 Ha           0.00000000 eV
  | ---------------------------
  | Total energy                  :        -459.28627186 Ha      -12497.81533914 eV
  | Total energy, T -> 0          :        -459.28627186 Ha      -12497.81533914 eV  <-- do not rely on this value for anything but (periodic) metals
  | Electronic free energy        :        -459.28627186 Ha      -12497.81533914 eV

  Derived energy quantities:
  | Kinetic energy                :         458.27943196 Ha       12470.41783143 eV
  | Electrostatic energy          :        -861.59666692 Ha      -23445.23818751 eV
  | Energy correction for multipole
  | error in Hartree potential    :          -0.00813964 Ha          -0.22149075 eV
  | Sum of eigenvalues per atom                           :        -376.12741916 eV
  | Total energy (T->0) per atom                          :        -694.32307440 eV  <-- do not rely on this value for anything but (periodic) metals
  | Electronic free energy per atom                       :        -694.32307440 eV

  Self-consistency convergence accuracy:
  | Change of charge density      : 0.3190E-02
  | Change of sum of eigenvalues  : 0.9066E+00 eV
  | Change of total energy        : 0.7999E-04 eV

  End self-consistency iteration #     8       :  max(cpu_time)    wall_clock(cpu1)
  | Time for this iteration                    :        2.955 s           2.954 s
  | Charge density update                      :        0.915 s           0.914 s
  | Density mixing                             :        0.016 s           0.017 s
  | Hartree multipole update                   :        0.006 s           0.006 s
  | Hartree multipole summation                :        0.476 s           0.476 s
  | Integration                                :        1.460 s           1.459 s
  | Solution of K.-S. eqns.                    :        0.081 s           0.082 s
  | Total energy evaluation                    :        0.000 s           0.000 s
------------------------------------------------------------

------------------------------------------------------------
          Begin self-consistency iteration #    9

  Date     :  20150727, Time     :  114110.889
------------------------------------------------------------
  Evaluating new KS density.
  Integration grid: deviation in total charge (<rho> - N_e) =   4.263256E-14
  Pulay mixing of updated and previous charge densities.

[...]
   Pulay + GGA                   : 0.235547E+01 0.296612E+01 0.126527E+02
   Van der Waals               : -.575351E-02 -.677450E-02 -.158165E-02
   ----------------------------------------------------------------
   Total forces(  13)            : 0.892032E+00 0.514886E+00 -.133526E+01
  atom #   14
   Hellmann-Feynman + Multipole  : -.394454E+00 -.235106E+00 0.340847E+00
   Pulay + GGA                   : 0.916970E-01 0.581586E-01 0.535726E-01
   Van der Waals               : -.121960E-02 -.106130E-02 -.127355E-02
   ----------------------------------------------------------------
   Total forces(  14)            : -.303976E+00 -.178008E+00 0.393146E+00
  atom #   15
   Hellmann-Feynman + Multipole  : -.384840E+00 -.193144E+00 0.110056E+01
   Pulay + GGA                   : -.745268E-01 -.395622E-01 0.992580E-01
   Van der Waals               : -.137459E-02 -.396623E-02 -.419948E-02
   ----------------------------------------------------------------
   Total forces(  15)            : -.460742E+00 -.236672E+00 0.119562E+01
  atom #   16
   Hellmann-Feynman + Multipole  : -.126643E+02 -.324428E+01 0.242444E+01
   Pulay + GGA                   : 0.136000E+02 0.498384E+01 -.317826E+01
   Van der Waals               : 0.130606E-02 -.607005E-02 -.188606E-02
   ----------------------------------------------------------------
   Total forces(  16)            : 0.937035E+00 0.173349E+01 -.755705E+00
  atom #   17
   Hellmann-Feynman + Multipole  : -.283581E+00 -.160631E+00 0.264733E-01
   Pulay + GGA                   : 0.839682E-01 -.216514E-01 0.264398E-01
   Van der Waals               : -.381795E-02 -.452414E-02 -.399217E-02
   ----------------------------------------------------------------
   Total forces(  17)            : -.203431E+00 -.186807E+00 0.489210E-01
  atom #   18
   Hellmann-Feynman + Multipole  : -.826828E+00 -.149779E+01 0.674975E+00
   Pulay + GGA                   : 0.502745E-01 0.108810E+00 -.469159E-01
   Van der Waals               : 0.183091E-02 -.472169E-02 0.171498E-02
   ----------------------------------------------------------------
   Total forces(  18)            : -.774722E+00 -.139370E+01 0.629774E+00
  Timings for vdw_correction_hirshfeld (Tkatchenko-Scheffler 2009):
  | CPU time:        7.746 s, Wall clock time:        7.745 s.
  Removing unitary transformations (pure translations, rotations) from forces on atoms.
  Atomic forces before filtering:
  | Net force on center of mass :  0.404751E-02 -.492110E-02 -.658806E-02 eV/A
  | Net torque on center of mass:  0.780051E-02 0.153375E-02 -.122844E-01 eV
  Atomic forces after filtering:
  | Net force on center of mass :  0.267609E-15 0.000000E+00 -.267609E-15 eV/A
  | Net torque on center of mass:  -.755268E-15 -.226580E-14 -.151054E-14 eV
 
  Energy and forces in a compact form:
  | Total energy uncorrected      :         -0.124979193399920E+05 eV
  | Total energy corrected        :         -0.124979193399920E+05 eV  <-- do not rely on this value for anything but (periodic) metals
  | Electronic free energy        :         -0.124979193399920E+05 eV
  Total atomic forces (unitary forces cleaned) [eV/Ang]:
  |   1         -0.368541755024145E+00          0.250428699945137E+01         -0.162351954197587E+01
  |   2          0.181761506210306E+01         -0.312952745099127E+01          0.121676025395463E+01
  |   3         -0.207861118972649E+01         -0.650508461071814E+00         -0.268967805276283E+00
  |   4         -0.269960953253342E+00         -0.140215581164160E+01         -0.341089947893761E+00
  |   5         -0.464409939894372E+00          0.483111857963645E+00          0.992967351645786E+00
  |   6          0.522671626274880E+00          0.769915241157794E+00          0.315484431958650E+00
  |   7         -0.183326827593428E+00          0.632541568758703E+00          0.208480976709832E+01
  |   8         -0.184229646567203E+00         -0.128479249577994E+00         -0.575520565955796E-01
  |   9         -0.283215784520277E+00          0.335661925414918E+00         -0.236193932017607E+01
  |  10          0.321929168611577E+01          0.791651881880873E-01          0.120463047450307E+01
  |  11         -0.231325644995703E+00         -0.694150262990744E+00         -0.982309061207297E+00
  |  12         -0.157916146205289E+01          0.944437270401582E+00         -0.357183685939318E+00
  |  13          0.891624537058698E+00          0.515459415362777E+00         -0.133492624990201E+01
  |  14         -0.304466985195957E+00         -0.177305035028822E+00          0.393467853768782E+00
  |  15         -0.461136932007834E+00         -0.236115393626568E+00          0.119595772891483E+01
  |  16          0.936489282079518E+00          0.173366309102406E+01         -0.755566396272478E+00
  |  17         -0.203937077682302E+00         -0.186488941697014E+00          0.491239063245565E-01
  |  18         -0.775367995117986E+00         -0.139351195109711E+01          0.629852297070038E+00
 
  ------------------------------------ 
  Start decomposition of the XC Energy 
  ------------------------------------ 
  Hartree-Fock part   :          0.000000000 Ha              0.000000000 eV
  ------------------------------------ 
  X Energy            :        -53.995814675 Ha          -1469.300874507 eV
  C Energy GGA        :         -1.972364352 Ha            -53.670764749 eV
  Total XC Energy     :        -55.968179027 Ha          -1522.971639256 eV
  LDA X and C from self-consistent density 
  X Energy LDA        :        -48.681997513 Ha          -1324.704552559 eV
  C Energy LDA        :         -3.964540314 Ha           -107.880630853 eV
  ------------------------------------ 
  End decomposition of the XC Energy 
  ------------------------------------ 
  Performing Hirshfeld analysis of fragment charges and moments.
  ----------------------------------------------------------------------
  | Atom     1: O
  |   Hirshfeld charge        :     -0.40575532
  |   Free atom volume        :     23.95238533
  |   Hirshfeld volume        :     24.60115849
  |   Hirshfeld dipole vector :      0.02378845       0.06999431       0.02489882
  |   Hirshfeld dipole moment :      0.07800670
  |   Hirshfeld second moments:     -0.01334774      -0.02110541       0.01362267
  |                                 -0.02110541      -0.07799496      -0.03404691
  |                                  0.01362267      -0.03404691      -0.09309272
  ----------------------------------------------------------------------
  | Atom     2: H
  |   Hirshfeld charge        :      0.05296802
  |   Free atom volume        :     10.44207651
  |   Hirshfeld volume        :      8.83773946
  |   Hirshfeld dipole vector :     -0.02081523       0.04179356      -0.00929960
  |   Hirshfeld dipole moment :      0.04760733
  |   Hirshfeld second moments:      0.05939643       0.02762280       0.00176879
  |                                  0.02762280       0.01608834       0.00694442
  |                                  0.00176879       0.00694442       0.05526463
  ----------------------------------------------------------------------
  | Atom     3: H
  |   Hirshfeld charge        :      0.03853345
  |   Free atom volume        :     10.44207651
  |   Hirshfeld volume        :      9.00137090
  |   Hirshfeld dipole vector :      0.04665491       0.01589429       0.01565354
  |   Hirshfeld dipole moment :      0.05171404
  |   Hirshfeld second moments:      0.01727032      -0.02833987      -0.00171439
  |                                 -0.02833987       0.05671265      -0.00730810
  |                                 -0.00171439      -0.00730810       0.04515978
  ----------------------------------------------------------------------
  | Atom     4: O
  |   Hirshfeld charge        :     -0.27909117
  |   Free atom volume        :     23.95238533
  |   Hirshfeld volume        :     22.01232559
  |   Hirshfeld dipole vector :     -0.03347745       0.01744530       0.01069676
  |   Hirshfeld dipole moment :      0.03923644
  |   Hirshfeld second moments:      0.02627822       0.05681999      -0.00794472
  |                                  0.05681999       0.03144932       0.02668210
  |                                 -0.00794472       0.02668210      -0.00523116
  ----------------------------------------------------------------------
  | Atom     5: H
  |   Hirshfeld charge        :      0.11526539
  |   Free atom volume        :     10.44207651
  |   Hirshfeld volume        :      7.02002747
  |   Hirshfeld dipole vector :      0.03268631       0.09356948       0.05386022
  |   Hirshfeld dipole moment :      0.11280322
  |   Hirshfeld second moments:      0.10534208       0.01595338      -0.00623496
  |                                  0.01595338       0.09302083       0.00436836
  |                                 -0.00623496       0.00436836       0.08896137
  ----------------------------------------------------------------------
  | Atom     6: H
  |   Hirshfeld charge        :      0.13853026
  |   Free atom volume        :     10.44207651
  |   Hirshfeld volume        :      6.77034561
  |   Hirshfeld dipole vector :     -0.10292624      -0.06309350       0.01739031
  |   Hirshfeld dipole moment :      0.12197140
  |   Hirshfeld second moments:      0.09793061       0.01315309       0.00013100
  |                                  0.01315309       0.11380884       0.01288038
  |                                  0.00013100       0.01288038       0.09862179
  ----------------------------------------------------------------------
  | Atom     7: O
  |   Hirshfeld charge        :     -0.20624172
  |   Free atom volume        :     23.95238533
  |   Hirshfeld volume        :     20.65795409
  |   Hirshfeld dipole vector :      0.03406140      -0.01074036      -0.01575215
  |   Hirshfeld dipole moment :      0.03903414
  |   Hirshfeld second moments:      0.03048991       0.01201537       0.02694472
  |                                  0.01201537       0.07072598       0.00516544
  |                                  0.02694472       0.00516544       0.09510310
  ----------------------------------------------------------------------
  | Atom     8: H
  |   Hirshfeld charge        :      0.11229163
  |   Free atom volume        :     10.44207651
  |   Hirshfeld volume        :      7.47704654
  |   Hirshfeld dipole vector :      0.02819699       0.03745667       0.00738768
  |   Hirshfeld dipole moment :      0.04746209
  |   Hirshfeld second moments:      0.07721011      -0.02043273      -0.00595091
  |                                 -0.02043273       0.06732239      -0.02847651
  |                                 -0.00595091      -0.02847651       0.09892037
  ----------------------------------------------------------------------
  | Atom     9: H
  |   Hirshfeld charge        :      0.15685895
  |   Free atom volume        :     10.44207651
  |   Hirshfeld volume        :      6.12596621
  |   Hirshfeld dipole vector :     -0.01679031       0.00906383      -0.11855959
  |   Hirshfeld dipole moment :      0.12008516
  |   Hirshfeld second moments:      0.11544202       0.00936499       0.00856526
  |                                  0.00936499       0.12916105       0.00228305
  |                                  0.00856526       0.00228305       0.12079690
  ----------------------------------------------------------------------
  | Atom    10: O
  |   Hirshfeld charge        :     -0.21055987
  |   Free atom volume        :     23.95238533
  |   Hirshfeld volume        :     21.15026324
  |   Hirshfeld dipole vector :     -0.02357199      -0.03068616       0.03019668
  |   Hirshfeld dipole moment :      0.04908277
  |   Hirshfeld second moments:      0.06106720      -0.02861713       0.00779696
  |                                 -0.02861713       0.06045350       0.03057461
  |                                  0.00779696       0.03057461       0.02527441
  ----------------------------------------------------------------------
  | Atom    11: H
  |   Hirshfeld charge        :      0.10479982
  |   Free atom volume        :     10.44207651
  |   Hirshfeld volume        :      7.38293095
  |   Hirshfeld dipole vector :      0.00829505       0.02611788       0.04897553
  |   Hirshfeld dipole moment :      0.05612089
  |   Hirshfeld second moments:      0.10729401      -0.00188605       0.00914350
  |                                 -0.00188605       0.07603705      -0.02466817
  |                                  0.00914350      -0.02466817       0.06283298
  ----------------------------------------------------------------------
  | Atom    12: H
  |   Hirshfeld charge        :      0.15497812
  |   Free atom volume        :     10.44207651
  |   Hirshfeld volume        :      6.20430674
  |   Hirshfeld dipole vector :      0.08735207      -0.07882560       0.01281187
  |   Hirshfeld dipole moment :      0.11835542
  |   Hirshfeld second moments:      0.11612063       0.00007424       0.00083102
  |                                  0.00007424       0.11866831       0.01433555
  |                                  0.00083102       0.01433555       0.11956382
  ----------------------------------------------------------------------
  | Atom    13: O
  |   Hirshfeld charge        :     -0.17300803
  |   Free atom volume        :     23.95238533
  |   Hirshfeld volume        :     19.30917458
  |   Hirshfeld dipole vector :     -0.00643579      -0.00305698       0.00600235
  |   Hirshfeld dipole moment :      0.00931626
  |   Hirshfeld second moments:      0.11543129       0.03017065      -0.00748949
  |                                  0.03017065       0.08659629      -0.00218972
  |                                 -0.00748949      -0.00218972       0.09856297
  ----------------------------------------------------------------------
  | Atom    14: H
  |   Hirshfeld charge        :      0.18671962
  |   Free atom volume        :     10.44207651
  |   Hirshfeld volume        :      5.27515970
  |   Hirshfeld dipole vector :      0.09674066       0.06569790       0.03231661
  |   Hirshfeld dipole moment :      0.12132326
  |   Hirshfeld second moments:      0.13978129       0.00374696      -0.00905304
  |                                  0.00374696       0.13552181      -0.00543409
  |                                 -0.00905304      -0.00543409       0.14813661
  ----------------------------------------------------------------------
  | Atom    15: H
  |   Hirshfeld charge        :      0.18488939
  |   Free atom volume        :     10.44207651
  |   Hirshfeld volume        :      5.81296435
  |   Hirshfeld dipole vector :     -0.07162974      -0.03783394       0.08218441
  |   Hirshfeld dipole moment :      0.11539716
  |   Hirshfeld second moments:      0.13302619       0.00502366       0.00564395
  |                                  0.00502366       0.12730317       0.00520332
  |                                  0.00564395       0.00520332       0.13487653
  ----------------------------------------------------------------------
  | Atom    16: O
  |   Hirshfeld charge        :     -0.23855611
  |   Free atom volume        :     23.95238533
  |   Hirshfeld volume        :     20.95630114
  |   Hirshfeld dipole vector :      0.02274722      -0.01675806      -0.03006597
  |   Hirshfeld dipole moment :      0.04125810
  |   Hirshfeld second moments:      0.04068100       0.00539874       0.02308521
  |                                  0.00539874       0.08078023      -0.03118150
  |                                  0.02308521      -0.03118150       0.02264432
  ----------------------------------------------------------------------
  | Atom    17: H
  |   Hirshfeld charge        :      0.11010164
  |   Free atom volume        :     10.44207651
  |   Hirshfeld volume        :      7.17654996
  |   Hirshfeld dipole vector :      0.05536964      -0.02298858       0.00666578
  |   Hirshfeld dipole moment :      0.06032167
  |   Hirshfeld second moments:      0.07363130       0.03087204      -0.01789406
  |                                  0.03087204       0.10038295       0.00186723
  |                                 -0.01789406       0.00186723       0.08804594
  ----------------------------------------------------------------------
  | Atom    18: H
  |   Hirshfeld charge        :      0.15731321
  |   Free atom volume        :     10.44207651
  |   Hirshfeld volume        :      5.91515488
  |   Hirshfeld dipole vector :      0.03532447       0.10127530      -0.05594077
  |   Hirshfeld dipole moment :      0.12097055
  |   Hirshfeld second moments:      0.13091618      -0.00508439       0.01128443
  |                                 -0.00508439       0.12419844      -0.00230142
  |                                  0.01128443      -0.00230142       0.11460996
  ----------------------------------------------------------------------


------------------------------------------------------------------------------
  Final output of selected total energy values:

  The following output summarizes some interesting total energy values
  at the end of a run (AFTER all relaxation, molecular dynamics, etc.).

  | Total energy of the DFT / Hartree-Fock s.c.f. calculation      :         -12497.919339992 eV
  | Final zero-broadening corrected energy (caution - metals only) :         -12497.919339992 eV
  | For reference only, the value of 1 Hartree used in FHI-aims is :             27.211384500 eV

  Before relying on these values, please be sure to understand exactly which
  total energy value is referred to by a given number. Different objects may
  all carry the same name 'total energy'. Definitions:

  Total energy of the DFT / Hartree-Fock s.c.f. calculation:
  | Note that this energy does not include ANY quantities calculated after the
  | s.c.f. cycle, in particular not ANY RPA, MP2, etc. many-body perturbation terms.

  Final zero-broadening corrected energy:
  | For metallic systems only, a broadening of the occupation numbers at the Fermi
  | level can be extrapolated back to zero broadening by an electron-gas inspired
  | formula. For all systems that are not real metals, this value can be
  | meaningless and should be avoided.

------------------------------------------------------------------------------

------------------------------------------------------------
          Leaving FHI-aims.
          Date     :  20150727, Time     :  114140.365

          Computational steps:
          | Number of self-consistency cycles          :           16

          Detailed time accounting                     :  max(cpu_time)    wall_clock(cpu1)
          | Total time                                 :       56.512 s          56.562 s
          | Preparation time                           :        0.171 s           0.453 s
          | Grid partitioning                          :        0.163 s           0.163 s
          | Preloading free-atom quantities on grid    :        0.014 s           0.013 s
          | Free-atom superposition energy             :        0.088 s           0.089 s
          | Total time for integrations                :       25.636 s          25.636 s
          | Total time for solution of K.-S. equations :        1.598 s           1.596 s
          | Total time for density & force components  :       18.657 s          18.653 s
          | Total time for mixing                      :        0.248 s           0.250 s
          | Total time for Hartree multipole update    :        0.096 s           0.096 s
          | Total time for Hartree multipole sum       :        9.200 s           9.200 s
          | Total time for total energy evaluation     :        0.007 s           0.003 s
          | Total time for scaled ZORA corrections     :        0.000 s           0.000 s
          | Total time for TS (2009) vdW correction    :        0.072 s           0.074 s

          Have a nice day.
------------------------------------------------------------
