  MPI-parallelism will be employed.
------------------------------------------------------------
          Invoking FHI-aims ...
          Version 081213
          Compiled on 2013/08/29 at 17:41:06 on host generoso.

          When using FHI-aims, please cite the following reference:

          Volker Blum, Ralf Gehrke, Felix Hanke, Paula Havu,
          Ville Havu, Xinguo Ren, Karsten Reuter, and Matthias Scheffler,
          'Ab Initio Molecular Simulations with Numeric Atom-Centered Orbitals: FHI-aims',
          Computer Physics Communications 180, 2175-2196 (2009)

          For any questions about FHI-aims, please visit the aimsclub website
          with its forums and wiki. Contributions to both the forums and the
          wiki are warmly encouraged - they are for you, and everyone is welcome there.

------------------------------------------------------------

  Date     :  20150727, Time     :  124034.541
  Time zero on CPU 1             :   0.399930000000000E-01  s.
  Internal wall clock time zero  :           207232834.541  s.

  Using        8 parallel tasks.
  Task        0 on host gen60 reporting.
  Task        1 on host gen60 reporting.
  Task        2 on host gen60 reporting.
  Task        3 on host gen60 reporting.
  Task        4 on host gen60 reporting.
  Task        5 on host gen60 reporting.
  Task        6 on host gen60 reporting.
  Task        7 on host gen60 reporting.

  Performing system and environment tests:
  | Environment variable OMP_NUM_THREADS correctly set to 1.
  | Checking for scalapack...
  | No scalapack compiled in.

  Obtaining array dimensions for all initial allocations:
  
  -----------------------------------------------------------------------
  Parsing control.in (first pass over file, find array dimensions only).
  The contents of control.in will be repeated verbatim below
  unless switched off by setting 'verbatim_writeout .false.' .
  in the first line of control.in .
  -----------------------------------------------------------------------
  
  #########################################################################################
  #
  #  Volker Blum, FHI 2008 : Test run input file control.in
  #
  #########################################################################################
  #
  #  Physical model
  #
    xc                 rpbe
    spin               none
    relativistic       atomic_zora scalar
    charge             0.
   vdw_correction_hirshfeld
  #
  #  SCF convergence
  #
    occupation_type    gaussian 0.01
    mixer              pulay
      n_max_pulay        10
      charge_mix_param   0.1
    sc_accuracy_rho    5E-5
    sc_accuracy_eev    5E-3
    sc_accuracy_etot   5E-6
    sc_iter_limit      3000
  #
  #  Eigenvalue solver
  #
    KS_method          lapack
      empty_states       8
      basis_threshold    0.e-5
  #
  #  Efficiency
  #
  #   all previous settings are now default, except stratmann still
  #   undecided. Continue to handle stratmann with care, if at all.
  #
  #  partition_type stratmann
    partition_type rho_r2
  #  hartree_partition_type stratmann
  #
  #  Oprions for large clusters (100's of atoms: memory saving / better scaling)
  #
  # for periodic systems:
  #
    density_update_method orbital
    packed_matrix_format none
  #  k_grid 6 6 6
  #  output k_eigenvalue 1
  #  distributed_spline_storage .true.
  #
  #  Relaxation
  #
  #  relax_geometry   bfgs 5.e-3
    sc_accuracy_forces 5.E-4
    final_forces_cleaned .true.
  #
  #  Output options
  #
  #  output mulliken
    output Hirshfeld
  #  output dipole
  
  #harmonic_length_scale 0.001
  
  ################################################################################
  #
  #  FHI-aims code project
  #  VB, Fritz-Haber Institut, 2007
  #
  #  Suggested "safe" defaults for H atom (to be pasted into control.in file)
  #  Basis constructed for a non-relativistic H2 molecule using the
  #  PW-LDA functional.
  #
  ################################################################################
    species        H
  #     global species definitions
      nucleus             1
      cut_pot             4.0  2.0  1.0
      cut_free_atom       finite 8.0
      logarithmic         0.00010000 100.00  1.0123
      basis_dep_cutoff    1d-4  # 1d-4 is safe default - please check 5d-4 if you wish!
      radial_base         24 7.0
      radial_multiplier   2
      angular_grids       specified
        division   0.2783  110
        division   0.3822  194
        division   0.5626  302
  #      division   0.5922  434
  #      division   0.6227  590
  #      division   0.7206  770
        outer_grid  302
      l_hartree           4
  ################################################################################
  #
  #  Definition of "minimal" basis
  #
  ################################################################################
  #     valence basis states
      valence      1  s   1.
  #     ion occupancy
      ion_occ      1  s   0.5
  ################################################################################
  #
  #  Suggested additional basis functions. For production calculations,
  #  uncomment them one after another (the most important basis functions are
  #  listed first).
  #
  ################################################################################
  #  "First tier" - improvements: -1014.90 meV to -62.69 meV
       hydro 2 s 2.1
       hydro 2 p 3.5
  #  "Second tier" - improvements: -12.89 meV to -1.83 meV
       hydro 1 s 0.85
       hydro 2 p 3.7
       hydro 2 s 1.2
       hydro 3 d 7
  #  "Third tier" - improvements: -0.25 meV to -0.12 meV
  #     hydro 4 f 11.2
  #     hydro 3 p 4.8
  #     hydro 4 d 9
  #     hydro 3 s 3.2
  
  ################################################################################
  #
  #  FHI-aims code project
  #  VB, Fritz-Haber Institut, 2007
  #
  #  Suggested "safe" defaults for O atom (to be pasted into control.in file)
  #  All values have been tested for a non-relativistic, non-spinpolarized O2
  #  molecule using the PW-LDA functional. Validity for PBE is expected.
  #
  #  Constructed for dimers: 1.0 A, 1.208 A, 1.5 A, 2.0 A, 3.0 A
  #
  ################################################################################
    species        O
  #     global species definitions
      nucleus             8
      mass                15.9994
      l_hartree           4
      cut_pot             4.0  2.0  1.0
      cut_free_atom       finite 8.0
      basis_dep_cutoff    1d-4  # 1d-4 is safe default - please check 5d-4 if you wish!
      logarithmic         0.00010000 100.00  1.0123
      radial_base         36 7.0
      radial_multiplier   2
       angular_grids specified
        division   0.4087  110
        division   0.5181  194
        division   0.6184  302
  #      division   0.7315  434
  #      division   0.7934  590
  #      division   0.9656  770
  #      division   1.4041  974
  #      outer_grid 974
        outer_grid 302
  ################################################################################
  #
  #  Definition of "minimal" basis
  #
  ################################################################################
  #     valence basis states
      valence      2  s   2.
      valence      2  p   4.
  #     ion occupancy
      ion_occ      2  s   1.
      ion_occ      2  p   3.
  ################################################################################
  #
  #  Suggested additional basis functions. For production calculations,
  #  uncomment them one after another (the most important basis functions are
  #  listed first).
  #
  ################################################################################
  #  "First tier" - improvements: -699.05 meV to -159.38 meV
       hydro 2 p 1.8
       hydro 3 d 7.6
       hydro 3 s 6.4
  #  "Second tier" - improvements: -49.91 meV to -5.39 meV
       hydro 4 f 11.6
       hydro 3 p 6.2
       hydro 3 d 5.6
       hydro 5 g 17.6
       hydro 1 s 0.75
  #  "Third tier" - improvements: -2.83 meV to -0.50 meV
  #     ionic 2 p auto
  #     hydro 4 f 10.8
  #     hydro 4 d 4.7
  #     hydro 2 s 6.8
  #  "Fourth tier" - improvements: -0.40 meV to -0.12 meV
  #     hydro 3 p 5
  #     hydro 3 s 3.3
  #     hydro 5 g 15.6
  #     hydro 4 f 17.6
  #     hydro 4 d 14
  # Further basis functions - -0.08 meV and below
  #     hydro 3 s 2.1
  #     hydro 4 d 11.6
  #     hydro 3 p 16
  #     hydro 2 s 17.2
  
  
  -----------------------------------------------------------------------
  Completed first pass over input file control.in .
  -----------------------------------------------------------------------
  
  
  -----------------------------------------------------------------------
  Parsing geometry.in (first pass over file, find array dimensions only).
  The contents of geometry.in will be repeated verbatim below
  unless switched off by setting 'verbatim_writeout .false.' .
  in the first line of geometry.in .
  -----------------------------------------------------------------------
  
  atom      -4.053030000      0.065001000     -1.525160000  O
  atom      -4.566710000      0.974813000     -1.912820000  H
  atom      -3.067820000      0.330172000     -1.477310000  H
  atom      -3.818880000      2.024990000      2.187990000  O
  atom      -3.690880000      1.961360000      3.202150000  H
  atom      -4.546490000      2.751300000      2.045370000  H
  
  -----------------------------------------------------------------------
  Completed first pass over input file geometry.in .
  -----------------------------------------------------------------------
  
 
  Basic array size parameters: 
  | Number of species                 :        2
  | Number of atoms                   :        6
  | Max. basis fn. angular momentum   :        4
  | Max. atomic/ionic basis occupied n:        2
  | Max. number of basis fn. types    :        2
  | Max. radial fns per species/type  :        8
  | Max. logarithmic grid size        :     1301
  | Max. radial integration grid size :       73
  | Max. angular integration grid size:      302
  | Max. angular grid division number :        8
  | Radial grid for Hartree potential :     1301
  | Number of spin channels           :        1

------------------------------------------------------------
          Reading file control.in.
------------------------------------------------------------
  XC: Using RPBE gradient-corrected functionals.
  Spin treatment: No spin polarisation.
  Scalar relativistic treatment of kinetic energy: on-site free-atom approximation to ZORA.
  Charge =   0.000000E+00: Neutral system requested explicitly.
  Using non-empirical van der Waals correction (Hirshfeld partitioning):
  Occupation type: Gaussian broadening, width =   0.100000E-01 eV.
  Using pulay charge density mixing.
  Pulay mixing - number of memorized iterations:   10
  Charge density mixing - mixing parameter:     0.1000
  Convergence accuracy of self-consistent charge density: 0.5000E-04
  Convergence accuracy of sum of eigenvalues: 0.5000E-02
  Convergence accuracy of total energy: 0.5000E-05
  Maximum number of s.-c. iterations  :  3000
  Kohn-Sham eigenvalues and eigenfunctions calculated by lapack diagonalisation (D&C).
  Number of empty states per atom:        8
  Threshold for basis singularities: 0.0000E+00
  Partition function in integrals calculations: rho / r^2
 Using packed matrix format           0
  Convergence accuracy of forces: 0.5000E-03
  Cleaning forces before final output.
  Hirshfeld charge analysis will be performed.
 
  Reading configuration options for species H                   .
  | Found nuclear charge :   1.0000
  | Found cutoff potl. onset [A], width [A], scale factor :    4.00000    2.00000    1.00000
  | Found cutoff specification for free atom: Cutoff potential begins at    8.00000 A.
  | Found logarithmic grid data [bohr] : 0.1000E-03 0.1000E+03 0.1012E+01
  | Threshold for basis-dependent cutoff potential is   0.100000E-03
  | Found data for basic radial integration grid :    24 points, outermost radius =    7.000 A
  | Found multiplier for basic radial grid :   2
  | Found angular grid specification: user-specified.
  | Specified grid contains     4 separate shells.
  | Check grid settings after all constraints further below.
  | Found l_max for Hartree potential  :   4
  | Found free-atom valence shell :  1 s   1.000
  | No ionic wave fns used. Skipping ion_occ.
  | Found hydrogenic basis function :  2 s   2.100
  | Found hydrogenic basis function :  2 p   3.500
  | Found hydrogenic basis function :  1 s   0.850
  | Found hydrogenic basis function :  2 p   3.700
  | Found hydrogenic basis function :  2 s   1.200
  | Found hydrogenic basis function :  3 d   7.000
  Species H                   : Missing cutoff potential type.
  Defaulting to exp(1/x)/(1-x)^2 type cutoff potential.
  Species H : On-site basis accuracy parameter (for Gram-Schmidt orthonormalisation) not specified.
  Using default value basis_acc =  0.1000000E-03.
  Species H                   : Using default innermost maximum threshold i_radial=  2 for radial functions.
  Species H                   : Basic radial grid will be enhanced according to radial_multiplier =   2, to contain    49 grid points.
 
  Reading configuration options for species O                   .
  | Found nuclear charge :   8.0000
  | Found atomic mass :    15.9994000000000      amu
  | Found l_max for Hartree potential  :   4
  | Found cutoff potl. onset [A], width [A], scale factor :    4.00000    2.00000    1.00000
  | Found cutoff specification for free atom: Cutoff potential begins at    8.00000 A.
  | Threshold for basis-dependent cutoff potential is   0.100000E-03
  | Found logarithmic grid data [bohr] : 0.1000E-03 0.1000E+03 0.1012E+01
  | Found data for basic radial integration grid :    36 points, outermost radius =    7.000 A
  | Found multiplier for basic radial grid :   2
  | Found angular grid specification: user-specified.
  | Specified grid contains     4 separate shells.
  | Check grid settings after all constraints further below.
  | Found free-atom valence shell :  2 s   2.000
  | Found free-atom valence shell :  2 p   4.000
  | No ionic wave fns used. Skipping ion_occ.
  | No ionic wave fns used. Skipping ion_occ.
  | Found hydrogenic basis function :  2 p   1.800
  | Found hydrogenic basis function :  3 d   7.600
  | Found hydrogenic basis function :  3 s   6.400
  | Found hydrogenic basis function :  4 f  11.600
  | Found hydrogenic basis function :  3 p   6.200
  | Found hydrogenic basis function :  3 d   5.600
  | Found hydrogenic basis function :  5 g  17.600
  | Found hydrogenic basis function :  1 s   0.750
  Species O                   : Missing cutoff potential type.
  Defaulting to exp(1/x)/(1-x)^2 type cutoff potential.
  Species O : On-site basis accuracy parameter (for Gram-Schmidt orthonormalisation) not specified.
  Using default value basis_acc =  0.1000000E-03.
  Species O                   : Using default innermost maximum threshold i_radial=  2 for radial functions.
  Species O                   : Basic radial grid will be enhanced according to radial_multiplier =   2, to contain    73 grid points.
 
  Finished reading input file 'control.in'. Consistency checks are next.
 
  Target number of points in a grid batch is not set. Defaulting to  100
  Method for grid partitioning is not set. Defaulting to parallel hash+maxmin partitioning.
  Batch size limit is not set. Defaulting to    200
  By default, will store active basis functions for each batch.
  If in need of memory, prune_basis_once .false. can be used to disable this option.
  communication_type for Hartree potential was not specified.
  Defaulting to calc_hartree .
  Pulay mixer: Number of initial linear mixing iterations not set.
  Defaulting to    0 iterations.
  Work space size for distributed Hartree potential not set.
  Defaulting to   0.200000E+03 MB.
  Algorithm-dependent basis array size parameters:
  | n_max_pulay                         :       10
  Geometry relaxation not requested: no relaxation will be performed.
  Handling of forces: Unphysical translation and rotation will be removed from forces.
  No accuracy limit for integral partition fn. given. Defaulting to 0.1000E-14.
  No threshold value for u(r) in integrations given. Defaulting to 0.1000E-05.
  No accuracy for occupation numbers given. Defaulting to 0.1000E-07.
  No threshold value for occupation numbers given. Defaulting to 0.0000E+00.
  No accuracy for fermi level given. Defaulting to 0.1000E-19.
  Maximum # of iterations to find E_F not set. Defaulting to  200.
  Will not use alltoall communication since running on < 1024 CPUs.
  Partitioning for Hartree potential was not defined. Using partition_type for integrals.
  | Reporting present value of keyword multip_moments_threshold  :       0.10000000E-09
  | This value may affect high angular momentum components of the Hartree potential in periodic systems.
  No q(lm)/r^(l+1) cutoff set for long-range Hartree potential.
  | Using default value of  0.100000E-09 .
  | Verify using the multipole_threshold keyword.
  Defaulting to new monopole extrapolation.
  Density update method: Loop over occupied states selected for charge density update.
------------------------------------------------------------


------------------------------------------------------------
          Reading geometry description geometry.in.
------------------------------------------------------------
  Input structure read successfully.
  The structure contains        6 atoms,  and a total of         20.000 electrons.

  Input geometry:
  | No unit cell requested.
  | Atomic structure:
  |       Atom                x [A]            y [A]            z [A]
  |    1: Species O             -4.053030         0.065001        -1.525160
  |    2: Species H             -4.566710         0.974813        -1.912820
  |    3: Species H             -3.067820         0.330172        -1.477310
  |    4: Species O             -3.818880         2.024990         2.187990
  |    5: Species H             -3.690880         1.961360         3.202150
  |    6: Species H             -4.546490         2.751300         2.045370
  |

  | The smallest distance between any two atoms is         1.02139318 AA.
  |
  | The first atom of this pair is atom number                      1 .
  | The second atom of this pair is atom number                     3 .

  Structure-dependent array size parameters: 
  | Maximum number of distinct radial functions  :       18
  | Maximum number of basis functions            :      138
  | Number of Kohn-Sham states (occupied + empty):       34
------------------------------------------------------------

------------------------------------------------------------
          Preparing all fixed parts of the calculation.
------------------------------------------------------------
  Determining machine precision:
    2.225073858507201E-308
  Setting up grids for atomic and cluster calculations.

  Creating wave function, potential, and density for free atoms.

  Species: H

  List of occupied orbitals and eigenvalues:
    n    l              occ      energy [Ha]    energy [eV]
    1    0           1.0000        -0.241408        -6.5691


  Species: O

  List of occupied orbitals and eigenvalues:
    n    l              occ      energy [Ha]    energy [eV]
    1    0           2.0000       -18.944147      -515.4965
    2    0           2.0000        -0.883529       -24.0421
    2    1           4.0000        -0.330176        -8.9845

  Creating fixed part of basis set: Ionic, confined, hydrogenic.
 
  H                    hydrogenic:
 
  List of hydrogenic basis orbitals: 
    n    l      effective z      eigenvalue [eV]  inner max. [A]     outer max. [A]     outer radius [A]   
    2    0         2.100000       -14.9965           0.193241           1.317192           5.372934
    2    1         3.500000       -41.6672           0.602363           0.602363           4.056010
    1    0         0.850000        -9.8292           0.624864           0.624864           5.372934
    2    1         3.700000       -46.5653           0.573616           0.573616           3.909951
    2    0         1.200000        -4.5995           0.334977           2.228160           5.505921
    3    2         7.000000       -74.0753           0.680692           0.680692           3.769152
 
 
  O                    hydrogenic:
 
  List of hydrogenic basis orbitals: 
    n    l      effective z      eigenvalue [eV]  inner max. [A]     outer max. [A]     outer radius [A]   
    2    1         1.800000       -11.0118           1.178546           1.178546           5.432516
    3    2         7.600000       -87.3182           0.624117           0.624117           3.541422
    3    0         6.400000       -61.9209           0.061166           1.081887           4.306510
    4    3        11.600000      -114.4238           0.731621           0.731621           3.584982
    3    1         6.200000       -58.1113           0.255677           1.030255           4.306510
    3    2         5.600000       -47.4081           0.847222           0.847222           4.413102
    5    4        17.600000      -168.5799           0.749730           0.749730           3.372413
    1    0         0.750000        -7.6499           0.705275           0.705275           5.366508
 

  Adding cutoff potential to free-atom effective potential.
  Creating atomic-like basis functions for current effective potential.

  Species H                   :

  List of atomic basis orbitals and eigenvalues:
    n    l      energy [Ha]    energy [eV]    outer radius [A]
    1    0        -0.241374        -6.5681       5.372934


  Species O                   :

  List of atomic basis orbitals and eigenvalues:
    n    l      energy [Ha]    energy [eV]    outer radius [A]
    1    0       -18.944147      -515.4965       1.415745
    2    0        -0.883529       -24.0421       5.048305
    2    1        -0.330173        -8.9845       5.301302

  Assembling full basis from fixed parts.
  | Species H :   atomic orbital   1 s accepted.
  | Species H :    hydro orbital   2 s accepted.
  | Species H :    hydro orbital   1 s accepted.
  | Species H :    hydro orbital   2 s accepted.
  | Species H :    hydro orbital   2 p accepted.
  | Species H :    hydro orbital   2 p accepted.
  | Species H :    hydro orbital   3 d accepted.
  | Species O :   atomic orbital   1 s accepted.
  | Species O :    hydro orbital   3 s accepted.
  | Species O :   atomic orbital   2 s accepted.
  | Species O :    hydro orbital   1 s accepted.
  | Species O :    hydro orbital   3 p accepted.
  | Species O :   atomic orbital   2 p accepted.
  | Species O :    hydro orbital   2 p accepted.
  | Species O :    hydro orbital   3 d accepted.
  | Species O :    hydro orbital   3 d accepted.
  | Species O :    hydro orbital   4 f accepted.
  | Species O :    hydro orbital   5 g accepted.
 
  Basis size parameters after reduction:
  | Total number of radial functions:       18
  | Total number of basis functions :      138
 
  Testing on-site integration grid accuracy.
  |  Species  Function  <phi|h_atom|phi> (log., in eV)  <phi|h_atom|phi> (rad., in eV)
           1        1                 -6.5683835025                 -6.5684759159
           1        2                 13.3711789951                 13.3708738703
           1        3                 23.6590910787                 23.6532055418
           1        4                 16.2963827186                 16.1870710655 ***
           1        5                 28.7627214838                 28.7627215090
           1        6                 59.5965249172                 59.5965950857
           1        7                 60.2220506392                 60.2220503827
           2        8               -515.4964576505               -515.4964530710
           2        9                 15.3030791347                 15.3030722972
           2       10                -21.7296094581                -21.7296135470
           2       11                 14.2969371730                 14.2969701621
           2       12                 21.0679693190                 21.0679697493
           2       13                 -2.3833606469                 -2.3833613176
           2       14                 13.7067136422                 13.7066766629
           2       15                 45.8013116808                 45.8013116965
           2       16                 52.2309815402                 52.2309831494
           2       17                 85.4120732416                 85.4120732763
           2       18                142.1019167745                142.1019167817
 * Note: Onsite integrals marked "***" above are less accurate than
 * onsite_accuracy_threshold =    0.03000 eV. Usually, this is harmless.
 * When in doubt, tighten the "radial" and/or "radial_multiplier" flags to check.

  Preparing densities etc. for the partition functions (integrals / Hartree potential).

  Preparations completed.
  max(cpu_time)          :      0.171 s.
  Wall clock time (cpu1) :      0.547 s.
------------------------------------------------------------

------------------------------------------------------------
          Begin self-consistency loop: Initialization.

          Date     :  20150727, Time     :  124035.144
------------------------------------------------------------

  Initializing index lists of integration centers etc. from given atomic structure:
  | Number of centers in hartree potential         :         6
  | Number of centers in hartree multipole         :         6
  | Number of centers in electron density summation:         6
  | Number of centers in basis integrals           :         6
  | Number of centers in integrals                 :         6
  Partitioning the integration grid into batches with parallel hashing+maxmin method.
  | Number of batches:      837
  | Maximal batch size:     194
  | Minimal batch size:      53
  | Average batch size:      94.007
  | Standard deviation of batch sizes:      30.213

  Integration load balanced across     8 MPI tasks.
  Work distribution over tasks is as follows:
  Task     0 has       9814 integration points.
  Task     1 has       9814 integration points.
  Task     2 has       9764 integration points.
  Task     3 has       9856 integration points.
  Task     4 has       9843 integration points.
  Task     5 has       9843 integration points.
  Task     6 has       9872 integration points.
  Task     7 has       9878 integration points.
  Initializing partition tables, free-atom densities, potentials, etc. across the integration grid (initialize_grid_storage).
  | Net number of integration points:    78684
  | of which are non-zero points    :    78217
  Obtaining max. number of non-zero basis functions in each batch (get_n_compute_maxes).
  | Maximal number of non-zero basis functions:      137 in task     0
  | Maximal number of non-zero basis functions:      137 in task     1
  | Maximal number of non-zero basis functions:      137 in task     2
  | Maximal number of non-zero basis functions:      137 in task     3
  | Maximal number of non-zero basis functions:      137 in task     4
  | Maximal number of non-zero basis functions:      137 in task     5
  | Maximal number of non-zero basis functions:      137 in task     6
  | Maximal number of non-zero basis functions:      137 in task     7
  Integrating Hamiltonian matrix: batch-based integration.
  Time summed over all CPUs for integration: real work        0.916 s, elapsed        0.969 s
  Integrating overlap matrix.
  Time summed over all CPUs for integration: real work        0.455 s, elapsed        0.478 s

  Updating Kohn-Sham eigenvalues, eigenvectors, occupation numbers, and Fermi level.
  Solving generalized eigenproblem
  Updating Kohn-Sham eigenvalues and eigenfunctions.
  Transforming overlap matrix and checking for singularities.
  Overlap matrix is nonsingular:
  | Lowest eigenvalue:  0.553257E-03
  Solving real generalised eigenvalue problem by standard LAPACK (fast)
  Determining occupation numbers for Kohn-Sham eigenstates.
  | Chemical potential (Fermi level) in eV                 : -.98880498E+01
  | Error in electron count due to remaining E_F inaccuracy: 0.00000000E+00
  | Maximum occupation number of highest empty state:  0.00E+00

  Writing Kohn-Sham eigenvalues.

  State    Occupation    Eigenvalue [Ha]    Eigenvalue [eV]
      1       2.00000         -19.028654         -517.79603
      2       2.00000         -19.019183         -517.53831
      3       2.00000          -1.060005          -28.84420
      4       2.00000          -1.042739          -28.37436
      5       2.00000          -0.590369          -16.06476
      6       2.00000          -0.569517          -15.49734
      7       2.00000          -0.487676          -13.27034
      8       2.00000          -0.478861          -13.03046
      9       2.00000          -0.417362          -11.35700
     10       2.00000          -0.409149          -11.13351
     11       0.00000          -0.088963           -2.42080
     12       0.00000          -0.072217           -1.96512
     13       0.00000          -0.022853           -0.62186
     14       0.00000          -0.012805           -0.34843
     15       0.00000           0.077390            2.10588
     16       0.00000           0.083164            2.26302
     17       0.00000           0.090133            2.45264
     18       0.00000           0.105682            2.87576
     19       0.00000           0.108627            2.95588
     20       0.00000           0.113662            3.09291
     21       0.00000           0.137736            3.74798
     22       0.00000           0.202822            5.51906
     23       0.00000           0.226005            6.14990
     24       0.00000           0.245960            6.69291
     25       0.00000           0.316644            8.61632
     26       0.00000           0.331428            9.01862
     27       0.00000           0.375525           10.21855
     28       0.00000           0.387323           10.53960
     29       0.00000           0.405614           11.03733
     30       0.00000           0.427279           11.62685
     31       0.00000           0.438536           11.93318
     32       0.00000           0.452776           12.32066
     33       0.00000           0.485295           13.20556
     34       0.00000           0.506064           13.77070

  Highest occupied state (VBM) at    -11.13350957 eV
  | Occupation number:      2.00000000

  Lowest unoccupied state (CBM) at    -2.42080154 eV
  | Occupation number:      0.00000000

  Overall HOMO-LUMO gap:      8.71270803 eV.
  Calculating total energy contributions from superposition of free atom densities.

  Total energy components:
  | Sum of eigenvalues            :         -86.20703052 Ha       -2345.81265414 eV
  | XC energy correction          :         -18.14506914 Ha        -493.75245327 eV
  | XC potential correction       :          23.17432950 Ha         630.60559055 eV
  | Free-atom electrostatic energy:         -72.03373547 Ha       -1960.13767294 eV
  | Hartree energy correction     :           0.00000000 Ha           0.00000000 eV
  | van der Waals energy corr.    :           0.00000000 Ha           0.00000000 eV
  | Entropy correction            :           0.00000000 Ha           0.00000000 eV
  | ---------------------------
  | Total energy                  :        -153.21150564 Ha       -4169.09718980 eV
  | Total energy, T -> 0          :        -153.21150564 Ha       -4169.09718980 eV  <-- do not rely on this value for anything but (periodic) metals
  | Electronic free energy        :        -153.21150564 Ha       -4169.09718980 eV

  Derived energy quantities:
  | Kinetic energy                :         151.52361029 Ha        4123.16722047 eV
  | Electrostatic energy          :        -286.59004679 Ha       -7798.51195700 eV
  | Energy correction for multipole
  | error in Hartree potential    :           0.00000000 Ha           0.00000000 eV
  | Sum of eigenvalues per atom                           :        -390.96877569 eV
  | Total energy (T->0) per atom                          :        -694.84953163 eV  <-- do not rely on this value for anything but (periodic) metals
  | Electronic free energy per atom                       :        -694.84953163 eV
  Initialize hartree_potential_storage
  Max. number of atoms included in rho_multipole:            6

  End scf initialization - timings             :  max(cpu_time)    wall_clock(cpu1)
  | Time for scf. initialization               :        0.316 s           0.316 s
  | Boundary condition initialization          :        0.000 s           0.000 s
  | Integration                                :        0.182 s           0.182 s
  | Solution of K.-S. eqns.                    :        0.028 s           0.028 s
  | Grid partitioning                          :        0.053 s           0.053 s
  | Preloading free-atom quantities on grid    :        0.014 s           0.014 s
  | Free-atom superposition energy             :        0.016 s           0.016 s
  | Total energy evaluation                    :        0.000 s           0.000 s
------------------------------------------------------------

------------------------------------------------------------
          Begin self-consistency iteration #    1

  Date     :  20150727, Time     :  124035.460
------------------------------------------------------------
  Evaluating new KS density.
  Integration grid: deviation in total charge (<rho> - N_e) =  -7.105427E-15
  Pulay mixing of updated and previous charge densities.

  Evaluating partitioned Hartree potential by multipole expansion.
  | Analytical far-field extrapolation by fixed multipoles:
  | Hartree multipole sum: apparent total charge =  -0.870636E-06
  Summing up the Hartree potential.
  Time summed over all CPUs for potential: real work        0.429 s, elapsed        0.433 s
  | RMS charge density error from multipole expansion :   0.889891E-03

  Integrating Hamiltonian matrix: batch-based integration.
  Time summed over all CPUs for integration: real work        0.911 s, elapsed        0.953 s

  Updating Kohn-Sham eigenvalues, eigenvectors, occupation numbers, and Fermi level.
  Solving generalized eigenproblem
  Updating Kohn-Sham eigenvalues and eigenfunctions.
  Solving real generalised eigenvalue problem by standard LAPACK (fast)
  Determining occupation numbers for Kohn-Sham eigenstates.
  | Chemical potential (Fermi level) in eV                 : -.95089507E+01
  | Error in electron count due to remaining E_F inaccuracy: 0.00000000E+00
  | Maximum occupation number of highest empty state:  0.00E+00

  Writing Kohn-Sham eigenvalues.

  State    Occupation    Eigenvalue [Ha]    Eigenvalue [eV]
      1       2.00000         -18.954476         -515.77752
      2       2.00000         -18.945298         -515.52780
      3       2.00000          -1.023118          -27.84046
      4       2.00000          -1.004914          -27.34509
      5       2.00000          -0.559861          -15.23458
      6       2.00000          -0.538519          -14.65384
      7       2.00000          -0.450884          -12.26918
      8       2.00000          -0.441982          -12.02694
      9       2.00000          -0.378393          -10.29659
     10       2.00000          -0.369308          -10.04938
     11       0.00000          -0.080989           -2.20382
     12       0.00000          -0.064522           -1.75573
     13       0.00000          -0.014395           -0.39170
     14       0.00000          -0.004999           -0.13603
     15       0.00000           0.085067            2.31480
     16       0.00000           0.092613            2.52013
     17       0.00000           0.098563            2.68203
     18       0.00000           0.113245            3.08156
     19       0.00000           0.115427            3.14092
     20       0.00000           0.120102            3.26813
     21       0.00000           0.145907            3.97033
     22       0.00000           0.211157            5.74589
     23       0.00000           0.234144            6.37139
     24       0.00000           0.253898            6.90891
     25       0.00000           0.323140            8.79308
     26       0.00000           0.339009            9.22490
     27       0.00000           0.380476           10.35328
     28       0.00000           0.393579           10.70983
     29       0.00000           0.415187           11.29782
     30       0.00000           0.436254           11.87106
     31       0.00000           0.447239           12.16999
     32       0.00000           0.462007           12.57185
     33       0.00000           0.495723           13.48930
     34       0.00000           0.517189           14.07343

  Highest occupied state (VBM) at    -10.04937720 eV
  | Occupation number:      2.00000000

  Lowest unoccupied state (CBM) at    -2.20382234 eV
  | Occupation number:      0.00000000

  Overall HOMO-LUMO gap:      7.84555485 eV.

  Total energy components:
  | Sum of eigenvalues            :         -85.33350262 Ha       -2322.04275055 eV
  | XC energy correction          :         -18.23954874 Ha        -496.32337395 eV
  | XC potential correction       :          23.29863378 Ha         633.98808205 eV
  | Free-atom electrostatic energy:         -72.03373547 Ha       -1960.13767294 eV
  | Hartree energy correction     :          -0.84498888 Ha         -22.99331722 eV
  | van der Waals energy corr.    :           0.00000000 Ha           0.00000000 eV
  | Entropy correction            :           0.00000000 Ha           0.00000000 eV
  | ---------------------------
  | Total energy                  :        -153.15314194 Ha       -4167.50903262 eV
  | Total energy, T -> 0          :        -153.15314194 Ha       -4167.50903262 eV  <-- do not rely on this value for anything but (periodic) metals
  | Electronic free energy        :        -153.15314194 Ha       -4167.50903262 eV

  Derived energy quantities:
  | Kinetic energy                :         152.06821363 Ha        4137.98663124 eV
  | Electrostatic energy          :        -286.98180682 Ha       -7809.17228991 eV
  | Energy correction for multipole
  | error in Hartree potential    :          -0.00013748 Ha          -0.00374115 eV
  | Sum of eigenvalues per atom                           :        -387.00712509 eV
  | Total energy (T->0) per atom                          :        -694.58483877 eV  <-- do not rely on this value for anything but (periodic) metals
  | Electronic free energy per atom                       :        -694.58483877 eV

  Self-consistency convergence accuracy:
  | Change of charge density      : 0.4100E+00
  | Change of sum of eigenvalues  : 0.2377E+02 eV
  | Change of total energy        : 0.1588E+01 eV

  End self-consistency iteration #     1       :  max(cpu_time)    wall_clock(cpu1)
  | Time for this iteration                    :        0.271 s           0.271 s
  | Charge density update                      :        0.086 s           0.086 s
  | Density mixing                             :        0.001 s           0.001 s
  | Hartree multipole update                   :        0.002 s           0.002 s
  | Hartree multipole summation                :        0.054 s           0.054 s
  | Integration                                :        0.119 s           0.119 s
  | Solution of K.-S. eqns.                    :        0.007 s           0.007 s
  | Total energy evaluation                    :        0.000 s           0.000 s
------------------------------------------------------------

------------------------------------------------------------
          Begin self-consistency iteration #    2

  Date     :  20150727, Time     :  124035.731
------------------------------------------------------------
  Evaluating new KS density.
  Integration grid: deviation in total charge (<rho> - N_e) =  -3.552714E-15
  Pulay mixing of updated and previous charge densities.

  Evaluating partitioned Hartree potential by multipole expansion.
  | Analytical far-field extrapolation by fixed multipoles:
  | Hartree multipole sum: apparent total charge =  -0.243537E-05
  Summing up the Hartree potential.
  Time summed over all CPUs for potential: real work        0.429 s, elapsed        0.433 s
  | RMS charge density error from multipole expansion :   0.336229E-02

  Integrating Hamiltonian matrix: batch-based integration.
  Time summed over all CPUs for integration: real work        0.911 s, elapsed        0.958 s

  Updating Kohn-Sham eigenvalues, eigenvectors, occupation numbers, and Fermi level.
  Solving generalized eigenproblem
  Updating Kohn-Sham eigenvalues and eigenfunctions.
  Solving real generalised eigenvalue problem by standard LAPACK (fast)
  Determining occupation numbers for Kohn-Sham eigenstates.
  | Chemical potential (Fermi level) in eV                 : -.23502914E+01
  | Error in electron count due to remaining E_F inaccuracy: 0.00000000E+00
  | Maximum occupation number of highest empty state:  0.00E+00

  Highest occupied state (VBM) at     -7.75900375 eV
  | Occupation number:      2.00000000

  Lowest unoccupied state (CBM) at    -1.72276068 eV
  | Occupation number:      0.00000000

  Overall HOMO-LUMO gap:      6.03624308 eV.

  Total energy components:
  | Sum of eigenvalues            :         -83.50280238 Ha       -2272.22686236 eV
  | XC energy correction          :         -18.44621678 Ha        -501.94709744 eV
  | XC potential correction       :          23.57038631 Ha         641.38284463 eV
  | Free-atom electrostatic energy:         -72.03373547 Ha       -1960.13767294 eV
  | Hartree energy correction     :          -2.68041768 Ha         -72.93787609 eV
  | van der Waals energy corr.    :           0.00000000 Ha           0.00000000 eV
  | Entropy correction            :           0.00000000 Ha           0.00000000 eV
  | ---------------------------
  | Total energy                  :        -153.09278601 Ha       -4165.86666419 eV
  | Total energy, T -> 0          :        -153.09278601 Ha       -4165.86666419 eV  <-- do not rely on this value for anything but (periodic) metals
  | Electronic free energy        :        -153.09278601 Ha       -4165.86666419 eV

  Derived energy quantities:
  | Kinetic energy                :         153.02278803 Ha        4163.96192229 eV
  | Electrostatic energy          :        -287.66935725 Ha       -7827.88148905 eV
  | Energy correction for multipole
  | error in Hartree potential    :          -0.00075114 Ha          -0.02043954 eV
  | Sum of eigenvalues per atom                           :        -378.70447706 eV
  | Total energy (T->0) per atom                          :        -694.31111070 eV  <-- do not rely on this value for anything but (periodic) metals
  | Electronic free energy per atom                       :        -694.31111070 eV

  Self-consistency convergence accuracy:
  | Change of charge density      : 0.3061E+00
  | Change of sum of eigenvalues  : 0.4982E+02 eV
  | Change of total energy        : 0.1642E+01 eV

  End self-consistency iteration #     2       :  max(cpu_time)    wall_clock(cpu1)
  | Time for this iteration                    :        0.271 s           0.271 s
  | Charge density update                      :        0.084 s           0.084 s
  | Density mixing                             :        0.003 s           0.002 s
  | Hartree multipole update                   :        0.002 s           0.002 s
  | Hartree multipole summation                :        0.055 s           0.055 s
  | Integration                                :        0.120 s           0.120 s
  | Solution of K.-S. eqns.                    :        0.006 s           0.006 s
  | Total energy evaluation                    :        0.000 s           0.000 s
------------------------------------------------------------

------------------------------------------------------------
          Begin self-consistency iteration #    3

  Date     :  20150727, Time     :  124036.002
------------------------------------------------------------
  Evaluating new KS density.
  Integration grid: deviation in total charge (<rho> - N_e) =  -1.065814E-14
  Pulay mixing of updated and previous charge densities.

  Evaluating partitioned Hartree potential by multipole expansion.
  | Analytical far-field extrapolation by fixed multipoles:
  | Hartree multipole sum: apparent total charge =  -0.257931E-05
  Summing up the Hartree potential.
  Time summed over all CPUs for potential: real work        0.429 s, elapsed        0.433 s
  | RMS charge density error from multipole expansion :   0.757798E-02

  Integrating Hamiltonian matrix: batch-based integration.
  Time summed over all CPUs for integration: real work        0.912 s, elapsed        0.963 s

  Updating Kohn-Sham eigenvalues, eigenvectors, occupation numbers, and Fermi level.
  Solving generalized eigenproblem
  Updating Kohn-Sham eigenvalues and eigenfunctions.
  Solving real generalised eigenvalue problem by standard LAPACK (fast)
  Determining occupation numbers for Kohn-Sham eigenstates.
  | Chemical potential (Fermi level) in eV                 : -.20332547E+01
  | Error in electron count due to remaining E_F inaccuracy: 0.00000000E+00
  | Maximum occupation number of highest empty state:  0.00E+00

  Highest occupied state (VBM) at     -7.64560692 eV
  | Occupation number:      2.00000000

  Lowest unoccupied state (CBM) at    -1.55481280 eV
  | Occupation number:      0.00000000

  Overall HOMO-LUMO gap:      6.09079412 eV.

  Total energy components:
  | Sum of eigenvalues            :         -83.60457369 Ha       -2274.99620055 eV
  | XC energy correction          :         -18.43436225 Ha        -501.62451922 eV
  | XC potential correction       :          23.55351881 Ha         640.92385665 eV
  | Free-atom electrostatic energy:         -72.03373547 Ha       -1960.13767294 eV
  | Hartree energy correction     :          -2.57095830 Ha         -69.95933488 eV
  | van der Waals energy corr.    :           0.00000000 Ha           0.00000000 eV
  | Entropy correction            :           0.00000000 Ha           0.00000000 eV
  | ---------------------------
  | Total energy                  :        -153.09011090 Ha       -4165.79387094 eV
  | Total energy, T -> 0          :        -153.09011090 Ha       -4165.79387094 eV  <-- do not rely on this value for anything but (periodic) metals
  | Electronic free energy        :        -153.09011090 Ha       -4165.79387094 eV

  Derived energy quantities:
  | Kinetic energy                :         152.14873771 Ha        4140.17780295 eV
  | Electrostatic energy          :        -286.80448636 Ha       -7804.34715467 eV
  | Energy correction for multipole
  | error in Hartree potential    :          -0.00280501 Ha          -0.07632814 eV
  | Sum of eigenvalues per atom                           :        -379.16603343 eV
  | Total energy (T->0) per atom                          :        -694.29897849 eV  <-- do not rely on this value for anything but (periodic) metals
  | Electronic free energy per atom                       :        -694.29897849 eV

  Self-consistency convergence accuracy:
  | Change of charge density      : 0.1681E+00
  | Change of sum of eigenvalues  : -.2769E+01 eV
  | Change of total energy        : 0.7279E-01 eV

  End self-consistency iteration #     3       :  max(cpu_time)    wall_clock(cpu1)
  | Time for this iteration                    :        0.273 s           0.272 s
  | Charge density update                      :        0.085 s           0.085 s
  | Density mixing                             :        0.003 s           0.003 s
  | Hartree multipole update                   :        0.002 s           0.002 s
  | Hartree multipole summation                :        0.055 s           0.055 s
  | Integration                                :        0.121 s           0.120 s
  | Solution of K.-S. eqns.                    :        0.006 s           0.007 s
  | Total energy evaluation                    :        0.001 s           0.000 s
------------------------------------------------------------

------------------------------------------------------------
          Begin self-consistency iteration #    4

  Date     :  20150727, Time     :  124036.275
------------------------------------------------------------
  Evaluating new KS density.
  Integration grid: deviation in total charge (<rho> - N_e) =  -3.552714E-15
  Pulay mixing of updated and previous charge densities.

  Evaluating partitioned Hartree potential by multipole expansion.
  | Analytical far-field extrapolation by fixed multipoles:
  | Hartree multipole sum: apparent total charge =  -0.322935E-05
  Summing up the Hartree potential.
  Time summed over all CPUs for potential: real work        0.429 s, elapsed        0.433 s
  | RMS charge density error from multipole expansion :   0.990999E-02

  Integrating Hamiltonian matrix: batch-based integration.
  Time summed over all CPUs for integration: real work        0.913 s, elapsed        0.963 s

  Updating Kohn-Sham eigenvalues, eigenvectors, occupation numbers, and Fermi level.
  Solving generalized eigenproblem
  Updating Kohn-Sham eigenvalues and eigenfunctions.
  Solving real generalised eigenvalue problem by standard LAPACK (fast)
  Determining occupation numbers for Kohn-Sham eigenstates.
  | Chemical potential (Fermi level) in eV                 : -.16029033E+01
  | Error in electron count due to remaining E_F inaccuracy: 0.00000000E+00
  | Maximum occupation number of highest empty state:  0.00E+00

  Highest occupied state (VBM) at     -6.65932839 eV
  | Occupation number:      2.00000000

  Lowest unoccupied state (CBM) at    -1.28300825 eV
  | Occupation number:      0.00000000

  Overall HOMO-LUMO gap:      5.37632014 eV.

  Total energy components:
  | Sum of eigenvalues            :         -82.88759686 Ha       -2255.48626837 eV
  | XC energy correction          :         -18.52442763 Ha        -504.07532275 eV
  | XC potential correction       :          23.67166974 Ha         644.13890694 eV
  | Free-atom electrostatic energy:         -72.03373547 Ha       -1960.13767294 eV
  | Hartree energy correction     :          -3.31100407 Ha         -90.09700473 eV
  | van der Waals energy corr.    :           0.00000000 Ha           0.00000000 eV
  | Entropy correction            :           0.00000000 Ha           0.00000000 eV
  | ---------------------------
  | Total energy                  :        -153.08509429 Ha       -4165.65736185 eV
  | Total energy, T -> 0          :        -153.08509429 Ha       -4165.65736185 eV  <-- do not rely on this value for anything but (periodic) metals
  | Electronic free energy        :        -153.08509429 Ha       -4165.65736185 eV

  Derived energy quantities:
  | Kinetic energy                :         152.25465935 Ha        4143.06007759 eV
  | Electrostatic energy          :        -286.81532602 Ha       -7804.64211669 eV
  | Energy correction for multipole
  | error in Hartree potential    :          -0.00369760 Ha          -0.10061687 eV
  | Sum of eigenvalues per atom                           :        -375.91437806 eV
  | Total energy (T->0) per atom                          :        -694.27622697 eV  <-- do not rely on this value for anything but (periodic) metals
  | Electronic free energy per atom                       :        -694.27622697 eV

  Self-consistency convergence accuracy:
  | Change of charge density      : 0.8922E-01
  | Change of sum of eigenvalues  : 0.1951E+02 eV
  | Change of total energy        : 0.1365E+00 eV

  End self-consistency iteration #     4       :  max(cpu_time)    wall_clock(cpu1)
  | Time for this iteration                    :        0.273 s           0.272 s
  | Charge density update                      :        0.084 s           0.084 s
  | Density mixing                             :        0.004 s           0.003 s
  | Hartree multipole update                   :        0.002 s           0.003 s
  | Hartree multipole summation                :        0.055 s           0.054 s
  | Integration                                :        0.121 s           0.121 s
  | Solution of K.-S. eqns.                    :        0.006 s           0.007 s
  | Total energy evaluation                    :        0.001 s           0.000 s
------------------------------------------------------------

------------------------------------------------------------
          Begin self-consistency iteration #    5

  Date     :  20150727, Time     :  124036.548
------------------------------------------------------------
  Evaluating new KS density.
  Integration grid: deviation in total charge (<rho> - N_e) =   3.552714E-14
  Pulay mixing of updated and previous charge densities.

  Evaluating partitioned Hartree potential by multipole expansion.
  | Analytical far-field extrapolation by fixed multipoles:
  | Hartree multipole sum: apparent total charge =  -0.314874E-05
  Summing up the Hartree potential.
  Time summed over all CPUs for potential: real work        0.429 s, elapsed        0.433 s
  | RMS charge density error from multipole expansion :   0.984044E-02

  Integrating Hamiltonian matrix: batch-based integration.
  Time summed over all CPUs for integration: real work        0.910 s, elapsed        0.957 s

  Updating Kohn-Sham eigenvalues, eigenvectors, occupation numbers, and Fermi level.
  Solving generalized eigenproblem
  Updating Kohn-Sham eigenvalues and eigenfunctions.
  Solving real generalised eigenvalue problem by standard LAPACK (fast)
  Determining occupation numbers for Kohn-Sham eigenstates.
  | Chemical potential (Fermi level) in eV                 : -.16388057E+01
  | Error in electron count due to remaining E_F inaccuracy: 0.00000000E+00
  | Maximum occupation number of highest empty state:  0.00E+00

  Highest occupied state (VBM) at     -6.68312308 eV
  | Occupation number:      2.00000000

  Lowest unoccupied state (CBM) at    -1.30572453 eV
  | Occupation number:      0.00000000

  Overall HOMO-LUMO gap:      5.37739855 eV.

  Total energy components:
  | Sum of eigenvalues            :         -82.94331492 Ha       -2257.00243392 eV
  | XC energy correction          :         -18.51725945 Ha        -503.88026677 eV
  | XC potential correction       :          23.66212994 Ha         643.87931579 eV
  | Free-atom electrostatic energy:         -72.03373547 Ha       -1960.13767294 eV
  | Hartree energy correction     :          -3.25278544 Ha         -88.51279518 eV
  | van der Waals energy corr.    :           0.00000000 Ha           0.00000000 eV
  | Entropy correction            :           0.00000000 Ha           0.00000000 eV
  | ---------------------------
  | Total energy                  :        -153.08496534 Ha       -4165.65385302 eV
  | Total energy, T -> 0          :        -153.08496534 Ha       -4165.65385302 eV  <-- do not rely on this value for anything but (periodic) metals
  | Electronic free energy        :        -153.08496534 Ha       -4165.65385302 eV

  Derived energy quantities:
  | Kinetic energy                :         152.26860048 Ha        4143.43943486 eV
  | Electrostatic energy          :        -286.83630637 Ha       -7805.21302111 eV
  | Energy correction for multipole
  | error in Hartree potential    :          -0.00359214 Ha          -0.09774698 eV
  | Sum of eigenvalues per atom                           :        -376.16707232 eV
  | Total energy (T->0) per atom                          :        -694.27564217 eV  <-- do not rely on this value for anything but (periodic) metals
  | Electronic free energy per atom                       :        -694.27564217 eV

  Self-consistency convergence accuracy:
  | Change of charge density      : 0.1383E-01
  | Change of sum of eigenvalues  : -.1516E+01 eV
  | Change of total energy        : 0.3509E-02 eV

  End self-consistency iteration #     5       :  max(cpu_time)    wall_clock(cpu1)
  | Time for this iteration                    :        0.273 s           0.273 s
  | Charge density update                      :        0.085 s           0.085 s
  | Density mixing                             :        0.004 s           0.003 s
  | Hartree multipole update                   :        0.002 s           0.003 s
  | Hartree multipole summation                :        0.055 s           0.054 s
  | Integration                                :        0.120 s           0.121 s
  | Solution of K.-S. eqns.                    :        0.006 s           0.006 s
  | Total energy evaluation                    :        0.000 s           0.001 s
------------------------------------------------------------

------------------------------------------------------------
          Begin self-consistency iteration #    6

  Date     :  20150727, Time     :  124036.821
------------------------------------------------------------
  Evaluating new KS density.
  Integration grid: deviation in total charge (<rho> - N_e) =  -1.421085E-14
  Pulay mixing of updated and previous charge densities.

  Evaluating partitioned Hartree potential by multipole expansion.
  | Analytical far-field extrapolation by fixed multipoles:
  | Hartree multipole sum: apparent total charge =  -0.318191E-05
  Summing up the Hartree potential.
  Time summed over all CPUs for potential: real work        0.429 s, elapsed        0.433 s
  | RMS charge density error from multipole expansion :   0.100310E-01

  Integrating Hamiltonian matrix: batch-based integration.
  Time summed over all CPUs for integration: real work        0.909 s, elapsed        0.957 s

  Updating Kohn-Sham eigenvalues, eigenvectors, occupation numbers, and Fermi level.
  Solving generalized eigenproblem
  Updating Kohn-Sham eigenvalues and eigenfunctions.
  Solving real generalised eigenvalue problem by standard LAPACK (fast)
  Determining occupation numbers for Kohn-Sham eigenstates.
  | Chemical potential (Fermi level) in eV                 : -.16140386E+01
  | Error in electron count due to remaining E_F inaccuracy: 0.00000000E+00
  | Maximum occupation number of highest empty state:  0.00E+00

  Highest occupied state (VBM) at     -6.63043742 eV
  | Occupation number:      2.00000000

  Lowest unoccupied state (CBM) at    -1.28705203 eV
  | Occupation number:      0.00000000

  Overall HOMO-LUMO gap:      5.34338539 eV.

  Total energy components:
  | Sum of eigenvalues            :         -82.90496128 Ha       -2255.95877847 eV
  | XC energy correction          :         -18.52229098 Ha        -504.01718172 eV
  | XC potential correction       :          23.66868977 Ha         644.05781799 eV
  | Free-atom electrostatic energy:         -72.03373547 Ha       -1960.13767294 eV
  | Hartree energy correction     :          -3.29271887 Ha         -89.59943930 eV
  | van der Waals energy corr.    :           0.00000000 Ha           0.00000000 eV
  | Entropy correction            :           0.00000000 Ha           0.00000000 eV
  | ---------------------------
  | Total energy                  :        -153.08501684 Ha       -4165.65525444 eV
  | Total energy, T -> 0          :        -153.08501684 Ha       -4165.65525444 eV  <-- do not rely on this value for anything but (periodic) metals
  | Electronic free energy        :        -153.08501684 Ha       -4165.65525444 eV

  Derived energy quantities:
  | Kinetic energy                :         152.27352591 Ha        4143.57346260 eV
  | Electrostatic energy          :        -286.83625177 Ha       -7805.21153532 eV
  | Energy correction for multipole
  | error in Hartree potential    :          -0.00364655 Ha          -0.09922761 eV
  | Sum of eigenvalues per atom                           :        -375.99312974 eV
  | Total energy (T->0) per atom                          :        -694.27587574 eV  <-- do not rely on this value for anything but (periodic) metals
  | Electronic free energy per atom                       :        -694.27587574 eV

  Self-consistency convergence accuracy:
  | Change of charge density      : 0.5336E-02
  | Change of sum of eigenvalues  : 0.1044E+01 eV
  | Change of total energy        : -.1401E-02 eV

  End self-consistency iteration #     6       :  max(cpu_time)    wall_clock(cpu1)
  | Time for this iteration                    :        0.272 s           0.272 s
  | Charge density update                      :        0.084 s           0.083 s
  | Density mixing                             :        0.004 s           0.005 s
  | Hartree multipole update                   :        0.002 s           0.002 s
  | Hartree multipole summation                :        0.055 s           0.055 s
  | Integration                                :        0.120 s           0.120 s
  | Solution of K.-S. eqns.                    :        0.007 s           0.006 s
  | Total energy evaluation                    :        0.000 s           0.000 s
------------------------------------------------------------

------------------------------------------------------------
          Begin self-consistency iteration #    7

  Date     :  20150727, Time     :  124037.093
------------------------------------------------------------
  Evaluating new KS density.
  Integration grid: deviation in total charge (<rho> - N_e) =  -3.552714E-15
  Pulay mixing of updated and previous charge densities.

  Evaluating partitioned Hartree potential by multipole expansion.
  | Analytical far-field extrapolation by fixed multipoles:
  | Hartree multipole sum: apparent total charge =  -0.308471E-05
  Summing up the Hartree potential.
  Time summed over all CPUs for potential: real work        0.429 s, elapsed        0.433 s
  | RMS charge density error from multipole expansion :   0.100130E-01

  Integrating Hamiltonian matrix: batch-based integration.
  Time summed over all CPUs for integration: real work        0.905 s, elapsed        0.958 s

  Updating Kohn-Sham eigenvalues, eigenvectors, occupation numbers, and Fermi level.
  Solving generalized eigenproblem
  Updating Kohn-Sham eigenvalues and eigenfunctions.
  Solving real generalised eigenvalue problem by standard LAPACK (fast)
  Determining occupation numbers for Kohn-Sham eigenstates.
  | Chemical potential (Fermi level) in eV                 : -.16534116E+01
  | Error in electron count due to remaining E_F inaccuracy: 0.00000000E+00
  | Maximum occupation number of highest empty state:  0.00E+00

  Highest occupied state (VBM) at     -6.71711637 eV
  | Occupation number:      2.00000000

  Lowest unoccupied state (CBM) at    -1.31152554 eV
  | Occupation number:      0.00000000

  Overall HOMO-LUMO gap:      5.40559083 eV.

  Total energy components:
  | Sum of eigenvalues            :         -82.96132470 Ha       -2257.49250496 eV
  | XC energy correction          :         -18.51496669 Ha        -503.81787761 eV
  | XC potential correction       :          23.65887809 Ha         643.79082865 eV
  | Free-atom electrostatic energy:         -72.03373547 Ha       -1960.13767294 eV
  | Hartree energy correction     :          -3.23380695 Ha         -87.99636427 eV
  | van der Waals energy corr.    :           0.00000000 Ha           0.00000000 eV
  | Entropy correction            :           0.00000000 Ha           0.00000000 eV
  | ---------------------------
  | Total energy                  :        -153.08495571 Ha       -4165.65359113 eV
  | Total energy, T -> 0          :        -153.08495571 Ha       -4165.65359113 eV  <-- do not rely on this value for anything but (periodic) metals
  | Electronic free energy        :        -153.08495571 Ha       -4165.65359113 eV

  Derived energy quantities:
  | Kinetic energy                :         152.30084976 Ha        4144.31698252 eV
  | Electrostatic energy          :        -286.87083879 Ha       -7806.15269604 eV
  | Energy correction for multipole
  | error in Hartree potential    :          -0.00351340 Ha          -0.09560448 eV
  | Sum of eigenvalues per atom                           :        -376.24875083 eV
  | Total energy (T->0) per atom                          :        -694.27559852 eV  <-- do not rely on this value for anything but (periodic) metals
  | Electronic free energy per atom                       :        -694.27559852 eV

  Self-consistency convergence accuracy:
  | Change of charge density      : 0.7730E-02
  | Change of sum of eigenvalues  : -.1534E+01 eV
  | Change of total energy        : 0.1663E-02 eV

  End self-consistency iteration #     7       :  max(cpu_time)    wall_clock(cpu1)
  | Time for this iteration                    :        0.273 s           0.273 s
  | Charge density update                      :        0.084 s           0.084 s
  | Density mixing                             :        0.005 s           0.005 s
  | Hartree multipole update                   :        0.002 s           0.002 s
  | Hartree multipole summation                :        0.055 s           0.055 s
  | Integration                                :        0.120 s           0.120 s
  | Solution of K.-S. eqns.                    :        0.007 s           0.007 s
  | Total energy evaluation                    :        0.000 s           0.000 s
------------------------------------------------------------

------------------------------------------------------------
          Begin self-consistency iteration #    8

  Date     :  20150727, Time     :  124037.366
------------------------------------------------------------
  Evaluating new KS density.
  Integration grid: deviation in total charge (<rho> - N_e) =   1.065814E-14
  Pulay mixing of updated and previous charge densities.

  Evaluating partitioned Hartree potential by multipole expansion.
  | Analytical far-field extrapolation by fixed multipoles:
  | Hartree multipole sum: apparent total charge =  -0.308226E-05
  Summing up the Hartree potential.
  Time summed over all CPUs for potential: real work        0.429 s, elapsed        0.433 s
  | RMS charge density error from multipole expansion :   0.100156E-01

  Integrating Hamiltonian matrix: batch-based integration.
  Time summed over all CPUs for integration: real work        0.906 s, elapsed        0.955 s

  Updating Kohn-Sham eigenvalues, eigenvectors, occupation numbers, and Fermi level.
  Solving generalized eigenproblem
  Updating Kohn-Sham eigenvalues and eigenfunctions.
  Solving real generalised eigenvalue problem by standard LAPACK (fast)
  Determining occupation numbers for Kohn-Sham eigenstates.
  | Chemical potential (Fermi level) in eV                 : -.16543373E+01
  | Error in electron count due to remaining E_F inaccuracy: 0.00000000E+00
  | Maximum occupation number of highest empty state:  0.00E+00

  Highest occupied state (VBM) at     -6.71803933 eV
  | Occupation number:      2.00000000

  Lowest unoccupied state (CBM) at    -1.31202612 eV
  | Occupation number:      0.00000000

  Overall HOMO-LUMO gap:      5.40601322 eV.

  Total energy components:
  | Sum of eigenvalues            :         -82.96298883 Ha       -2257.53778821 eV
  | XC energy correction          :         -18.51476480 Ha        -503.81238393 eV
  | XC potential correction       :          23.65860835 Ha         643.78348853 eV
  | Free-atom electrostatic energy:         -72.03373547 Ha       -1960.13767294 eV
  | Hartree energy correction     :          -3.23207481 Ha         -87.94923036 eV
  | van der Waals energy corr.    :           0.00000000 Ha           0.00000000 eV
  | Entropy correction            :           0.00000000 Ha           0.00000000 eV
  | ---------------------------
  | Total energy                  :        -153.08495556 Ha       -4165.65358692 eV
  | Total energy, T -> 0          :        -153.08495556 Ha       -4165.65358692 eV  <-- do not rely on this value for anything but (periodic) metals
  | Electronic free energy        :        -153.08495556 Ha       -4165.65358692 eV

  Derived energy quantities:
  | Kinetic energy                :         152.30042832 Ha        4144.30551446 eV
  | Electrostatic energy          :        -286.87061908 Ha       -7806.14671745 eV
  | Energy correction for multipole
  | error in Hartree potential    :          -0.00351120 Ha          -0.09554459 eV
  | Sum of eigenvalues per atom                           :        -376.25629803 eV
  | Total energy (T->0) per atom                          :        -694.27559782 eV  <-- do not rely on this value for anything but (periodic) metals
  | Electronic free energy per atom                       :        -694.27559782 eV

  Self-consistency convergence accuracy:
  | Change of charge density      : 0.5899E-03
  | Change of sum of eigenvalues  : -.4528E-01 eV
  | Change of total energy        : 0.4211E-05 eV

  End self-consistency iteration #     8       :  max(cpu_time)    wall_clock(cpu1)
  | Time for this iteration                    :        0.273 s           0.273 s
  | Charge density update                      :        0.084 s           0.084 s
  | Density mixing                             :        0.005 s           0.005 s
  | Hartree multipole update                   :        0.003 s           0.002 s
  | Hartree multipole summation                :        0.054 s           0.055 s
  | Integration                                :        0.120 s           0.120 s
  | Solution of K.-S. eqns.                    :        0.007 s           0.006 s
  | Total energy evaluation                    :        0.000 s           0.000 s
------------------------------------------------------------

------------------------------------------------------------
          Begin self-consistency iteration #    9

  Date     :  20150727, Time     :  124037.639
------------------------------------------------------------
  Evaluating new KS density.
  Integration grid: deviation in total charge (<rho> - N_e) =   0.000000E+00
  Pulay mixing of updated and previous charge densities.

  Evaluating partitioned Hartree potential by multipole expansion.
  | Analytical far-field extrapolation by fixed multipoles:
  | Hartree multipole sum: apparent total charge =  -0.307781E-05
  Summing up the Hartree potential.
  Time summed over all CPUs for potential: real work        0.429 s, elapsed        0.433 s
  | RMS charge density error from multipole expansion :   0.100103E-01

  Integrating Hamiltonian matrix: batch-based integration.
  Time summed over all CPUs for integration: real work        0.905 s, elapsed        0.950 s

  Updating Kohn-Sham eigenvalues, eigenvectors, occupation numbers, and Fermi level.
  Solving generalized eigenproblem
  Updating Kohn-Sham eigenvalues and eigenfunctions.
  Solving real generalised eigenvalue problem by standard LAPACK (fast)
  Determining occupation numbers for Kohn-Sham eigenstates.
  | Chemical potential (Fermi level) in eV                 : -.16561237E+01
  | Error in electron count due to remaining E_F inaccuracy: 0.00000000E+00
  | Maximum occupation number of highest empty state:  0.00E+00

  Highest occupied state (VBM) at     -6.72270854 eV
  | Occupation number:      2.00000000

  Lowest unoccupied state (CBM) at    -1.31345824 eV
  | Occupation number:      0.00000000

  Overall HOMO-LUMO gap:      5.40925030 eV.

  Total energy components:
  | Sum of eigenvalues            :         -82.96532996 Ha       -2257.60149376 eV
  | XC energy correction          :         -18.51445464 Ha        -503.80394408 eV
  | XC potential correction       :          23.65819706 Ha         643.77229665 eV
  | Free-atom electrostatic energy:         -72.03373547 Ha       -1960.13767294 eV
  | Hartree energy correction     :          -3.22963200 Ha         -87.88275809 eV
  | van der Waals energy corr.    :           0.00000000 Ha           0.00000000 eV
  | Entropy correction            :           0.00000000 Ha           0.00000000 eV
  | ---------------------------
  | Total energy                  :        -153.08495502 Ha       -4165.65357222 eV
  | Total energy, T -> 0          :        -153.08495502 Ha       -4165.65357222 eV  <-- do not rely on this value for anything but (periodic) metals
  | Electronic free energy        :        -153.08495502 Ha       -4165.65357222 eV

  Derived energy quantities:
  | Kinetic energy                :         152.30145117 Ha        4144.33334776 eV
  | Electrostatic energy          :        -286.87195155 Ha       -7806.18297590 eV
  | Energy correction for multipole
  | error in Hartree potential    :          -0.00350262 Ha          -0.09531106 eV
  | Sum of eigenvalues per atom                           :        -376.26691563 eV
  | Total energy (T->0) per atom                          :        -694.27559537 eV  <-- do not rely on this value for anything but (periodic) metals
  | Electronic free energy per atom                       :        -694.27559537 eV

  Self-consistency convergence accuracy:
  | Change of charge density      : 0.3887E-03
  | Change of sum of eigenvalues  : -.6371E-01 eV
  | Change of total energy        : 0.1470E-04 eV

  End self-consistency iteration #     9       :  max(cpu_time)    wall_clock(cpu1)
  | Time for this iteration                    :        0.273 s           0.273 s
  | Charge density update                      :        0.084 s           0.084 s
  | Density mixing                             :        0.006 s           0.006 s
  | Hartree multipole update                   :        0.002 s           0.002 s
  | Hartree multipole summation                :        0.055 s           0.055 s
  | Integration                                :        0.119 s           0.119 s
  | Solution of K.-S. eqns.                    :        0.007 s           0.006 s
  | Total energy evaluation                    :        0.000 s           0.000 s
------------------------------------------------------------

------------------------------------------------------------
          Begin self-consistency iteration #   10

  Date     :  20150727, Time     :  124037.912
------------------------------------------------------------
  Evaluating new KS density.
  Integration grid: deviation in total charge (<rho> - N_e) =   1.065814E-14
  Pulay mixing of updated and previous charge densities.

  Evaluating partitioned Hartree potential by multipole expansion.
  | Analytical far-field extrapolation by fixed multipoles:
  | Hartree multipole sum: apparent total charge =  -0.307731E-05
  Summing up the Hartree potential.
  Time summed over all CPUs for potential: real work        0.429 s, elapsed        0.433 s
  | RMS charge density error from multipole expansion :   0.100108E-01

  Integrating Hamiltonian matrix: batch-based integration.
  Time summed over all CPUs for integration: real work        0.907 s, elapsed        0.955 s

  Updating Kohn-Sham eigenvalues, eigenvectors, occupation numbers, and Fermi level.
  Solving generalized eigenproblem
  Updating Kohn-Sham eigenvalues and eigenfunctions.
  Solving real generalised eigenvalue problem by standard LAPACK (fast)
  Determining occupation numbers for Kohn-Sham eigenstates.
  | Chemical potential (Fermi level) in eV                 : -.16561390E+01
  | Error in electron count due to remaining E_F inaccuracy: 0.00000000E+00
  | Maximum occupation number of highest empty state:  0.00E+00

  Highest occupied state (VBM) at     -6.72289480 eV
  | Occupation number:      2.00000000

  Lowest unoccupied state (CBM) at    -1.31339317 eV
  | Occupation number:      0.00000000

  Overall HOMO-LUMO gap:      5.40950163 eV.

  Total energy components:
  | Sum of eigenvalues            :         -82.96542803 Ha       -2257.60416224 eV
  | XC energy correction          :         -18.51444772 Ha        -503.80375559 eV
  | XC potential correction       :          23.65818780 Ha         643.77204484 eV
  | Free-atom electrostatic energy:         -72.03373547 Ha       -1960.13767294 eV
  | Hartree energy correction     :          -3.22953161 Ha         -87.88002628 eV
  | van der Waals energy corr.    :           0.00000000 Ha           0.00000000 eV
  | Entropy correction            :           0.00000000 Ha           0.00000000 eV
  | ---------------------------
  | Total energy                  :        -153.08495502 Ha       -4165.65357221 eV
  | Total energy, T -> 0          :        -153.08495502 Ha       -4165.65357221 eV  <-- do not rely on this value for anything but (periodic) metals
  | Electronic free energy        :        -153.08495502 Ha       -4165.65357221 eV

  Derived energy quantities:
  | Kinetic energy                :         152.30135005 Ha        4144.33059609 eV
  | Electrostatic energy          :        -286.87185735 Ha       -7806.18041270 eV
  | Energy correction for multipole
  | error in Hartree potential    :          -0.00350218 Ha          -0.09529924 eV
  | Sum of eigenvalues per atom                           :        -376.26736037 eV
  | Total energy (T->0) per atom                          :        -694.27559537 eV  <-- do not rely on this value for anything but (periodic) metals
  | Electronic free energy per atom                       :        -694.27559537 eV

  Self-consistency convergence accuracy:
  | Change of charge density      : 0.5843E-04
  | Change of sum of eigenvalues  : -.2668E-02 eV
  | Change of total energy        : 0.7176E-08 eV

  End self-consistency iteration #    10       :  max(cpu_time)    wall_clock(cpu1)
  | Time for this iteration                    :        0.274 s           0.274 s
  | Charge density update                      :        0.084 s           0.084 s
  | Density mixing                             :        0.007 s           0.006 s
  | Hartree multipole update                   :        0.002 s           0.003 s
  | Hartree multipole summation                :        0.055 s           0.054 s
  | Integration                                :        0.119 s           0.120 s
  | Solution of K.-S. eqns.                    :        0.007 s           0.007 s
  | Total energy evaluation                    :        0.000 s           0.000 s
------------------------------------------------------------

------------------------------------------------------------
          Begin self-consistency iteration #   11

  Date     :  20150727, Time     :  124038.186
------------------------------------------------------------
  Evaluating new KS density.
  Integration grid: deviation in total charge (<rho> - N_e) =  -3.552714E-15
  Pulay mixing of updated and previous charge densities.

  Evaluating partitioned Hartree potential by multipole expansion.
  | Analytical far-field extrapolation by fixed multipoles:
  | Hartree multipole sum: apparent total charge =  -0.307753E-05
  Summing up the Hartree potential.
  Time summed over all CPUs for potential: real work        0.429 s, elapsed        0.433 s
  | RMS charge density error from multipole expansion :   0.100108E-01

  Integrating Hamiltonian matrix: batch-based integration.
  Time summed over all CPUs for integration: real work        0.906 s, elapsed        0.950 s

  Updating Kohn-Sham eigenvalues, eigenvectors, occupation numbers, and Fermi level.
  Solving generalized eigenproblem
  Updating Kohn-Sham eigenvalues and eigenfunctions.
  Solving real generalised eigenvalue problem by standard LAPACK (fast)
  Determining occupation numbers for Kohn-Sham eigenstates.
  | Chemical potential (Fermi level) in eV                 : -.16560458E+01
  | Error in electron count due to remaining E_F inaccuracy: 0.00000000E+00
  | Maximum occupation number of highest empty state:  0.00E+00

  Highest occupied state (VBM) at     -6.72260823 eV
  | Occupation number:      2.00000000

  Lowest unoccupied state (CBM) at    -1.31333070 eV
  | Occupation number:      0.00000000

  Overall HOMO-LUMO gap:      5.40927753 eV.

[...]
      6       2.00000          -0.440521          -11.98719
      7       2.00000          -0.334762           -9.10933
      8       2.00000          -0.327607           -8.91465
      9       2.00000          -0.257073           -6.99532
     10       2.00000          -0.247046           -6.72247
     11       0.00000          -0.048262           -1.31329
     12       0.00000          -0.031871           -0.86726
     13       0.00000           0.017431            0.47432
     14       0.00000           0.027391            0.74534
     15       0.00000           0.122569            3.33527
     16       0.00000           0.134774            3.66739
     17       0.00000           0.136081            3.70295
     18       0.00000           0.148098            4.02994
     19       0.00000           0.151420            4.12034
     20       0.00000           0.157592            4.28829
     21       0.00000           0.182098            4.95514
     22       0.00000           0.246338            6.70321
     23       0.00000           0.269280            7.32748
     24       0.00000           0.288709            7.85617
     25       0.00000           0.357734            9.73445
     26       0.00000           0.377951           10.28457
     27       0.00000           0.410382           11.16707
     28       0.00000           0.427847           11.64232
     29       0.00000           0.461210           12.55016
     30       0.00000           0.481025           13.08936
     31       0.00000           0.491242           13.36737
     32       0.00000           0.508177           13.82821
     33       0.00000           0.546251           14.86424
     34       0.00000           0.570108           15.51344

  Highest occupied state (VBM) at     -6.72246509 eV
  | Occupation number:      2.00000000

  Lowest unoccupied state (CBM) at    -1.31328660 eV
  | Occupation number:      0.00000000

  Overall HOMO-LUMO gap:      5.40917849 eV.

  Self-consistency cycle converged.

  End self-consistency iteration #    14       :  max(cpu_time)    wall_clock(cpu1)
  | Time for this iteration                    :        0.684 s           0.684 s
  | Charge density & force component update    :        0.406 s           0.405 s
  | Density mixing                             :        0.007 s           0.007 s
  | Hartree multipole update                   :        0.002 s           0.002 s
  | Hartree multipole summation                :        0.143 s           0.143 s
  | Integration                                :        0.119 s           0.119 s
  | Solution of K.-S. eqns.                    :        0.007 s           0.007 s
  | Total energy evaluation                    :        0.000 s           0.001 s
------------------------------------------------------------
  Obtaining max. number of non-zero basis functions in each batch .
  Evaluating KS electron density on previously omitted grid points.
  Evaluating non-empirical van der Waals correction (Tkatchenko/Scheffler 2009).
  Performing Hirshfeld analysis of fragment charges and moments.
  ----------------------------------------------------------------------
  | Atom     1: O
  |   Hirshfeld charge        :     -0.28979952
  |   Free atom volume        :     23.95238533
  |   Hirshfeld volume        :     22.67296083
  |   Hirshfeld dipole vector :      0.02950868       0.04450055      -0.00591785
  |   Hirshfeld dipole moment :      0.05372227
  |   Hirshfeld second moments:      0.05226813      -0.02501634       0.02648312
  |                                 -0.02501634      -0.00741377      -0.02902522
  |                                  0.02648312      -0.02902522      -0.06512779
  ----------------------------------------------------------------------
  | Atom     2: H
  |   Hirshfeld charge        :      0.14905895
  |   Free atom volume        :     10.44207651
  |   Hirshfeld volume        :      6.46912158
  |   Hirshfeld dipole vector :     -0.06418985       0.09732632      -0.04087193
  |   Hirshfeld dipole moment :      0.12354458
  |   Hirshfeld second moments:      0.13112854       0.00534900       0.00299412
  |                                  0.00534900       0.10026121      -0.00194866
  |                                  0.00299412      -0.00194866       0.09422787
  ----------------------------------------------------------------------
  | Atom     3: H
  |   Hirshfeld charge        :      0.14007380
  |   Free atom volume        :     10.44207651
  |   Hirshfeld volume        :      6.60916522
  |   Hirshfeld dipole vector :      0.12374662       0.02331522       0.00936530
  |   Hirshfeld dipole moment :      0.12627167
  |   Hirshfeld second moments:      0.11180813      -0.01201934       0.00555099
  |                                 -0.01201934       0.11603379      -0.01314118
  |                                  0.00555099      -0.01314118       0.09092153
  ----------------------------------------------------------------------
  | Atom     4: O
  |   Hirshfeld charge        :     -0.29037847
  |   Free atom volume        :     23.95238533
  |   Hirshfeld volume        :     22.31966127
  |   Hirshfeld dipole vector :     -0.02670280       0.02482090       0.03875840
  |   Hirshfeld dipole moment :      0.05321025
  |   Hirshfeld second moments:     -0.01382650      -0.05303539       0.03138011
  |                                 -0.05303539      -0.01569731      -0.02538674
  |                                  0.03138011      -0.02538674       0.03720666
  ----------------------------------------------------------------------
  | Atom     5: H
  |   Hirshfeld charge        :      0.14521119
  |   Free atom volume        :     10.44207651
  |   Hirshfeld volume        :      6.32385486
  |   Hirshfeld dipole vector :      0.02079555      -0.01453127       0.12383330
  |   Hirshfeld dipole moment :      0.12640529
  |   Hirshfeld second moments:      0.11405114      -0.01960460       0.00560789
  |                                 -0.01960460       0.11394298      -0.00454967
  |                                  0.00560789      -0.00454967       0.10764907
  ----------------------------------------------------------------------
  | Atom     6: H
  |   Hirshfeld charge        :      0.14580179
  |   Free atom volume        :     10.44207651
  |   Hirshfeld volume        :      6.37123177
  |   Hirshfeld dipole vector :     -0.08801971       0.08623182      -0.02424096
  |   Hirshfeld dipole moment :      0.12558272
  |   Hirshfeld second moments:      0.10083747      -0.00643861       0.00586648
  |                                 -0.00643861       0.10017972      -0.00455840
  |                                  0.00586648      -0.00455840       0.13188107
  ----------------------------------------------------------------------


  Total energy components:
  | Sum of eigenvalues            :         -82.96512635 Ha       -2257.59595314 eV
  | XC energy correction          :         -18.51448219 Ha        -503.80469382 eV
  | XC potential correction       :          23.65823387 Ha         643.77329844 eV
  | Free-atom electrostatic energy:         -72.03373547 Ha       -1960.13767294 eV
  | Hartree energy correction     :          -3.22984488 Ha         -87.88855088 eV
  | van der Waals energy corr.    :          -0.00014501 Ha          -0.00394593 eV
  | Entropy correction            :           0.00000000 Ha           0.00000000 eV
  | ---------------------------
  | Total energy                  :        -153.08510003 Ha       -4165.65751827 eV
  | Total energy, T -> 0          :        -153.08510003 Ha       -4165.65751827 eV  <-- do not rely on this value for anything but (periodic) metals
  | Electronic free energy        :        -153.08510003 Ha       -4165.65751827 eV

  Derived energy quantities:
  | Kinetic energy                :         152.30136641 Ha        4144.33104132 eV
  | Electrostatic energy          :        -286.87183924 Ha       -7806.17991984 eV
  | Energy correction for multipole
  | error in Hartree potential    :          -0.00350255 Ha          -0.09530931 eV
  | Sum of eigenvalues per atom                           :        -376.26599219 eV
  | Total energy (T->0) per atom                          :        -694.27625304 eV  <-- do not rely on this value for anything but (periodic) metals
  | Electronic free energy per atom                       :        -694.27625304 eV

  atomic forces [eV/Ang]:
  -----------------------
  atom #    1
   Hellmann-Feynman + Multipole  : -.740918E+01 -.120156E+02 0.345458E+01
   Pulay + GGA                   : 0.717158E+01 0.156940E+02 -.484198E+01
   Van der Waals               : 0.712252E-04 0.136766E-02 0.246976E-02
   ----------------------------------------------------------------
   Total forces(   1)            : -.237529E+00 0.367974E+01 -.138493E+01
  atom #    2
   Hellmann-Feynman + Multipole  : 0.232240E+01 -.356549E+01 0.157968E+01
   Pulay + GGA                   : -.454230E-01 0.118128E+00 -.524579E-01
   Van der Waals               : 0.682971E-04 0.356459E-03 0.103696E-02
   ----------------------------------------------------------------
   Total forces(   2)            : 0.227704E+01 -.344701E+01 0.152826E+01
  atom #    3
   Hellmann-Feynman + Multipole  : -.219411E+01 -.286264E+00 -.147931E+00
   Pulay + GGA                   : 0.145615E+00 0.463403E-01 0.389890E-02
   Van der Waals               : -.205197E-03 0.560701E-03 0.123747E-02
   ----------------------------------------------------------------
   Total forces(   3)            : -.204870E+01 -.239362E+00 -.142794E+00
  atom #    4
   Hellmann-Feynman + Multipole  : 0.690432E+01 -.811620E+01 -.110021E+02
   Pulay + GGA                   : -.825375E+01 0.962038E+01 0.125281E+02
   Van der Waals               : -.522623E-04 -.157928E-02 -.346989E-02
   ----------------------------------------------------------------
   Total forces(   4)            : -.134949E+01 0.150260E+01 0.152252E+01
  atom #    5
   Hellmann-Feynman + Multipole  : -.489817E+00 0.331324E+00 -.229810E+01
   Pulay + GGA                   : 0.174081E-01 0.111162E-01 0.147387E+00
   Van der Waals               : 0.241017E-04 -.169005E-03 -.332187E-03
   ----------------------------------------------------------------
   Total forces(   5)            : -.472385E+00 0.342272E+00 -.215105E+01
  atom #    6
   Hellmann-Feynman + Multipole  : 0.193769E+01 -.194237E+01 0.659250E+00
   Pulay + GGA                   : -.102238E+00 0.106445E+00 -.178381E-01
   Van der Waals               : 0.938354E-04 -.536535E-03 -.942120E-03
   ----------------------------------------------------------------
   Total forces(   6)            : 0.183555E+01 -.183646E+01 0.640470E+00
  Timings for vdw_correction_hirshfeld (Tkatchenko-Scheffler 2009):
  | CPU time:        0.684 s, Wall clock time:        0.684 s.
  Removing unitary transformations (pure translations, rotations) from forces on atoms.
  Atomic forces before filtering:
  | Net force on center of mass :  0.448340E-02 0.177838E-02 0.124827E-01 eV/A
  | Net torque on center of mass:  0.336955E-03 -.140973E-01 0.398312E-02 eV
  Atomic forces after filtering:
  | Net force on center of mass :  -.356812E-15 -.356812E-15 -.892031E-16 eV/A
  | Net torque on center of mass:  0.151054E-14 0.151054E-14 -.377634E-15 eV
 
  Energy and forces in a compact form:
  | Total energy uncorrected      :         -0.416565751826887E+04 eV
  | Total energy corrected        :         -0.416565751826887E+04 eV  <-- do not rely on this value for anything but (periodic) metals
  | Electronic free energy        :         -0.416565751826887E+04 eV
  Total atomic forces (unitary forces cleaned) [eV/Ang]:
  |   1         -0.239038038250891E+00          0.367933478448851E+01         -0.138689953537003E+01
  |   2          0.227491635808646E+01         -0.344762833617797E+01          0.152659597187797E+01
  |   3         -0.205028558933170E+01         -0.239368037248689E+00         -0.145423148050088E+00
  |   4         -0.134934736907835E+01          0.150241821826693E+01          0.152032303278155E+01
  |   5         -0.471551413993948E+00          0.342177154257947E+00         -0.215332452824193E+01
  |   6          0.183530605256842E+01         -0.183693378358673E+01          0.638728207002521E+00
 
  ------------------------------------ 
  Start decomposition of the XC Energy 
  ------------------------------------ 
  Hartree-Fock part   :          0.000000000 Ha              0.000000000 eV
  ------------------------------------ 
  X Energy            :        -17.872934303 Ha           -486.347287461 eV
  C Energy GGA        :         -0.641547892 Ha            -17.457406361 eV
  Total XC Energy     :        -18.514482195 Ha           -503.804693822 eV
  LDA X and C from self-consistent density 
  X Energy LDA        :        -16.077354407 Ha           -437.487072516 eV
  C Energy LDA        :         -1.311224167 Ha            -35.680224974 eV
  ------------------------------------ 
  End decomposition of the XC Energy 
  ------------------------------------ 
  Performing Hirshfeld analysis of fragment charges and moments.
  ----------------------------------------------------------------------
  | Atom     1: O
  |   Hirshfeld charge        :     -0.28979952
  |   Free atom volume        :     23.95238533
  |   Hirshfeld volume        :     22.67296083
  |   Hirshfeld dipole vector :      0.02950868       0.04450055      -0.00591785
  |   Hirshfeld dipole moment :      0.05372227
  |   Hirshfeld second moments:      0.05226813      -0.02501634       0.02648312
  |                                 -0.02501634      -0.00741377      -0.02902522
  |                                  0.02648312      -0.02902522      -0.06512779
  ----------------------------------------------------------------------
  | Atom     2: H
  |   Hirshfeld charge        :      0.14905895
  |   Free atom volume        :     10.44207651
  |   Hirshfeld volume        :      6.46912158
  |   Hirshfeld dipole vector :     -0.06418985       0.09732632      -0.04087193
  |   Hirshfeld dipole moment :      0.12354458
  |   Hirshfeld second moments:      0.13112854       0.00534900       0.00299412
  |                                  0.00534900       0.10026121      -0.00194866
  |                                  0.00299412      -0.00194866       0.09422787
  ----------------------------------------------------------------------
  | Atom     3: H
  |   Hirshfeld charge        :      0.14007380
  |   Free atom volume        :     10.44207651
  |   Hirshfeld volume        :      6.60916522
  |   Hirshfeld dipole vector :      0.12374662       0.02331522       0.00936530
  |   Hirshfeld dipole moment :      0.12627167
  |   Hirshfeld second moments:      0.11180813      -0.01201934       0.00555099
  |                                 -0.01201934       0.11603379      -0.01314118
  |                                  0.00555099      -0.01314118       0.09092153
  ----------------------------------------------------------------------
  | Atom     4: O
  |   Hirshfeld charge        :     -0.29037847
  |   Free atom volume        :     23.95238533
  |   Hirshfeld volume        :     22.31966127
  |   Hirshfeld dipole vector :     -0.02670280       0.02482090       0.03875840
  |   Hirshfeld dipole moment :      0.05321025
  |   Hirshfeld second moments:     -0.01382650      -0.05303539       0.03138011
  |                                 -0.05303539      -0.01569731      -0.02538674
  |                                  0.03138011      -0.02538674       0.03720666
  ----------------------------------------------------------------------
  | Atom     5: H
  |   Hirshfeld charge        :      0.14521119
  |   Free atom volume        :     10.44207651
  |   Hirshfeld volume        :      6.32385486
  |   Hirshfeld dipole vector :      0.02079555      -0.01453127       0.12383330
  |   Hirshfeld dipole moment :      0.12640529
  |   Hirshfeld second moments:      0.11405114      -0.01960460       0.00560789
  |                                 -0.01960460       0.11394298      -0.00454967
  |                                  0.00560789      -0.00454967       0.10764907
  ----------------------------------------------------------------------
  | Atom     6: H
  |   Hirshfeld charge        :      0.14580179
  |   Free atom volume        :     10.44207651
  |   Hirshfeld volume        :      6.37123177
  |   Hirshfeld dipole vector :     -0.08801971       0.08623182      -0.02424096
  |   Hirshfeld dipole moment :      0.12558272
  |   Hirshfeld second moments:      0.10083747      -0.00643861       0.00586648
  |                                 -0.00643861       0.10017972      -0.00455840
  |                                  0.00586648      -0.00455840       0.13188107
  ----------------------------------------------------------------------


------------------------------------------------------------------------------
  Final output of selected total energy values:

  The following output summarizes some interesting total energy values
  at the end of a run (AFTER all relaxation, molecular dynamics, etc.).

  | Total energy of the DFT / Hartree-Fock s.c.f. calculation      :          -4165.657518269 eV
  | Final zero-broadening corrected energy (caution - metals only) :          -4165.657518269 eV
  | For reference only, the value of 1 Hartree used in FHI-aims is :             27.211384500 eV

  Before relying on these values, please be sure to understand exactly which
  total energy value is referred to by a given number. Different objects may
  all carry the same name 'total energy'. Definitions:

  Total energy of the DFT / Hartree-Fock s.c.f. calculation:
  | Note that this energy does not include ANY quantities calculated after the
  | s.c.f. cycle, in particular not ANY RPA, MP2, etc. many-body perturbation terms.

  Final zero-broadening corrected energy:
  | For metallic systems only, a broadening of the occupation numbers at the Fermi
  | level can be extrapolated back to zero broadening by an electron-gas inspired
  | formula. For all systems that are not real metals, this value can be
  | meaningless and should be avoided.

------------------------------------------------------------------------------

------------------------------------------------------------
          Leaving FHI-aims.
          Date     :  20150727, Time     :  124039.817

          Computational steps:
          | Number of self-consistency cycles          :           14

          Detailed time accounting                     :  max(cpu_time)    wall_clock(cpu1)
          | Total time                                 :        5.237 s           5.276 s
          | Preparation time                           :        0.171 s           0.547 s
          | Grid partitioning                          :        0.053 s           0.053 s
          | Preloading free-atom quantities on grid    :        0.014 s           0.014 s
          | Free-atom superposition energy             :        0.016 s           0.016 s
          | Total time for integrations                :        1.858 s           1.859 s
          | Total time for solution of K.-S. equations :        0.121 s           0.120 s
          | Total time for density & force components  :        1.501 s           1.500 s
          | Total time for mixing                      :        0.070 s           0.067 s
          | Total time for Hartree multipole update    :        0.031 s           0.031 s
          | Total time for Hartree multipole sum       :        0.942 s           0.942 s
          | Total time for total energy evaluation     :        0.003 s           0.003 s
          | Total time for scaled ZORA corrections     :        0.000 s           0.000 s
          | Total time for TS (2009) vdW correction    :        0.010 s           0.011 s

          Have a nice day.
------------------------------------------------------------
