  MPI-parallelism will be employed.
------------------------------------------------------------
          Invoking FHI-aims ...
          Version 081213
          Compiled on 2013/08/29 at 17:41:06 on host generoso.

          When using FHI-aims, please cite the following reference:

          Volker Blum, Ralf Gehrke, Felix Hanke, Paula Havu,
          Ville Havu, Xinguo Ren, Karsten Reuter, and Matthias Scheffler,
          'Ab Initio Molecular Simulations with Numeric Atom-Centered Orbitals: FHI-aims',
          Computer Physics Communications 180, 2175-2196 (2009)

          For any questions about FHI-aims, please visit the aimsclub website
          with its forums and wiki. Contributions to both the forums and the
          wiki are warmly encouraged - they are for you, and everyone is welcome there.

------------------------------------------------------------

  Date     :  20150727, Time     :  120151.575
  Time zero on CPU 1             :   0.419930000000000E-01  s.
  Internal wall clock time zero  :           207230511.575  s.

  Using        8 parallel tasks.
  Task        0 on host gen60 reporting.
  Task        1 on host gen60 reporting.
  Task        2 on host gen60 reporting.
  Task        3 on host gen60 reporting.
  Task        4 on host gen60 reporting.
  Task        5 on host gen60 reporting.
  Task        6 on host gen60 reporting.
  Task        7 on host gen60 reporting.

  Performing system and environment tests:
  | Environment variable OMP_NUM_THREADS correctly set to 1.
  | Checking for scalapack...
  | No scalapack compiled in.

  Obtaining array dimensions for all initial allocations:
  
  -----------------------------------------------------------------------
  Parsing control.in (first pass over file, find array dimensions only).
  The contents of control.in will be repeated verbatim below
  unless switched off by setting 'verbatim_writeout .false.' .
  in the first line of control.in .
  -----------------------------------------------------------------------
  
  #########################################################################################
  #
  #  Volker Blum, FHI 2008 : Test run input file control.in
  #
  #########################################################################################
  #
  #  Physical model
  #
    xc                 rpbe
    spin               none
    relativistic       atomic_zora scalar
    charge             0.
   vdw_correction_hirshfeld
  #
  #  SCF convergence
  #
    occupation_type    gaussian 0.01
    mixer              pulay
      n_max_pulay        10
      charge_mix_param   0.1
    sc_accuracy_rho    5E-5
    sc_accuracy_eev    5E-3
    sc_accuracy_etot   5E-6
    sc_iter_limit      3000
  #
  #  Eigenvalue solver
  #
    KS_method          lapack
      empty_states       8
      basis_threshold    0.e-5
  #
  #  Efficiency
  #
  #   all previous settings are now default, except stratmann still
  #   undecided. Continue to handle stratmann with care, if at all.
  #
  #  partition_type stratmann
    partition_type rho_r2
  #  hartree_partition_type stratmann
  #
  #  Oprions for large clusters (100's of atoms: memory saving / better scaling)
  #
  # for periodic systems:
  #
    density_update_method orbital
    packed_matrix_format none
  #  k_grid 6 6 6
  #  output k_eigenvalue 1
  #  distributed_spline_storage .true.
  #
  #  Relaxation
  #
  #  relax_geometry   bfgs 5.e-3
    sc_accuracy_forces 5.E-4
    final_forces_cleaned .true.
  #
  #  Output options
  #
  #  output mulliken
    output Hirshfeld
  #  output dipole
  
  #harmonic_length_scale 0.001
  
  ################################################################################
  #
  #  FHI-aims code project
  #  VB, Fritz-Haber Institut, 2007
  #
  #  Suggested "safe" defaults for H atom (to be pasted into control.in file)
  #  Basis constructed for a non-relativistic H2 molecule using the
  #  PW-LDA functional.
  #
  ################################################################################
    species        H
  #     global species definitions
      nucleus             1
      cut_pot             4.0  2.0  1.0
      cut_free_atom       finite 8.0
      logarithmic         0.00010000 100.00  1.0123
      basis_dep_cutoff    1d-4  # 1d-4 is safe default - please check 5d-4 if you wish!
      radial_base         24 7.0
      radial_multiplier   2
      angular_grids       specified
        division   0.2783  110
        division   0.3822  194
        division   0.5626  302
  #      division   0.5922  434
  #      division   0.6227  590
  #      division   0.7206  770
        outer_grid  302
      l_hartree           4
  ################################################################################
  #
  #  Definition of "minimal" basis
  #
  ################################################################################
  #     valence basis states
      valence      1  s   1.
  #     ion occupancy
      ion_occ      1  s   0.5
  ################################################################################
  #
  #  Suggested additional basis functions. For production calculations,
  #  uncomment them one after another (the most important basis functions are
  #  listed first).
  #
  ################################################################################
  #  "First tier" - improvements: -1014.90 meV to -62.69 meV
       hydro 2 s 2.1
       hydro 2 p 3.5
  #  "Second tier" - improvements: -12.89 meV to -1.83 meV
       hydro 1 s 0.85
       hydro 2 p 3.7
       hydro 2 s 1.2
       hydro 3 d 7
  #  "Third tier" - improvements: -0.25 meV to -0.12 meV
  #     hydro 4 f 11.2
  #     hydro 3 p 4.8
  #     hydro 4 d 9
  #     hydro 3 s 3.2
  
  ################################################################################
  #
  #  FHI-aims code project
  #  VB, Fritz-Haber Institut, 2007
  #
  #  Suggested "safe" defaults for O atom (to be pasted into control.in file)
  #  All values have been tested for a non-relativistic, non-spinpolarized O2
  #  molecule using the PW-LDA functional. Validity for PBE is expected.
  #
  #  Constructed for dimers: 1.0 A, 1.208 A, 1.5 A, 2.0 A, 3.0 A
  #
  ################################################################################
    species        O
  #     global species definitions
      nucleus             8
      mass                15.9994
      l_hartree           4
      cut_pot             4.0  2.0  1.0
      cut_free_atom       finite 8.0
      basis_dep_cutoff    1d-4  # 1d-4 is safe default - please check 5d-4 if you wish!
      logarithmic         0.00010000 100.00  1.0123
      radial_base         36 7.0
      radial_multiplier   2
       angular_grids specified
        division   0.4087  110
        division   0.5181  194
        division   0.6184  302
  #      division   0.7315  434
  #      division   0.7934  590
  #      division   0.9656  770
  #      division   1.4041  974
  #      outer_grid 974
        outer_grid 302
  ################################################################################
  #
  #  Definition of "minimal" basis
  #
  ################################################################################
  #     valence basis states
      valence      2  s   2.
      valence      2  p   4.
  #     ion occupancy
      ion_occ      2  s   1.
      ion_occ      2  p   3.
  ################################################################################
  #
  #  Suggested additional basis functions. For production calculations,
  #  uncomment them one after another (the most important basis functions are
  #  listed first).
  #
  ################################################################################
  #  "First tier" - improvements: -699.05 meV to -159.38 meV
       hydro 2 p 1.8
       hydro 3 d 7.6
       hydro 3 s 6.4
  #  "Second tier" - improvements: -49.91 meV to -5.39 meV
       hydro 4 f 11.6
       hydro 3 p 6.2
       hydro 3 d 5.6
       hydro 5 g 17.6
       hydro 1 s 0.75
  #  "Third tier" - improvements: -2.83 meV to -0.50 meV
  #     ionic 2 p auto
  #     hydro 4 f 10.8
  #     hydro 4 d 4.7
  #     hydro 2 s 6.8
  #  "Fourth tier" - improvements: -0.40 meV to -0.12 meV
  #     hydro 3 p 5
  #     hydro 3 s 3.3
  #     hydro 5 g 15.6
  #     hydro 4 f 17.6
  #     hydro 4 d 14
  # Further basis functions - -0.08 meV and below
  #     hydro 3 s 2.1
  #     hydro 4 d 11.6
  #     hydro 3 p 16
  #     hydro 2 s 17.2
  
  
  -----------------------------------------------------------------------
  Completed first pass over input file control.in .
  -----------------------------------------------------------------------
  
  
  -----------------------------------------------------------------------
  Parsing geometry.in (first pass over file, find array dimensions only).
  The contents of geometry.in will be repeated verbatim below
  unless switched off by setting 'verbatim_writeout .false.' .
  in the first line of geometry.in .
  -----------------------------------------------------------------------
  
  atom      -4.053030000      0.065001000     -1.525160000  O
  atom      -4.566710000      0.974813000     -1.912820000  H
  atom      -3.067820000      0.330172000     -1.477310000  H
  atom      -4.581760000     -0.256435000      0.939478000  O
  atom      -4.349860000      0.471090000      1.504340000  H
  atom      -5.393870000     -0.726611000      1.228070000  H
  atom      -1.645860000      0.870179000     -1.502250000  O
  atom      -1.568890000      1.501730000     -0.721051000  H
  atom      -0.824432000      0.282220000     -1.377720000  H
  atom      -3.818880000      2.024990000      2.187990000  O
  atom      -3.690880000      1.961360000      3.202150000  H
  atom      -4.546490000      2.751300000      2.045370000  H
  atom      -5.628340000      3.730740000      1.385610000  O
  atom      -6.090650000      4.418470000      1.860350000  H
  atom      -5.158540000      4.200260000      0.615875000  H
  
  -----------------------------------------------------------------------
  Completed first pass over input file geometry.in .
  -----------------------------------------------------------------------
  
 
  Basic array size parameters: 
  | Number of species                 :        2
  | Number of atoms                   :       15
  | Max. basis fn. angular momentum   :        4
  | Max. atomic/ionic basis occupied n:        2
  | Max. number of basis fn. types    :        2
  | Max. radial fns per species/type  :        8
  | Max. logarithmic grid size        :     1301
  | Max. radial integration grid size :       73
  | Max. angular integration grid size:      302
  | Max. angular grid division number :        8
  | Radial grid for Hartree potential :     1301
  | Number of spin channels           :        1

------------------------------------------------------------
          Reading file control.in.
------------------------------------------------------------
  XC: Using RPBE gradient-corrected functionals.
  Spin treatment: No spin polarisation.
  Scalar relativistic treatment of kinetic energy: on-site free-atom approximation to ZORA.
  Charge =   0.000000E+00: Neutral system requested explicitly.
  Using non-empirical van der Waals correction (Hirshfeld partitioning):
  Occupation type: Gaussian broadening, width =   0.100000E-01 eV.
  Using pulay charge density mixing.
  Pulay mixing - number of memorized iterations:   10
  Charge density mixing - mixing parameter:     0.1000
  Convergence accuracy of self-consistent charge density: 0.5000E-04
  Convergence accuracy of sum of eigenvalues: 0.5000E-02
  Convergence accuracy of total energy: 0.5000E-05
  Maximum number of s.-c. iterations  :  3000
  Kohn-Sham eigenvalues and eigenfunctions calculated by lapack diagonalisation (D&C).
  Number of empty states per atom:        8
  Threshold for basis singularities: 0.0000E+00
  Partition function in integrals calculations: rho / r^2
 Using packed matrix format           0
  Convergence accuracy of forces: 0.5000E-03
  Cleaning forces before final output.
  Hirshfeld charge analysis will be performed.
 
  Reading configuration options for species H                   .
  | Found nuclear charge :   1.0000
  | Found cutoff potl. onset [A], width [A], scale factor :    4.00000    2.00000    1.00000
  | Found cutoff specification for free atom: Cutoff potential begins at    8.00000 A.
  | Found logarithmic grid data [bohr] : 0.1000E-03 0.1000E+03 0.1012E+01
  | Threshold for basis-dependent cutoff potential is   0.100000E-03
  | Found data for basic radial integration grid :    24 points, outermost radius =    7.000 A
  | Found multiplier for basic radial grid :   2
  | Found angular grid specification: user-specified.
  | Specified grid contains     4 separate shells.
  | Check grid settings after all constraints further below.
  | Found l_max for Hartree potential  :   4
  | Found free-atom valence shell :  1 s   1.000
  | No ionic wave fns used. Skipping ion_occ.
  | Found hydrogenic basis function :  2 s   2.100
  | Found hydrogenic basis function :  2 p   3.500
  | Found hydrogenic basis function :  1 s   0.850
  | Found hydrogenic basis function :  2 p   3.700
  | Found hydrogenic basis function :  2 s   1.200
  | Found hydrogenic basis function :  3 d   7.000
  Species H                   : Missing cutoff potential type.
  Defaulting to exp(1/x)/(1-x)^2 type cutoff potential.
  Species H : On-site basis accuracy parameter (for Gram-Schmidt orthonormalisation) not specified.
  Using default value basis_acc =  0.1000000E-03.
  Species H                   : Using default innermost maximum threshold i_radial=  2 for radial functions.
  Species H                   : Basic radial grid will be enhanced according to radial_multiplier =   2, to contain    49 grid points.
 
  Reading configuration options for species O                   .
  | Found nuclear charge :   8.0000
  | Found atomic mass :    15.9994000000000      amu
  | Found l_max for Hartree potential  :   4
  | Found cutoff potl. onset [A], width [A], scale factor :    4.00000    2.00000    1.00000
  | Found cutoff specification for free atom: Cutoff potential begins at    8.00000 A.
  | Threshold for basis-dependent cutoff potential is   0.100000E-03
  | Found logarithmic grid data [bohr] : 0.1000E-03 0.1000E+03 0.1012E+01
  | Found data for basic radial integration grid :    36 points, outermost radius =    7.000 A
  | Found multiplier for basic radial grid :   2
  | Found angular grid specification: user-specified.
  | Specified grid contains     4 separate shells.
  | Check grid settings after all constraints further below.
  | Found free-atom valence shell :  2 s   2.000
  | Found free-atom valence shell :  2 p   4.000
  | No ionic wave fns used. Skipping ion_occ.
  | No ionic wave fns used. Skipping ion_occ.
  | Found hydrogenic basis function :  2 p   1.800
  | Found hydrogenic basis function :  3 d   7.600
  | Found hydrogenic basis function :  3 s   6.400
  | Found hydrogenic basis function :  4 f  11.600
  | Found hydrogenic basis function :  3 p   6.200
  | Found hydrogenic basis function :  3 d   5.600
  | Found hydrogenic basis function :  5 g  17.600
  | Found hydrogenic basis function :  1 s   0.750
  Species O                   : Missing cutoff potential type.
  Defaulting to exp(1/x)/(1-x)^2 type cutoff potential.
  Species O : On-site basis accuracy parameter (for Gram-Schmidt orthonormalisation) not specified.
  Using default value basis_acc =  0.1000000E-03.
  Species O                   : Using default innermost maximum threshold i_radial=  2 for radial functions.
  Species O                   : Basic radial grid will be enhanced according to radial_multiplier =   2, to contain    73 grid points.
 
  Finished reading input file 'control.in'. Consistency checks are next.
 
  Target number of points in a grid batch is not set. Defaulting to  100
  Method for grid partitioning is not set. Defaulting to parallel hash+maxmin partitioning.
  Batch size limit is not set. Defaulting to    200
  By default, will store active basis functions for each batch.
  If in need of memory, prune_basis_once .false. can be used to disable this option.
  communication_type for Hartree potential was not specified.
  Defaulting to calc_hartree .
  Pulay mixer: Number of initial linear mixing iterations not set.
  Defaulting to    0 iterations.
  Work space size for distributed Hartree potential not set.
  Defaulting to   0.200000E+03 MB.
  Algorithm-dependent basis array size parameters:
  | n_max_pulay                         :       10
  Geometry relaxation not requested: no relaxation will be performed.
  Handling of forces: Unphysical translation and rotation will be removed from forces.
  No accuracy limit for integral partition fn. given. Defaulting to 0.1000E-14.
  No threshold value for u(r) in integrations given. Defaulting to 0.1000E-05.
  No accuracy for occupation numbers given. Defaulting to 0.1000E-07.
  No threshold value for occupation numbers given. Defaulting to 0.0000E+00.
  No accuracy for fermi level given. Defaulting to 0.1000E-19.
  Maximum # of iterations to find E_F not set. Defaulting to  200.
  Will not use alltoall communication since running on < 1024 CPUs.
  Partitioning for Hartree potential was not defined. Using partition_type for integrals.
  | Reporting present value of keyword multip_moments_threshold  :       0.10000000E-09
  | This value may affect high angular momentum components of the Hartree potential in periodic systems.
  No q(lm)/r^(l+1) cutoff set for long-range Hartree potential.
  | Using default value of  0.100000E-09 .
  | Verify using the multipole_threshold keyword.
  Defaulting to new monopole extrapolation.
  Density update method: Loop over occupied states selected for charge density update.
------------------------------------------------------------


------------------------------------------------------------
          Reading geometry description geometry.in.
------------------------------------------------------------
  Input structure read successfully.
  The structure contains       15 atoms,  and a total of         50.000 electrons.

  Input geometry:
  | No unit cell requested.
  | Atomic structure:
  |       Atom                x [A]            y [A]            z [A]
  |    1: Species O             -4.053030         0.065001        -1.525160
  |    2: Species H             -4.566710         0.974813        -1.912820
  |    3: Species H             -3.067820         0.330172        -1.477310
  |    4: Species O             -4.581760        -0.256435         0.939478
  |    5: Species H             -4.349860         0.471090         1.504340
  |    6: Species H             -5.393870        -0.726611         1.228070
  |    7: Species O             -1.645860         0.870179        -1.502250
  |    8: Species H             -1.568890         1.501730        -0.721051
  |    9: Species H             -0.824432         0.282220        -1.377720
  |   10: Species O             -3.818880         2.024990         2.187990
  |   11: Species H             -3.690880         1.961360         3.202150
  |   12: Species H             -4.546490         2.751300         2.045370
  |   13: Species O             -5.628340         3.730740         1.385610
  |   14: Species H             -6.090650         4.418470         1.860350
  |   15: Species H             -5.158540         4.200260         0.615875
  |

  | The smallest distance between any two atoms is         0.94981015 AA.
  |
  | The first atom of this pair is atom number                      4 .
  | The second atom of this pair is atom number                     5 .

  Structure-dependent array size parameters: 
  | Maximum number of distinct radial functions  :       18
  | Maximum number of basis functions            :      345
  | Number of Kohn-Sham states (occupied + empty):       85
------------------------------------------------------------

------------------------------------------------------------
          Preparing all fixed parts of the calculation.
------------------------------------------------------------
  Determining machine precision:
    2.225073858507201E-308
  Setting up grids for atomic and cluster calculations.

  Creating wave function, potential, and density for free atoms.

  Species: H

  List of occupied orbitals and eigenvalues:
    n    l              occ      energy [Ha]    energy [eV]
    1    0           1.0000        -0.241408        -6.5691


  Species: O

  List of occupied orbitals and eigenvalues:
    n    l              occ      energy [Ha]    energy [eV]
    1    0           2.0000       -18.944147      -515.4965
    2    0           2.0000        -0.883529       -24.0421
    2    1           4.0000        -0.330176        -8.9845

  Creating fixed part of basis set: Ionic, confined, hydrogenic.
 
  H                    hydrogenic:
 
  List of hydrogenic basis orbitals: 
    n    l      effective z      eigenvalue [eV]  inner max. [A]     outer max. [A]     outer radius [A]   
    2    0         2.100000       -14.9965           0.193241           1.317192           5.372934
    2    1         3.500000       -41.6672           0.602363           0.602363           4.056010
    1    0         0.850000        -9.8292           0.624864           0.624864           5.372934
    2    1         3.700000       -46.5653           0.573616           0.573616           3.909951
    2    0         1.200000        -4.5995           0.334977           2.228160           5.505921
    3    2         7.000000       -74.0753           0.680692           0.680692           3.769152
 
 
  O                    hydrogenic:
 
  List of hydrogenic basis orbitals: 
    n    l      effective z      eigenvalue [eV]  inner max. [A]     outer max. [A]     outer radius [A]   
    2    1         1.800000       -11.0118           1.178546           1.178546           5.432516
    3    2         7.600000       -87.3182           0.624117           0.624117           3.541422
    3    0         6.400000       -61.9209           0.061166           1.081887           4.306510
    4    3        11.600000      -114.4238           0.731621           0.731621           3.584982
    3    1         6.200000       -58.1113           0.255677           1.030255           4.306510
    3    2         5.600000       -47.4081           0.847222           0.847222           4.413102
    5    4        17.600000      -168.5799           0.749730           0.749730           3.372413
    1    0         0.750000        -7.6499           0.705275           0.705275           5.366508
 

  Adding cutoff potential to free-atom effective potential.
  Creating atomic-like basis functions for current effective potential.

  Species H                   :

  List of atomic basis orbitals and eigenvalues:
    n    l      energy [Ha]    energy [eV]    outer radius [A]
    1    0        -0.241374        -6.5681       5.372934


  Species O                   :

  List of atomic basis orbitals and eigenvalues:
    n    l      energy [Ha]    energy [eV]    outer radius [A]
    1    0       -18.944147      -515.4965       1.415745
    2    0        -0.883529       -24.0421       5.048305
    2    1        -0.330173        -8.9845       5.301302

  Assembling full basis from fixed parts.
  | Species H :   atomic orbital   1 s accepted.
  | Species H :    hydro orbital   2 s accepted.
  | Species H :    hydro orbital   1 s accepted.
  | Species H :    hydro orbital   2 s accepted.
  | Species H :    hydro orbital   2 p accepted.
  | Species H :    hydro orbital   2 p accepted.
  | Species H :    hydro orbital   3 d accepted.
  | Species O :   atomic orbital   1 s accepted.
  | Species O :    hydro orbital   3 s accepted.
  | Species O :   atomic orbital   2 s accepted.
  | Species O :    hydro orbital   1 s accepted.
  | Species O :    hydro orbital   3 p accepted.
  | Species O :   atomic orbital   2 p accepted.
  | Species O :    hydro orbital   2 p accepted.
  | Species O :    hydro orbital   3 d accepted.
  | Species O :    hydro orbital   3 d accepted.
  | Species O :    hydro orbital   4 f accepted.
  | Species O :    hydro orbital   5 g accepted.
 
  Basis size parameters after reduction:
  | Total number of radial functions:       18
  | Total number of basis functions :      345
 
  Testing on-site integration grid accuracy.
  |  Species  Function  <phi|h_atom|phi> (log., in eV)  <phi|h_atom|phi> (rad., in eV)
           1        1                 -6.5683835025                 -6.5684759159
           1        2                 13.3711789951                 13.3708738703
           1        3                 23.6590910787                 23.6532055418
           1        4                 16.2963827186                 16.1870710655 ***
           1        5                 28.7627214838                 28.7627215090
           1        6                 59.5965249172                 59.5965950857
           1        7                 60.2220506392                 60.2220503827
           2        8               -515.4964576505               -515.4964530710
           2        9                 15.3030791347                 15.3030722972
           2       10                -21.7296094581                -21.7296135470
           2       11                 14.2969371730                 14.2969701621
           2       12                 21.0679693190                 21.0679697493
           2       13                 -2.3833606469                 -2.3833613176
           2       14                 13.7067136422                 13.7066766629
           2       15                 45.8013116808                 45.8013116965
           2       16                 52.2309815402                 52.2309831494
           2       17                 85.4120732416                 85.4120732763
           2       18                142.1019167745                142.1019167817
 * Note: Onsite integrals marked "***" above are less accurate than
 * onsite_accuracy_threshold =    0.03000 eV. Usually, this is harmless.
 * When in doubt, tighten the "radial" and/or "radial_multiplier" flags to check.

  Preparing densities etc. for the partition functions (integrals / Hartree potential).

  Preparations completed.
  max(cpu_time)          :      0.169 s.
  Wall clock time (cpu1) :      0.468 s.
------------------------------------------------------------

------------------------------------------------------------
          Begin self-consistency loop: Initialization.

          Date     :  20150727, Time     :  120152.123
------------------------------------------------------------

  Initializing index lists of integration centers etc. from given atomic structure:
  | Number of centers in hartree potential         :        15
  | Number of centers in hartree multipole         :        15
  | Number of centers in electron density summation:        15
  | Number of centers in basis integrals           :        15
  | Number of centers in integrals                 :        15
  Partitioning the integration grid into batches with parallel hashing+maxmin method.
  | Number of batches:     1970
  | Maximal batch size:     188
  | Minimal batch size:      54
  | Average batch size:      99.853
  | Standard deviation of batch sizes:      34.179

  Integration load balanced across     8 MPI tasks.
  Work distribution over tasks is as follows:
  Task     0 has      24579 integration points.
  Task     1 has      24640 integration points.
  Task     2 has      24557 integration points.
  Task     3 has      24577 integration points.
  Task     4 has      24548 integration points.
  Task     5 has      24528 integration points.
  Task     6 has      24625 integration points.
  Task     7 has      24656 integration points.
  Initializing partition tables, free-atom densities, potentials, etc. across the integration grid (initialize_grid_storage).
  | Net number of integration points:   196710
  | of which are non-zero points    :   196155
  Obtaining max. number of non-zero basis functions in each batch (get_n_compute_maxes).
  | Maximal number of non-zero basis functions:      341 in task     0
  | Maximal number of non-zero basis functions:      342 in task     1
  | Maximal number of non-zero basis functions:      342 in task     2
  | Maximal number of non-zero basis functions:      342 in task     3
  | Maximal number of non-zero basis functions:      342 in task     4
  | Maximal number of non-zero basis functions:      342 in task     5
  | Maximal number of non-zero basis functions:      341 in task     6
  | Maximal number of non-zero basis functions:      341 in task     7
  Integrating Hamiltonian matrix: batch-based integration.
  Time summed over all CPUs for integration: real work        6.754 s, elapsed        6.815 s
  Integrating overlap matrix.
  Time summed over all CPUs for integration: real work        3.610 s, elapsed        3.656 s

  Updating Kohn-Sham eigenvalues, eigenvectors, occupation numbers, and Fermi level.
  Solving generalized eigenproblem
  Updating Kohn-Sham eigenvalues and eigenfunctions.
  Transforming overlap matrix and checking for singularities.
  Overlap matrix is nonsingular:
  | Lowest eigenvalue:  0.294807E-03
  Solving real generalised eigenvalue problem by standard LAPACK (fast)
  Determining occupation numbers for Kohn-Sham eigenstates.
  | Chemical potential (Fermi level) in eV                 : -.42345754E+01
  | Error in electron count due to remaining E_F inaccuracy: 0.00000000E+00
  | Maximum occupation number of highest empty state:  0.00E+00

  Writing Kohn-Sham eigenvalues.

  State    Occupation    Eigenvalue [Ha]    Eigenvalue [eV]
      1       2.00000         -19.052085         -518.43362
      2       2.00000         -19.050517         -518.39093
      3       2.00000         -19.042415         -518.17046
      4       2.00000         -19.032240         -517.89361
      5       2.00000         -19.019700         -517.55238
      6       2.00000          -1.101051          -29.96112
      7       2.00000          -1.098337          -29.88728
      8       2.00000          -1.086697          -29.57052
      9       2.00000          -1.063642          -28.94316
     10       2.00000          -1.041999          -28.35424
     11       2.00000          -0.648490          -17.64630
     12       2.00000          -0.628599          -17.10506
     13       2.00000          -0.604811          -16.45773
     14       2.00000          -0.602503          -16.39493
     15       2.00000          -0.589089          -16.02992
     16       2.00000          -0.521492          -14.19052
     17       2.00000          -0.518633          -14.11272
     18       2.00000          -0.503420          -13.69875
     19       2.00000          -0.486246          -13.23143
     20       2.00000          -0.469857          -12.78545
     21       2.00000          -0.440517          -11.98707
     22       2.00000          -0.438586          -11.93454
     23       2.00000          -0.430570          -11.71641
     24       2.00000          -0.424313          -11.54613
     25       2.00000          -0.402418          -10.95036
     26       0.00000          -0.096083           -2.61454
     27       0.00000          -0.075149           -2.04490
     28       0.00000          -0.061205           -1.66548
     29       0.00000          -0.055456           -1.50904
     30       0.00000          -0.036332           -0.98864
     31       0.00000          -0.015877           -0.43204
     32       0.00000          -0.001252           -0.03406
     33       0.00000           0.042816            1.16507
     34       0.00000           0.047492            1.29232
     35       0.00000           0.050312            1.36907
     36       0.00000           0.071927            1.95724
     37       0.00000           0.078275            2.12998
     38       0.00000           0.089045            2.42305
     39       0.00000           0.093296            2.53871
     40       0.00000           0.101818            2.77060
     41       0.00000           0.106527            2.89875
     42       0.00000           0.109004            2.96616
     43       0.00000           0.118848            3.23401
     44       0.00000           0.122701            3.33886
     45       0.00000           0.129737            3.53032
     46       0.00000           0.139689            3.80113
     47       0.00000           0.150850            4.10483
     48       0.00000           0.161900            4.40551
     49       0.00000           0.174910            4.75954
     50       0.00000           0.191335            5.20649
     51       0.00000           0.197582            5.37648
     52       0.00000           0.212714            5.78824
     53       0.00000           0.231693            6.30469
     54       0.00000           0.243294            6.62036
     55       0.00000           0.254270            6.91904
     56       0.00000           0.270629            7.36420
     57       0.00000           0.281783            7.66770
     58       0.00000           0.304433            8.28406
     59       0.00000           0.311092            8.46525
     60       0.00000           0.329007            8.95274
     61       0.00000           0.340114            9.25496
     62       0.00000           0.354486            9.64604
     63       0.00000           0.357309            9.72287
     64       0.00000           0.362217            9.85642
     65       0.00000           0.381850           10.39066
     66       0.00000           0.398529           10.84453
     67       0.00000           0.401387           10.92229
     68       0.00000           0.411468           11.19660
     69       0.00000           0.416329           11.32888
     70       0.00000           0.433622           11.79945
     71       0.00000           0.444414           12.09313
     72       0.00000           0.448470           12.20349
     73       0.00000           0.481120           13.09193
     74       0.00000           0.495714           13.48907
     75       0.00000           0.505233           13.74810
     76       0.00000           0.547553           14.89967
     77       0.00000           0.553733           15.06784
     78       0.00000           0.568994           15.48311
     79       0.00000           0.577168           15.70555
     80       0.00000           0.586160           15.95024
     81       0.00000           0.623539           16.96736
     82       0.00000           0.679240           18.48306
     83       0.00000           0.690476           18.78881
     84       0.00000           0.706611           19.22787
     85       0.00000           0.719695           19.58391

  Highest occupied state (VBM) at    -10.95036109 eV
  | Occupation number:      2.00000000

  Lowest unoccupied state (CBM) at    -2.61453994 eV
  | Occupation number:      0.00000000

  Overall HOMO-LUMO gap:      8.33582115 eV.
  Calculating total energy contributions from superposition of free atom densities.

  Total energy components:
  | Sum of eigenvalues            :        -216.59645084 Ha       -5893.88930506 eV
  | XC energy correction          :         -45.54181221 Ha       -1239.25576284 eV
  | XC potential correction       :          58.19212183 Ha        1583.48820200 eV
  | Free-atom electrostatic energy:        -179.12166405 Ha       -4874.14847280 eV
  | Hartree energy correction     :           0.00000000 Ha           0.00000000 eV
  | van der Waals energy corr.    :           0.00000000 Ha           0.00000000 eV
  | Entropy correction            :           0.00000000 Ha           0.00000000 eV
  | ---------------------------
  | Total energy                  :        -383.06780527 Ha      -10423.80533870 eV
  | Total energy, T -> 0          :        -383.06780527 Ha      -10423.80533870 eV  <-- do not rely on this value for anything but (periodic) metals
  | Electronic free energy        :        -383.06780527 Ha      -10423.80533870 eV

  Derived energy quantities:
  | Kinetic energy                :         379.12385025 Ha       10316.48486228 eV
  | Electrostatic energy          :        -716.64984331 Ha      -19501.03443813 eV
  | Energy correction for multipole
  | error in Hartree potential    :           0.00000000 Ha           0.00000000 eV
  | Sum of eigenvalues per atom                           :        -392.92595367 eV
  | Total energy (T->0) per atom                          :        -694.92035591 eV  <-- do not rely on this value for anything but (periodic) metals
  | Electronic free energy per atom                       :        -694.92035591 eV
  Initialize hartree_potential_storage
  Max. number of atoms included in rho_multipole:           15

  End scf initialization - timings             :  max(cpu_time)    wall_clock(cpu1)
  | Time for scf. initialization               :        1.891 s           1.887 s
  | Boundary condition initialization          :        0.000 s           0.000 s
  | Integration                                :        1.313 s           1.312 s
  | Solution of K.-S. eqns.                    :        0.198 s           0.199 s
  | Grid partitioning                          :        0.164 s           0.164 s
  | Preloading free-atom quantities on grid    :        0.014 s           0.014 s
  | Free-atom superposition energy             :        0.065 s           0.065 s
  | Total energy evaluation                    :        0.000 s           0.000 s
------------------------------------------------------------

------------------------------------------------------------
          Begin self-consistency iteration #    1

  Date     :  20150727, Time     :  120154.010
------------------------------------------------------------
  Evaluating new KS density.
  Integration grid: deviation in total charge (<rho> - N_e) =  -2.842171E-14
  Pulay mixing of updated and previous charge densities.

  Evaluating partitioned Hartree potential by multipole expansion.
  | Analytical far-field extrapolation by fixed multipoles:
  | Hartree multipole sum: apparent total charge =  -0.184400E-05
  Summing up the Hartree potential.
  Time summed over all CPUs for potential: real work        2.564 s, elapsed        2.575 s
  | RMS charge density error from multipole expansion :   0.158225E-02

  Integrating Hamiltonian matrix: batch-based integration.
  Time summed over all CPUs for integration: real work        6.745 s, elapsed        6.811 s

  Updating Kohn-Sham eigenvalues, eigenvectors, occupation numbers, and Fermi level.
  Solving generalized eigenproblem
  Updating Kohn-Sham eigenvalues and eigenfunctions.
  Solving real generalised eigenvalue problem by standard LAPACK (fast)
  Determining occupation numbers for Kohn-Sham eigenstates.
  | Chemical potential (Fermi level) in eV                 : -.37211291E+01
  | Error in electron count due to remaining E_F inaccuracy: 0.00000000E+00
  | Maximum occupation number of highest empty state:  0.00E+00

  Writing Kohn-Sham eigenvalues.

  State    Occupation    Eigenvalue [Ha]    Eigenvalue [eV]
      1       2.00000         -18.984742         -516.60111
      2       2.00000         -18.975536         -516.35061
      3       2.00000         -18.958462         -515.88601
      4       2.00000         -18.956953         -515.84493
      5       2.00000         -18.928847         -515.08012
      6       2.00000          -1.068910          -29.08652
      7       2.00000          -1.053169          -28.65819
      8       2.00000          -1.049467          -28.55744
      9       2.00000          -1.024688          -27.88318
     10       2.00000          -0.991291          -26.97439
     11       2.00000          -0.603720          -16.42806
     12       2.00000          -0.602534          -16.39579
     13       2.00000          -0.576280          -15.68137
     14       2.00000          -0.571779          -15.55889
     15       2.00000          -0.549658          -14.95696
     16       2.00000          -0.487976          -13.27850
     17       2.00000          -0.479430          -13.04596
     18       2.00000          -0.458084          -12.46509
     19       2.00000          -0.445700          -12.12812
     20       2.00000          -0.424096          -11.54024
     21       2.00000          -0.405546          -11.03546
     22       2.00000          -0.393233          -10.70042
     23       2.00000          -0.386361          -10.51341
     24       2.00000          -0.382314          -10.40330
     25       2.00000          -0.348393           -9.48026
     26       0.00000          -0.086886           -2.36428
     27       0.00000          -0.067678           -1.84161
     28       0.00000          -0.049541           -1.34807
     29       0.00000          -0.045775           -1.24560
     30       0.00000          -0.025271           -0.68765
     31       0.00000          -0.009858           -0.26826
     32       0.00000           0.004523            0.12308
     33       0.00000           0.053119            1.44545
     34       0.00000           0.057039            1.55212
     35       0.00000           0.060338            1.64189
     36       0.00000           0.082344            2.24070
     37       0.00000           0.087233            2.37373
     38       0.00000           0.098945            2.69243
     39       0.00000           0.103849            2.82588
     40       0.00000           0.109478            2.97906
     41       0.00000           0.112839            3.07051
     42       0.00000           0.120185            3.27040
     43       0.00000           0.129496            3.52376
     44       0.00000           0.133399            3.62998
     45       0.00000           0.146149            3.97691
     46       0.00000           0.155382            4.22815
     47       0.00000           0.169741            4.61888
     48       0.00000           0.173596            4.72377
     49       0.00000           0.187106            5.09141
     50       0.00000           0.204563            5.56643
     51       0.00000           0.212514            5.78280
     52       0.00000           0.223910            6.09290
     53       0.00000           0.241337            6.56711
     54       0.00000           0.257195            6.99863
     55       0.00000           0.264343            7.19313
     56       0.00000           0.281433            7.65819
     57       0.00000           0.292396            7.95651
     58       0.00000           0.311825            8.48519
     59       0.00000           0.322502            8.77573
     60       0.00000           0.342371            9.31640
     61       0.00000           0.351623            9.56816
     62       0.00000           0.362203            9.85604
     63       0.00000           0.369857           10.06432
     64       0.00000           0.371483           10.10856
     65       0.00000           0.393065           10.69585
     66       0.00000           0.407341           11.08432
     67       0.00000           0.412277           11.21864
     68       0.00000           0.423377           11.52067
     69       0.00000           0.429115           11.67682
     70       0.00000           0.441766           12.02106
     71       0.00000           0.453648           12.34439
     72       0.00000           0.458045           12.46404
     73       0.00000           0.493372           13.42533
     74       0.00000           0.508707           13.84262
     75       0.00000           0.516775           14.06216
     76       0.00000           0.560082           15.24061
     77       0.00000           0.569381           15.49366
     78       0.00000           0.586936           15.97134
     79       0.00000           0.592877           16.13300
     80       0.00000           0.598233           16.27874
     81       0.00000           0.636748           17.32679
     82       0.00000           0.693391           18.86814
     83       0.00000           0.706022           19.21185
     84       0.00000           0.719478           19.57798
     85       0.00000           0.736319           20.03625

  Highest occupied state (VBM) at     -9.48026147 eV
  | Occupation number:      2.00000000

  Lowest unoccupied state (CBM) at    -2.36428028 eV
  | Occupation number:      0.00000000

  Overall HOMO-LUMO gap:      7.11598119 eV.

  Total energy components:
  | Sum of eigenvalues            :        -214.21433618 Ha       -5829.06866729 eV
  | XC energy correction          :         -45.78103796 Ha       -1245.76542670 eV
  | XC potential correction       :          58.50535511 Ha        1592.01171314 eV
  | Free-atom electrostatic energy:        -179.12166405 Ha       -4874.14847280 eV
  | Hartree energy correction     :          -2.30721732 Ha         -62.78257756 eV
  | van der Waals energy corr.    :           0.00000000 Ha           0.00000000 eV
  | Entropy correction            :           0.00000000 Ha           0.00000000 eV
  | ---------------------------
  | Total energy                  :        -382.91890040 Ha      -10419.75343121 eV
  | Total energy, T -> 0          :        -382.91890040 Ha      -10419.75343121 eV  <-- do not rely on this value for anything but (periodic) metals
  | Electronic free energy        :        -382.91890040 Ha      -10419.75343121 eV

  Derived energy quantities:
  | Kinetic energy                :         380.54230233 Ha       10355.08290724 eV
  | Electrostatic energy          :        -717.68016478 Ha      -19529.07091175 eV
  | Energy correction for multipole
  | error in Hartree potential    :          -0.00008543 Ha          -0.00232473 eV
  | Sum of eigenvalues per atom                           :        -388.60457782 eV
  | Total energy (T->0) per atom                          :        -694.65022875 eV  <-- do not rely on this value for anything but (periodic) metals
  | Electronic free energy per atom                       :        -694.65022875 eV

  Self-consistency convergence accuracy:
  | Change of charge density      : 0.6581E+00
  | Change of sum of eigenvalues  : 0.6482E+02 eV
  | Change of total energy        : 0.4052E+01 eV

  End self-consistency iteration #     1       :  max(cpu_time)    wall_clock(cpu1)
  | Time for this iteration                    :        1.853 s           1.854 s
  | Charge density update                      :        0.614 s           0.614 s
  | Density mixing                             :        0.003 s           0.004 s
  | Hartree multipole update                   :        0.005 s           0.005 s
  | Hartree multipole summation                :        0.323 s           0.323 s
  | Integration                                :        0.853 s           0.852 s
  | Solution of K.-S. eqns.                    :        0.054 s           0.054 s
  | Total energy evaluation                    :        0.000 s           0.000 s
------------------------------------------------------------

------------------------------------------------------------
          Begin self-consistency iteration #    2

  Date     :  20150727, Time     :  120155.864
------------------------------------------------------------
  Evaluating new KS density.
  Integration grid: deviation in total charge (<rho> - N_e) =   7.105427E-15
  Pulay mixing of updated and previous charge densities.

  Evaluating partitioned Hartree potential by multipole expansion.
  | Analytical far-field extrapolation by fixed multipoles:
  | Hartree multipole sum: apparent total charge =  -0.511647E-05
  Summing up the Hartree potential.
  Time summed over all CPUs for potential: real work        2.564 s, elapsed        2.575 s
  | RMS charge density error from multipole expansion :   0.626119E-02

  Integrating Hamiltonian matrix: batch-based integration.
  Time summed over all CPUs for integration: real work        6.730 s, elapsed        6.806 s

  Updating Kohn-Sham eigenvalues, eigenvectors, occupation numbers, and Fermi level.
  Solving generalized eigenproblem
  Updating Kohn-Sham eigenvalues and eigenfunctions.
  Solving real generalised eigenvalue problem by standard LAPACK (fast)
  Determining occupation numbers for Kohn-Sham eigenstates.
  | Chemical potential (Fermi level) in eV                 : -.24219230E+01
  | Error in electron count due to remaining E_F inaccuracy: 0.00000000E+00
  | Maximum occupation number of highest empty state:  0.00E+00

  Highest occupied state (VBM) at     -6.02191646 eV
  | Occupation number:      2.00000000

  Lowest unoccupied state (CBM) at    -1.90771088 eV
  | Occupation number:      0.00000000

  Overall HOMO-LUMO gap:      4.11420558 eV.

  Total energy components:
  | Sum of eigenvalues            :        -208.67341912 Ha       -5678.29264270 eV
  | XC energy correction          :         -46.35877076 Ha       -1261.48633612 eV
  | XC potential correction       :          59.26119374 Ha        1612.57912891 eV
  | Free-atom electrostatic energy:        -179.12166405 Ha       -4874.14847280 eV
  | Hartree energy correction     :          -7.85516500 Ha        -213.74991511 eV
  | van der Waals energy corr.    :           0.00000000 Ha           0.00000000 eV
  | Entropy correction            :           0.00000000 Ha           0.00000000 eV
  | ---------------------------
  | Total energy                  :        -382.74782519 Ha      -10415.09823782 eV
  | Total energy, T -> 0          :        -382.74782519 Ha      -10415.09823782 eV  <-- do not rely on this value for anything but (periodic) metals
  | Electronic free energy        :        -382.74782519 Ha      -10415.09823782 eV

  Derived energy quantities:
  | Kinetic energy                :         383.32218387 Ha       10430.72733268 eV
  | Electrostatic energy          :        -719.71123830 Ha      -19584.33923438 eV
  | Energy correction for multipole
  | error in Hartree potential    :          -0.00113849 Ha          -0.03097989 eV
  | Sum of eigenvalues per atom                           :        -378.55284285 eV
  | Total energy (T->0) per atom                          :        -694.33988252 eV  <-- do not rely on this value for anything but (periodic) metals
  | Electronic free energy per atom                       :        -694.33988252 eV

  Self-consistency convergence accuracy:
  | Change of charge density      : 0.4967E+00
  | Change of sum of eigenvalues  : 0.1508E+03 eV
  | Change of total energy        : 0.4655E+01 eV

  End self-consistency iteration #     2       :  max(cpu_time)    wall_clock(cpu1)
  | Time for this iteration                    :        1.848 s           1.847 s
  | Charge density update                      :        0.608 s           0.607 s
  | Density mixing                             :        0.005 s           0.006 s
  | Hartree multipole update                   :        0.005 s           0.005 s
  | Hartree multipole summation                :        0.323 s           0.322 s
  | Integration                                :        0.852 s           0.853 s
  | Solution of K.-S. eqns.                    :        0.054 s           0.054 s
  | Total energy evaluation                    :        0.000 s           0.000 s
------------------------------------------------------------

------------------------------------------------------------
          Begin self-consistency iteration #    3

  Date     :  20150727, Time     :  120157.711
------------------------------------------------------------
  Evaluating new KS density.
  Integration grid: deviation in total charge (<rho> - N_e) =   7.105427E-15
  Pulay mixing of updated and previous charge densities.

  Evaluating partitioned Hartree potential by multipole expansion.
  | Analytical far-field extrapolation by fixed multipoles:
  | Hartree multipole sum: apparent total charge =  -0.441955E-05
  Summing up the Hartree potential.
  Time summed over all CPUs for potential: real work        2.564 s, elapsed        2.575 s
  | RMS charge density error from multipole expansion :   0.127807E-01

  Integrating Hamiltonian matrix: batch-based integration.
  Time summed over all CPUs for integration: real work        6.726 s, elapsed        6.794 s

  Updating Kohn-Sham eigenvalues, eigenvectors, occupation numbers, and Fermi level.
  Solving generalized eigenproblem
  Updating Kohn-Sham eigenvalues and eigenfunctions.
  Solving real generalised eigenvalue problem by standard LAPACK (fast)
  Determining occupation numbers for Kohn-Sham eigenstates.
  | Chemical potential (Fermi level) in eV                 : -.21162579E+01
  | Error in electron count due to remaining E_F inaccuracy: 0.00000000E+00
  | Maximum occupation number of highest empty state:  0.00E+00

  Highest occupied state (VBM) at     -5.79690068 eV
  | Occupation number:      2.00000000

  Lowest unoccupied state (CBM) at    -1.87755932 eV
  | Occupation number:      0.00000000

  Overall HOMO-LUMO gap:      3.91934136 eV.

  Total energy components:
  | Sum of eigenvalues            :        -208.81902258 Ha       -5682.25471446 eV
  | XC energy correction          :         -46.32743323 Ha       -1260.63359850 eV
  | XC potential correction       :          59.21543311 Ha        1611.33391877 eV
  | Free-atom electrostatic energy:        -179.12166405 Ha       -4874.14847280 eV
  | Hartree energy correction     :          -7.68905269 Ha        -209.22976907 eV
  | van der Waals energy corr.    :           0.00000000 Ha           0.00000000 eV
  | Entropy correction            :           0.00000000 Ha           0.00000000 eV
  | ---------------------------
  | Total energy                  :        -382.74173944 Ha      -10414.93263605 eV
  | Total energy, T -> 0          :        -382.74173944 Ha      -10414.93263605 eV  <-- do not rely on this value for anything but (periodic) metals
  | Electronic free energy        :        -382.74173944 Ha      -10414.93263605 eV

  Derived energy quantities:
  | Kinetic energy                :         381.26564597 Ha       10374.76608907 eV
  | Electrostatic energy          :        -717.67995218 Ha      -19529.06512662 eV
  | Energy correction for multipole
  | error in Hartree potential    :          -0.00586883 Ha          -0.15969901 eV
  | Sum of eigenvalues per atom                           :        -378.81698096 eV
  | Total energy (T->0) per atom                          :        -694.32884240 eV  <-- do not rely on this value for anything but (periodic) metals
  | Electronic free energy per atom                       :        -694.32884240 eV

  Self-consistency convergence accuracy:
  | Change of charge density      : 0.2539E+00
  | Change of sum of eigenvalues  : -.3962E+01 eV
  | Change of total energy        : 0.1656E+00 eV

  End self-consistency iteration #     3       :  max(cpu_time)    wall_clock(cpu1)
  | Time for this iteration                    :        1.844 s           1.844 s
  | Charge density update                      :        0.604 s           0.604 s
  | Density mixing                             :        0.007 s           0.006 s
  | Hartree multipole update                   :        0.005 s           0.005 s
  | Hartree multipole summation                :        0.323 s           0.323 s
  | Integration                                :        0.851 s           0.851 s
  | Solution of K.-S. eqns.                    :        0.054 s           0.054 s
  | Total energy evaluation                    :        0.000 s           0.000 s
------------------------------------------------------------

------------------------------------------------------------
          Begin self-consistency iteration #    4

  Date     :  20150727, Time     :  120159.555
------------------------------------------------------------
  Evaluating new KS density.
  Integration grid: deviation in total charge (<rho> - N_e) =   0.000000E+00
  Pulay mixing of updated and previous charge densities.

  Evaluating partitioned Hartree potential by multipole expansion.
  | Analytical far-field extrapolation by fixed multipoles:
  | Hartree multipole sum: apparent total charge =  -0.526582E-05
  Summing up the Hartree potential.
  Time summed over all CPUs for potential: real work        2.569 s, elapsed        2.598 s
  | RMS charge density error from multipole expansion :   0.166957E-01

  Integrating Hamiltonian matrix: batch-based integration.
  Time summed over all CPUs for integration: real work        6.713 s, elapsed        6.783 s

  Updating Kohn-Sham eigenvalues, eigenvectors, occupation numbers, and Fermi level.
  Solving generalized eigenproblem
  Updating Kohn-Sham eigenvalues and eigenfunctions.
  Solving real generalised eigenvalue problem by standard LAPACK (fast)
  Determining occupation numbers for Kohn-Sham eigenstates.
  | Chemical potential (Fermi level) in eV                 : -.28447278E+01
  | Error in electron count due to remaining E_F inaccuracy: 0.00000000E+00
  | Maximum occupation number of highest empty state:  0.00E+00

  Highest occupied state (VBM) at     -4.48534104 eV
  | Occupation number:      2.00000000

  Lowest unoccupied state (CBM) at    -1.74495779 eV
  | Occupation number:      0.00000000

  Overall HOMO-LUMO gap:      2.74038325 eV.

  Total energy components:
  | Sum of eigenvalues            :        -206.96579263 Ha       -5631.82576162 eV
  | XC energy correction          :         -46.53580190 Ha       -1266.30359839 eV
  | XC potential correction       :          59.48695845 Ha        1618.72249919 eV
  | Free-atom electrostatic energy:        -179.12166405 Ha       -4874.14847280 eV
  | Hartree energy correction     :          -9.59249070 Ha        -261.02495265 eV
  | van der Waals energy corr.    :           0.00000000 Ha           0.00000000 eV
  | Entropy correction            :           0.00000000 Ha           0.00000000 eV
  | ---------------------------
  | Total energy                  :        -382.72879082 Ha      -10414.58028627 eV
  | Total energy, T -> 0          :        -382.72879082 Ha      -10414.58028627 eV  <-- do not rely on this value for anything but (periodic) metals
  | Electronic free energy        :        -382.72879082 Ha      -10414.58028627 eV

  Derived energy quantities:
  | Kinetic energy                :         381.47183530 Ha       10380.37678638 eV
  | Electrostatic energy          :        -717.66482423 Ha      -19528.65347426 eV
  | Energy correction for multipole
  | error in Hartree potential    :          -0.00796596 Ha          -0.21676472 eV
  | Sum of eigenvalues per atom                           :        -375.45505077 eV
  | Total energy (T->0) per atom                          :        -694.30535242 eV  <-- do not rely on this value for anything but (periodic) metals
  | Electronic free energy per atom                       :        -694.30535242 eV

  Self-consistency convergence accuracy:
  | Change of charge density      : 0.1423E+00
  | Change of sum of eigenvalues  : 0.5043E+02 eV
  | Change of total energy        : 0.3523E+00 eV

  End self-consistency iteration #     4       :  max(cpu_time)    wall_clock(cpu1)
  | Time for this iteration                    :        1.847 s           1.847 s
  | Charge density update                      :        0.604 s           0.604 s
  | Density mixing                             :        0.009 s           0.008 s
  | Hartree multipole update                   :        0.004 s           0.005 s
  | Hartree multipole summation                :        0.326 s           0.326 s
  | Integration                                :        0.849 s           0.849 s
  | Solution of K.-S. eqns.                    :        0.054 s           0.054 s
  | Total energy evaluation                    :        0.000 s           0.001 s
------------------------------------------------------------

------------------------------------------------------------
          Begin self-consistency iteration #    5

  Date     :  20150727, Time     :  120201.402
------------------------------------------------------------
  Evaluating new KS density.
  Integration grid: deviation in total charge (<rho> - N_e) =   2.131628E-14
  Pulay mixing of updated and previous charge densities.

  Evaluating partitioned Hartree potential by multipole expansion.
  | Analytical far-field extrapolation by fixed multipoles:
  | Hartree multipole sum: apparent total charge =  -0.516757E-05
  Summing up the Hartree potential.
  Time summed over all CPUs for potential: real work        2.573 s, elapsed        2.617 s
  | RMS charge density error from multipole expansion :   0.171944E-01

  Integrating Hamiltonian matrix: batch-based integration.
  Time summed over all CPUs for integration: real work        6.710 s, elapsed        6.781 s

  Updating Kohn-Sham eigenvalues, eigenvectors, occupation numbers, and Fermi level.
  Solving generalized eigenproblem
  Updating Kohn-Sham eigenvalues and eigenfunctions.
  Solving real generalised eigenvalue problem by standard LAPACK (fast)
  Determining occupation numbers for Kohn-Sham eigenstates.
  | Chemical potential (Fermi level) in eV                 : -.28311803E+01
  | Error in electron count due to remaining E_F inaccuracy: 0.00000000E+00
  | Maximum occupation number of highest empty state:  0.00E+00

  Highest occupied state (VBM) at     -4.34358201 eV
  | Occupation number:      2.00000000

  Lowest unoccupied state (CBM) at    -1.74446763 eV
  | Occupation number:      0.00000000

  Overall HOMO-LUMO gap:      2.59911438 eV.

  Total energy components:
  | Sum of eigenvalues            :        -206.90411897 Ha       -5630.14753603 eV
  | XC energy correction          :         -46.54679211 Ha       -1266.60265731 eV
  | XC potential correction       :          59.50076741 Ha        1619.09825998 eV
  | Free-atom electrostatic energy:        -179.12166405 Ha       -4874.14847280 eV
  | Hartree energy correction     :          -9.65675343 Ha        -262.77363054 eV
  | van der Waals energy corr.    :           0.00000000 Ha           0.00000000 eV
  | Entropy correction            :           0.00000000 Ha           0.00000000 eV
  | ---------------------------
  | Total energy                  :        -382.72856115 Ha      -10414.57403670 eV
  | Total energy, T -> 0          :        -382.72856115 Ha      -10414.57403670 eV  <-- do not rely on this value for anything but (periodic) metals
  | Electronic free energy        :        -382.72856115 Ha      -10414.57403670 eV

  Derived energy quantities:
  | Kinetic energy                :         381.50760845 Ha       10381.35022318 eV
  | Electrostatic energy          :        -717.68937749 Ha      -19529.32160257 eV
  | Energy correction for multipole
  | error in Hartree potential    :          -0.00812053 Ha          -0.22097095 eV
  | Sum of eigenvalues per atom                           :        -375.34316907 eV
  | Total energy (T->0) per atom                          :        -694.30493578 eV  <-- do not rely on this value for anything but (periodic) metals
  | Electronic free energy per atom                       :        -694.30493578 eV

  Self-consistency convergence accuracy:
  | Change of charge density      : 0.3076E-01
  | Change of sum of eigenvalues  : 0.1678E+01 eV
  | Change of total energy        : 0.6250E-02 eV

  End self-consistency iteration #     5       :  max(cpu_time)    wall_clock(cpu1)
  | Time for this iteration                    :        1.858 s           1.857 s
  | Charge density update                      :        0.612 s           0.611 s
  | Density mixing                             :        0.009 s           0.010 s
  | Hartree multipole update                   :        0.005 s           0.005 s
  | Hartree multipole summation                :        0.328 s           0.328 s
  | Integration                                :        0.849 s           0.849 s
  | Solution of K.-S. eqns.                    :        0.054 s           0.054 s
  | Total energy evaluation                    :        0.000 s           0.000 s
------------------------------------------------------------

------------------------------------------------------------
          Begin self-consistency iteration #    6

  Date     :  20150727, Time     :  120203.259
------------------------------------------------------------
  Evaluating new KS density.
  Integration grid: deviation in total charge (<rho> - N_e) =   7.105427E-15
  Pulay mixing of updated and previous charge densities.

  Evaluating partitioned Hartree potential by multipole expansion.
  | Analytical far-field extrapolation by fixed multipoles:
  | Hartree multipole sum: apparent total charge =  -0.516350E-05
  Summing up the Hartree potential.
  Time summed over all CPUs for potential: real work        2.563 s, elapsed        2.574 s
  | RMS charge density error from multipole expansion :   0.174277E-01

  Integrating Hamiltonian matrix: batch-based integration.
  Time summed over all CPUs for integration: real work        6.709 s, elapsed        6.783 s

  Updating Kohn-Sham eigenvalues, eigenvectors, occupation numbers, and Fermi level.
  Solving generalized eigenproblem
  Updating Kohn-Sham eigenvalues and eigenfunctions.
  Solving real generalised eigenvalue problem by standard LAPACK (fast)
  Determining occupation numbers for Kohn-Sham eigenstates.
  | Chemical potential (Fermi level) in eV                 : -.28146612E+01
  | Error in electron count due to remaining E_F inaccuracy: 0.00000000E+00
  | Maximum occupation number of highest empty state:  0.00E+00

  Highest occupied state (VBM) at     -4.30724067 eV
  | Occupation number:      2.00000000

  Lowest unoccupied state (CBM) at    -1.73746077 eV
  | Occupation number:      0.00000000

  Overall HOMO-LUMO gap:      2.56977990 eV.

  Total energy components:
  | Sum of eigenvalues            :        -206.84604245 Ha       -5628.56719340 eV
  | XC energy correction          :         -46.55441006 Ha       -1266.80995220 eV
  | XC potential correction       :          59.51056674 Ha        1619.36491348 eV
  | Free-atom electrostatic energy:        -179.12166405 Ha       -4874.14847280 eV
  | Hartree energy correction     :          -9.71708676 Ha        -264.41538411 eV
  | van der Waals energy corr.    :           0.00000000 Ha           0.00000000 eV
  | Entropy correction            :           0.00000000 Ha           0.00000000 eV
  | ---------------------------
  | Total energy                  :        -382.72863658 Ha      -10414.57608904 eV
  | Total energy, T -> 0          :        -382.72863658 Ha      -10414.57608904 eV  <-- do not rely on this value for anything but (periodic) metals
  | Electronic free energy        :        -382.72863658 Ha      -10414.57608904 eV

  Derived energy quantities:
  | Kinetic energy                :         381.51447806 Ha       10381.53715470 eV
  | Electrostatic energy          :        -717.68870458 Ha      -19529.30329154 eV
  | Energy correction for multipole
  | error in Hartree potential    :          -0.00822140 Ha          -0.22371557 eV
  | Sum of eigenvalues per atom                           :        -375.23781289 eV
  | Total energy (T->0) per atom                          :        -694.30507260 eV  <-- do not rely on this value for anything but (periodic) metals
  | Electronic free energy per atom                       :        -694.30507260 eV

  Self-consistency convergence accuracy:
  | Change of charge density      : 0.1118E-01
  | Change of sum of eigenvalues  : 0.1580E+01 eV
  | Change of total energy        : -.2052E-02 eV

  End self-consistency iteration #     6       :  max(cpu_time)    wall_clock(cpu1)
  | Time for this iteration                    :        1.847 s           1.847 s
  | Charge density update                      :        0.604 s           0.605 s
  | Density mixing                             :        0.010 s           0.011 s
  | Hartree multipole update                   :        0.005 s           0.004 s
  | Hartree multipole summation                :        0.323 s           0.323 s
  | Integration                                :        0.849 s           0.849 s
  | Solution of K.-S. eqns.                    :        0.054 s           0.054 s
  | Total energy evaluation                    :        0.001 s           0.001 s
------------------------------------------------------------

------------------------------------------------------------
          Begin self-consistency iteration #    7

  Date     :  20150727, Time     :  120205.106
------------------------------------------------------------
  Evaluating new KS density.
  Integration grid: deviation in total charge (<rho> - N_e) =   3.552714E-14
  Pulay mixing of updated and previous charge densities.

  Evaluating partitioned Hartree potential by multipole expansion.
  | Analytical far-field extrapolation by fixed multipoles:
  | Hartree multipole sum: apparent total charge =  -0.488588E-05
  Summing up the Hartree potential.
  Time summed over all CPUs for potential: real work        2.563 s, elapsed        2.574 s
  | RMS charge density error from multipole expansion :   0.174072E-01

  Integrating Hamiltonian matrix: batch-based integration.
  Time summed over all CPUs for integration: real work        6.706 s, elapsed        6.791 s

  Updating Kohn-Sham eigenvalues, eigenvectors, occupation numbers, and Fermi level.
  Solving generalized eigenproblem
  Updating Kohn-Sham eigenvalues and eigenfunctions.
  Solving real generalised eigenvalue problem by standard LAPACK (fast)
  Determining occupation numbers for Kohn-Sham eigenstates.
  | Chemical potential (Fermi level) in eV                 : -.28737578E+01
  | Error in electron count due to remaining E_F inaccuracy: 0.00000000E+00
  | Maximum occupation number of highest empty state:  0.00E+00

  Highest occupied state (VBM) at     -4.47275899 eV
  | Occupation number:      2.00000000

  Lowest unoccupied state (CBM) at    -1.75405658 eV
  | Occupation number:      0.00000000

  Overall HOMO-LUMO gap:      2.71870241 eV.

  Total energy components:
  | Sum of eigenvalues            :        -207.03037222 Ha       -5633.58306163 eV
  | XC energy correction          :         -46.53754692 Ha       -1266.35108289 eV
  | XC potential correction       :          59.48791457 Ha        1618.74851656 eV
  | Free-atom electrostatic energy:        -179.12166405 Ha       -4874.14847280 eV
  | Hartree energy correction     :          -9.52683235 Ha        -259.23829824 eV
  | van der Waals energy corr.    :           0.00000000 Ha           0.00000000 eV
  | Entropy correction            :           0.00000000 Ha           0.00000000 eV
  | ---------------------------
  | Total energy                  :        -382.72850097 Ha      -10414.57239900 eV
  | Total energy, T -> 0          :        -382.72850097 Ha      -10414.57239900 eV  <-- do not rely on this value for anything but (periodic) metals
  | Electronic free energy        :        -382.72850097 Ha      -10414.57239900 eV

  Derived energy quantities:
  | Kinetic energy                :         381.57531337 Ha       10383.19256770 eV
  | Electrostatic energy          :        -717.76626742 Ha      -19531.41388381 eV
  | Energy correction for multipole
  | error in Hartree potential    :          -0.00801938 Ha          -0.21821833 eV
  | Sum of eigenvalues per atom                           :        -375.57220411 eV
  | Total energy (T->0) per atom                          :        -694.30482660 eV  <-- do not rely on this value for anything but (periodic) metals
  | Electronic free energy per atom                       :        -694.30482660 eV

  Self-consistency convergence accuracy:
  | Change of charge density      : 0.1157E-01
  | Change of sum of eigenvalues  : -.5016E+01 eV
  | Change of total energy        : 0.3690E-02 eV

  End self-consistency iteration #     7       :  max(cpu_time)    wall_clock(cpu1)
  | Time for this iteration                    :        1.849 s           1.849 s
  | Charge density update                      :        0.604 s           0.604 s
  | Density mixing                             :        0.012 s           0.013 s
  | Hartree multipole update                   :        0.005 s           0.005 s
  | Hartree multipole summation                :        0.322 s           0.322 s
  | Integration                                :        0.851 s           0.851 s
  | Solution of K.-S. eqns.                    :        0.054 s           0.053 s
  | Total energy evaluation                    :        0.000 s           0.000 s
------------------------------------------------------------

------------------------------------------------------------
          Begin self-consistency iteration #    8

  Date     :  20150727, Time     :  120206.955
------------------------------------------------------------
  Evaluating new KS density.
  Integration grid: deviation in total charge (<rho> - N_e) =   2.131628E-14
  Pulay mixing of updated and previous charge densities.

  Evaluating partitioned Hartree potential by multipole expansion.
  | Analytical far-field extrapolation by fixed multipoles:
  | Hartree multipole sum: apparent total charge =  -0.489405E-05
  Summing up the Hartree potential.
  Time summed over all CPUs for potential: real work        2.563 s, elapsed        2.574 s
  | RMS charge density error from multipole expansion :   0.174617E-01

  Integrating Hamiltonian matrix: batch-based integration.
  Time summed over all CPUs for integration: real work        6.707 s, elapsed        6.793 s

  Updating Kohn-Sham eigenvalues, eigenvectors, occupation numbers, and Fermi level.
  Solving generalized eigenproblem
  Updating Kohn-Sham eigenvalues and eigenfunctions.
  Solving real generalised eigenvalue problem by standard LAPACK (fast)
  Determining occupation numbers for Kohn-Sham eigenstates.
  | Chemical potential (Fermi level) in eV                 : -.28666271E+01
  | Error in electron count due to remaining E_F inaccuracy: 0.00000000E+00
  | Maximum occupation number of highest empty state:  0.00E+00

  Highest occupied state (VBM) at     -4.44733463 eV
  | Occupation number:      2.00000000

  Lowest unoccupied state (CBM) at    -1.75218726 eV
  | Occupation number:      0.00000000

  Overall HOMO-LUMO gap:      2.69514738 eV.

  Total energy components:
  | Sum of eigenvalues            :        -207.00771195 Ha       -5632.96644445 eV
  | XC energy correction          :         -46.53988495 Ha       -1266.41470407 eV
  | XC potential correction       :          59.49095707 Ha        1618.83130722 eV
  | Free-atom electrostatic energy:        -179.12166405 Ha       -4874.14847280 eV
  | Hartree energy correction     :          -9.55019567 Ha        -259.87404639 eV
  | van der Waals energy corr.    :           0.00000000 Ha           0.00000000 eV
  | Entropy correction            :           0.00000000 Ha           0.00000000 eV
  | ---------------------------
  | Total energy                  :        -382.72849956 Ha      -10414.57236050 eV
  | Total energy, T -> 0          :        -382.72849956 Ha      -10414.57236050 eV  <-- do not rely on this value for anything but (periodic) metals
  | Electronic free energy        :        -382.72849956 Ha      -10414.57236050 eV

  Derived energy quantities:
  | Kinetic energy                :         381.57656723 Ha       10383.22668701 eV
  | Electrostatic energy          :        -717.76518183 Ha      -19531.38434344 eV
  | Energy correction for multipole
  | error in Hartree potential    :          -0.00805967 Ha          -0.21931488 eV
  | Sum of eigenvalues per atom                           :        -375.53109630 eV
  | Total energy (T->0) per atom                          :        -694.30482403 eV  <-- do not rely on this value for anything but (periodic) metals
  | Electronic free energy per atom                       :        -694.30482403 eV

  Self-consistency convergence accuracy:
  | Change of charge density      : 0.2443E-02
  | Change of sum of eigenvalues  : 0.6166E+00 eV
  | Change of total energy        : 0.3850E-04 eV

  End self-consistency iteration #     8       :  max(cpu_time)    wall_clock(cpu1)
  | Time for this iteration                    :        1.852 s           1.852 s
  | Charge density update                      :        0.606 s           0.606 s
  | Density mixing                             :        0.014 s           0.013 s
  | Hartree multipole update                   :        0.005 s           0.005 s
  | Hartree multipole summation                :        0.322 s           0.323 s
  | Integration                                :        0.851 s           0.850 s
  | Solution of K.-S. eqns.                    :        0.054 s           0.054 s
  | Total energy evaluation                    :        0.000 s           0.000 s
------------------------------------------------------------

------------------------------------------------------------
          Begin self-consistency iteration #    9

  Date     :  20150727, Time     :  120208.807
------------------------------------------------------------
  Evaluating new KS density.
  Integration grid: deviation in total charge (<rho> - N_e) =  -7.105427E-15
  Pulay mixing of updated and previous charge densities.

  Evaluating partitioned Hartree potential by multipole expansion.
  | Analytical far-field extrapolation by fixed multipoles:
  | Hartree multipole sum: apparent total charge =  -0.489281E-05
  Summing up the Hartree potential.
  Time summed over all CPUs for potential: real work        2.563 s, elapsed        2.574 s
  | RMS charge density error from multipole expansion :   0.174695E-01

  Integrating Hamiltonian matrix: batch-based integration.
  Time summed over all CPUs for integration: real work        6.721 s, elapsed        6.838 s

  Updating Kohn-Sham eigenvalues, eigenvectors, occupation numbers, and Fermi level.
  Solving generalized eigenproblem
  Updating Kohn-Sham eigenvalues and eigenfunctions.
  Solving real generalised eigenvalue problem by standard LAPACK (fast)
  Determining occupation numbers for Kohn-Sham eigenstates.
  | Chemical potential (Fermi level) in eV                 : -.28653483E+01
  | Error in electron count due to remaining E_F inaccuracy: 0.00000000E+00
  | Maximum occupation number of highest empty state:  0.00E+00

  Highest occupied state (VBM) at     -4.44691509 eV
  | Occupation number:      2.00000000

  Lowest unoccupied state (CBM) at    -1.75173233 eV
  | Occupation number:      0.00000000

  Overall HOMO-LUMO gap:      2.69518276 eV.

  Total energy components:
  | Sum of eigenvalues            :        -207.00346829 Ha       -5632.85096835 eV
  | XC energy correction          :         -46.54023645 Ha       -1266.42426863 eV
  | XC potential correction       :          59.49141079 Ha        1618.84365342 eV
  | Free-atom electrostatic energy:        -179.12166405 Ha       -4874.14847280 eV
  | Hartree energy correction     :          -9.55454116 Ha        -259.99229316 eV
  | van der Waals energy corr.    :           0.00000000 Ha           0.00000000 eV
  | Entropy correction            :           0.00000000 Ha           0.00000000 eV
  | ---------------------------
  | Total energy                  :        -382.72849915 Ha      -10414.57234952 eV
  | Total energy, T -> 0          :        -382.72849915 Ha      -10414.57234952 eV  <-- do not rely on this value for anything but (periodic) metals
  | Electronic free energy        :        -382.72849915 Ha      -10414.57234952 eV

  Derived energy quantities:
  | Kinetic energy                :         381.57921668 Ha       10383.29878240 eV
  | Electrostatic energy          :        -717.76747939 Ha      -19531.44686329 eV
  | Energy correction for multipole
[...]
   ----------------------------------------------------------------
   Total forces(   4)            : -.740691E+00 -.210308E+01 -.576538E+00
  atom #    5
   Hellmann-Feynman + Multipole  : -.214025E+00 0.903611E+00 0.102233E+01
   Pulay + GGA                   : 0.936600E-02 0.343052E-01 0.863009E-01
   Van der Waals               : 0.330412E-03 0.301974E-02 -.151415E-02
   ----------------------------------------------------------------
   Total forces(   5)            : -.204329E+00 0.940936E+00 0.110711E+01
  atom #    6
   Hellmann-Feynman + Multipole  : 0.757218E+00 0.768512E+00 0.132756E+00
   Pulay + GGA                   : -.106444E+00 -.498514E-01 0.646502E-01
   Van der Waals               : 0.209720E-02 0.451051E-02 0.589802E-03
   ----------------------------------------------------------------
   Total forces(   6)            : 0.652872E+00 0.723171E+00 0.197995E+00
  atom #    7
   Hellmann-Feynman + Multipole  : -.631641E+01 0.691822E+00 -.101288E+02
   Pulay + GGA                   : 0.921288E+01 -.322362E+00 0.116102E+02
   Van der Waals               : 0.103429E-02 -.630290E-04 0.491892E-02
   ----------------------------------------------------------------
   Total forces(   7)            : 0.289750E+01 0.369397E+00 0.148637E+01
  atom #    8
   Hellmann-Feynman + Multipole  : -.225332E+00 -.101503E+01 -.117692E+01
   Pulay + GGA                   : 0.425771E-01 0.937446E-01 0.902817E-01
   Van der Waals               : -.234900E-02 0.125384E-02 0.386638E-02
   ----------------------------------------------------------------
   Total forces(   8)            : -.185104E+00 -.920036E+00 -.108277E+01
  atom #    9
   Hellmann-Feynman + Multipole  : -.167280E+01 0.102522E+01 -.305048E+00
   Pulay + GGA                   : 0.127803E+00 -.550277E-01 0.199226E-01
   Van der Waals               : -.216219E-02 0.634679E-04 0.562378E-03
   ----------------------------------------------------------------
   Total forces(   9)            : -.154716E+01 0.970257E+00 -.284563E+00
  atom #   10
   Hellmann-Feynman + Multipole  : 0.653273E+01 -.516484E+01 -.913845E+01
   Pulay + GGA                   : -.690991E+01 0.621416E+01 0.114212E+02
   Van der Waals               : 0.230191E-02 -.287751E-02 -.439982E-02
   ----------------------------------------------------------------
   Total forces(  10)            : -.374877E+00 0.104644E+01 0.227833E+01
  atom #   11
   Hellmann-Feynman + Multipole  : -.331063E+00 0.205885E+00 -.234127E+01
   Pulay + GGA                   : 0.238096E-01 0.205792E-01 0.129425E+00
   Van der Waals               : -.196946E-02 0.352286E-03 -.321776E-02
   ----------------------------------------------------------------
   Total forces(  11)            : -.309223E+00 0.226817E+00 -.221506E+01
  atom #   12
   Hellmann-Feynman + Multipole  : 0.128665E+01 -.143069E+01 0.361100E+00
   Pulay + GGA                   : -.409597E-01 0.763564E-01 0.894440E-02
   Van der Waals               : 0.124795E-02 -.143812E-02 -.935703E-03
   ----------------------------------------------------------------
   Total forces(  12)            : 0.124694E+01 -.135577E+01 0.369109E+00
  atom #   13
   Hellmann-Feynman + Multipole  : -.164617E+01 -.135596E+02 -.714427E-01
   Pulay + GGA                   : 0.256756E+01 0.141790E+02 -.196821E+01
   Van der Waals               : 0.169391E-02 -.547649E-02 -.119399E-02
   ----------------------------------------------------------------
   Total forces(  13)            : 0.923080E+00 0.613937E+00 -.204085E+01
  atom #   14
   Hellmann-Feynman + Multipole  : -.283549E+00 0.538208E+00 0.298977E+00
   Pulay + GGA                   : -.800694E-01 0.938998E-01 0.720593E-01
   Van der Waals               : 0.170552E-02 -.220621E-02 0.284340E-03
   ----------------------------------------------------------------
   Total forces(  14)            : -.361913E+00 0.629901E+00 0.371321E+00
  atom #   15
   Hellmann-Feynman + Multipole  : -.100433E+01 -.900339E+00 0.155444E+01
   Pulay + GGA                   : 0.477315E-01 0.728158E-01 -.108193E+00
   Van der Waals               : -.142259E-03 -.713935E-03 -.139571E-02
   ----------------------------------------------------------------
   Total forces(  15)            : -.956742E+00 -.828238E+00 0.144485E+01
  Timings for vdw_correction_hirshfeld (Tkatchenko-Scheffler 2009):
  | CPU time:        5.044 s, Wall clock time:        5.044 s.
  Removing unitary transformations (pure translations, rotations) from forces on atoms.
  Atomic forces before filtering:
  | Net force on center of mass :  0.696154E-02 0.818029E-02 0.711531E-02 eV/A
  | Net torque on center of mass:  0.597266E-03 -.378491E-02 0.116960E-02 eV
  Atomic forces after filtering:
  | Net force on center of mass :  0.178406E-15 -.356812E-15 -.892031E-15 eV/A
  | Net torque on center of mass:  -.191177E-14 -.151054E-14 0.377634E-15 eV
 
  Energy and forces in a compact form:
  | Total energy uncorrected      :         -0.104146306216845E+05 eV
  | Total energy corrected        :         -0.104146306216845E+05 eV  <-- do not rely on this value for anything but (periodic) metals
  | Electronic free energy        :         -0.104146306216845E+05 eV
  Total atomic forces (unitary forces cleaned) [eV/Ang]:
  |   1         -0.144398002083682E+01          0.354701779929521E+01         -0.226466416333170E+01
  |   2          0.219895158062629E+01         -0.353925897100684E+01          0.145508068790188E+01
  |   3         -0.179009551624275E+01         -0.315062283423714E+00         -0.239979905254308E+00
  |   4         -0.741122685997971E+00         -0.210361378785428E+01         -0.576943018313475E+00
  |   5         -0.204730525491975E+00          0.940409929500506E+00          0.110668344866257E+01
  |   6          0.652456753482220E+00          0.722638217325469E+00          0.197645154577711E+00
  |   7          0.289692648071071E+01          0.368819668661182E+00          0.148577676852234E+01
  |   8         -0.185632305141049E+00         -0.920598739827130E+00         -0.108337389776094E+01
  |   9         -0.154772076536107E+01          0.969683843543047E+00         -0.285187266359667E+00
  |  10         -0.375244591712233E+00          0.104592689075219E+01          0.227784095855037E+01
  |  11         -0.309533602859172E+00          0.226324641896464E+00         -0.221556102260503E+01
  |  12          0.124656508419062E+01         -0.135629001280885E+01          0.368645406851180E+00
  |  13          0.922664495695233E+00          0.613406272750576E+00         -0.204126824823370E+01
  |  14         -0.362303356931365E+00          0.629378479656027E+00          0.370911322174405E+00
  |  15         -0.957201024130673E+00         -0.828781948459859E+00          0.144439377461836E+01
 
  ------------------------------------ 
  Start decomposition of the XC Energy 
  ------------------------------------ 
  Hartree-Fock part   :          0.000000000 Ha              0.000000000 eV
  ------------------------------------ 
  X Energy            :        -44.904582925 Ha          -1221.915871773 eV
  C Energy GGA        :         -1.635079882 Ha            -44.492787346 eV
  Total XC Energy     :        -46.539662806 Ha          -1266.408659119 eV
  LDA X and C from self-consistent density 
  X Energy LDA        :        -40.466873698 Ha          -1101.159659718 eV
  C Energy LDA        :         -3.297362409 Ha            -89.725796343 eV
  ------------------------------------ 
  End decomposition of the XC Energy 
  ------------------------------------ 
  Performing Hirshfeld analysis of fragment charges and moments.
  ----------------------------------------------------------------------
  | Atom     1: O
  |   Hirshfeld charge        :     -0.32938337
  |   Free atom volume        :     23.95238533
  |   Hirshfeld volume        :     23.57123847
  |   Hirshfeld dipole vector :      0.03055277       0.04545856       0.03120170
  |   Hirshfeld dipole moment :      0.06303570
  |   Hirshfeld second moments:      0.01173777      -0.02878759       0.01830440
  |                                 -0.02878759      -0.02835964      -0.03667926
  |                                  0.01830440      -0.03667926      -0.07196041
  ----------------------------------------------------------------------
  | Atom     2: H
  |   Hirshfeld charge        :      0.10450520
  |   Free atom volume        :     10.44207651
  |   Hirshfeld volume        :      7.44949797
  |   Hirshfeld dipole vector :     -0.05787550       0.09151208      -0.02740952
  |   Hirshfeld dipole moment :      0.11169295
  |   Hirshfeld second moments:      0.10205629       0.00398994       0.00768611
  |                                  0.00398994       0.07647594      -0.00694963
  |                                  0.00768611      -0.00694963       0.07178197
  ----------------------------------------------------------------------
  | Atom     3: H
  |   Hirshfeld charge        :      0.05981946
  |   Free atom volume        :     10.44207651
  |   Hirshfeld volume        :      8.44091402
  |   Hirshfeld dipole vector :      0.04586988       0.00741967       0.01739121
  |   Hirshfeld dipole moment :      0.04961403
  |   Hirshfeld second moments:      0.02523865      -0.02773637      -0.00080696
  |                                 -0.02773637       0.07775134      -0.00506502
  |                                 -0.00080696      -0.00506502       0.05667702
  ----------------------------------------------------------------------
  | Atom     4: O
  |   Hirshfeld charge        :     -0.31681085
  |   Free atom volume        :     23.95238533
  |   Hirshfeld volume        :     22.54559745
  |   Hirshfeld dipole vector :     -0.03030605       0.02601698       0.01713575
  |   Hirshfeld dipole moment :      0.04346233
  |   Hirshfeld second moments:      0.01337054       0.05503487      -0.01276326
  |                                  0.05503487       0.00469794       0.01793573
  |                                 -0.01276326       0.01793573      -0.01457552
  ----------------------------------------------------------------------
  | Atom     5: H
  |   Hirshfeld charge        :      0.06862939
  |   Free atom volume        :     10.44207651
  |   Hirshfeld volume        :      8.23623779
  |   Hirshfeld dipole vector :      0.01186003       0.03860536       0.02999166
  |   Hirshfeld dipole moment :      0.05030441
  |   Hirshfeld second moments:      0.07849222      -0.00067886      -0.01245520
  |                                 -0.00067886       0.03071721      -0.01943105
  |                                 -0.01245520      -0.01943105       0.06610977
  ----------------------------------------------------------------------
  | Atom     6: H
  |   Hirshfeld charge        :      0.12059799
  |   Free atom volume        :     10.44207651
  |   Hirshfeld volume        :      6.97650531
  |   Hirshfeld dipole vector :     -0.10203157      -0.05975298       0.02110654
  |   Hirshfeld dipole moment :      0.12010973
  |   Hirshfeld second moments:      0.09060037       0.01426793      -0.00053615
  |                                  0.01426793       0.10415810       0.01241449
  |                                 -0.00053615       0.01241449       0.09500769
  ----------------------------------------------------------------------
  | Atom     7: O
  |   Hirshfeld charge        :     -0.18409180
  |   Free atom volume        :     23.95238533
  |   Hirshfeld volume        :     20.47573041
  |   Hirshfeld dipole vector :     -0.01821373      -0.02772561       0.03308118
  |   Hirshfeld dipole moment :      0.04684884
  |   Hirshfeld second moments:      0.07280723      -0.02695216       0.00592283
  |                                 -0.02695216       0.08048203       0.03833159
  |                                  0.00592283       0.03833159       0.04752212
  ----------------------------------------------------------------------
  | Atom     8: H
  |   Hirshfeld charge        :      0.16955803
  |   Free atom volume        :     10.44207651
  |   Hirshfeld volume        :      6.24004240
  |   Hirshfeld dipole vector :      0.00410003       0.07013899       0.08808154
  |   Hirshfeld dipole moment :      0.11267052
  |   Hirshfeld second moments:      0.12979289      -0.00910779       0.01044608
  |                                 -0.00910779       0.12760325      -0.00289433
  |                                  0.01044608      -0.00289433       0.10176199
  ----------------------------------------------------------------------
  | Atom     9: H
  |   Hirshfeld charge        :      0.17390804
  |   Free atom volume        :     10.44207651
  |   Hirshfeld volume        :      5.74123695
  |   Hirshfeld dipole vector :      0.09086218      -0.07852895       0.01311771
  |   Hirshfeld dipole moment :      0.12080897
  |   Hirshfeld second moments:      0.12603478       0.00172772       0.00065195
  |                                  0.00172772       0.13079339       0.01587081
  |                                  0.00065195       0.01587081       0.13240848
  ----------------------------------------------------------------------
  | Atom    10: O
  |   Hirshfeld charge        :     -0.26453685
  |   Free atom volume        :     23.95238533
  |   Hirshfeld volume        :     21.56080614
  |   Hirshfeld dipole vector :     -0.04512300      -0.02281137       0.01077440
  |   Hirshfeld dipole moment :      0.05169653
  |   Hirshfeld second moments:     -0.00343516      -0.02811809       0.02442133
  |                                 -0.02811809       0.02641774      -0.00263857
  |                                  0.02442133      -0.00263857       0.06399750
  ----------------------------------------------------------------------
  | Atom    11: H
  |   Hirshfeld charge        :      0.14142959
  |   Free atom volume        :     10.44207651
  |   Hirshfeld volume        :      6.34363962
  |   Hirshfeld dipole vector :      0.01309469      -0.01845774       0.11722708
  |   Hirshfeld dipole moment :      0.11939158
  |   Hirshfeld second moments:      0.11185814      -0.01309222       0.00654110
  |                                 -0.01309222       0.11423432       0.00263995
  |                                  0.00654110       0.00263995       0.11005155
  ----------------------------------------------------------------------
  | Atom    12: H
  |   Hirshfeld charge        :      0.08858797
  |   Free atom volume        :     10.44207651
  |   Hirshfeld volume        :      7.57171622
  |   Hirshfeld dipole vector :     -0.03501931       0.02546529       0.00221402
  |   Hirshfeld dipole moment :      0.04335591
  |   Hirshfeld second moments:      0.05070178       0.02137772      -0.01702928
  |                                  0.02137772       0.06304488       0.01121407
  |                                 -0.01702928       0.01121407       0.10589996
  ----------------------------------------------------------------------
  | Atom    13: O
  |   Hirshfeld charge        :     -0.18881695
  |   Free atom volume        :     23.95238533
  |   Hirshfeld volume        :     20.01959590
  |   Hirshfeld dipole vector :      0.02185005       0.01264880       0.01216349
  |   Hirshfeld dipole moment :      0.02802441
  |   Hirshfeld second moments:      0.06128275      -0.02186227      -0.04214271
  |                                 -0.02186227       0.07451292      -0.00678752
  |                                 -0.04214271      -0.00678752       0.09642631
  ----------------------------------------------------------------------
  | Atom    14: H
  |   Hirshfeld charge        :      0.17158026
  |   Free atom volume        :     10.44207651
  |   Hirshfeld volume        :      5.46524136
  |   Hirshfeld dipole vector :     -0.06066468       0.08263682       0.06742474
  |   Hirshfeld dipole moment :      0.12269940
  |   Hirshfeld second moments:      0.13064376       0.00049855      -0.01005440
  |                                  0.00049855       0.13248656      -0.01202780
  |                                 -0.01005440      -0.01202780       0.14115127
  ----------------------------------------------------------------------
  | Atom    15: H
  |   Hirshfeld charge        :      0.18497077
  |   Free atom volume        :     10.44207651
  |   Hirshfeld volume        :      5.65791910
  |   Hirshfeld dipole vector :      0.05841816       0.05127735      -0.09363999
  |   Hirshfeld dipole moment :      0.12169838
  |   Hirshfeld second moments:      0.12602819      -0.00964029      -0.00670759
  |                                 -0.00964029       0.13805542       0.00644067
  |                                 -0.00670759       0.00644067       0.13402283
  ----------------------------------------------------------------------


------------------------------------------------------------------------------
  Final output of selected total energy values:

  The following output summarizes some interesting total energy values
  at the end of a run (AFTER all relaxation, molecular dynamics, etc.).

  | Total energy of the DFT / Hartree-Fock s.c.f. calculation      :         -10414.630621684 eV
  | Final zero-broadening corrected energy (caution - metals only) :         -10414.630621684 eV
  | For reference only, the value of 1 Hartree used in FHI-aims is :             27.211384500 eV

  Before relying on these values, please be sure to understand exactly which
  total energy value is referred to by a given number. Different objects may
  all carry the same name 'total energy'. Definitions:

  Total energy of the DFT / Hartree-Fock s.c.f. calculation:
  | Note that this energy does not include ANY quantities calculated after the
  | s.c.f. cycle, in particular not ANY RPA, MP2, etc. many-body perturbation terms.

  Final zero-broadening corrected energy:
  | For metallic systems only, a broadening of the occupation numbers at the Fermi
  | level can be extrapolated back to zero broadening by an electron-gas inspired
  | formula. For all systems that are not real metals, this value can be
  | meaningless and should be avoided.

------------------------------------------------------------------------------

------------------------------------------------------------
          Leaving FHI-aims.
          Date     :  20150727, Time     :  120225.680

          Computational steps:
          | Number of self-consistency cycles          :           15

          Detailed time accounting                     :  max(cpu_time)    wall_clock(cpu1)
          | Total time                                 :       34.060 s          34.105 s
          | Preparation time                           :        0.169 s           0.468 s
          | Grid partitioning                          :        0.164 s           0.164 s
          | Preloading free-atom quantities on grid    :        0.014 s           0.014 s
          | Free-atom superposition energy             :        0.065 s           0.065 s
          | Total time for integrations                :       14.096 s          14.095 s
          | Total time for solution of K.-S. equations :        1.008 s           1.007 s
          | Total time for density & force components  :       11.743 s          11.743 s
          | Total time for mixing                      :        0.188 s           0.191 s
          | Total time for Hartree multipole update    :        0.071 s           0.071 s
          | Total time for Hartree multipole sum       :        5.921 s           5.921 s
          | Total time for total energy evaluation     :        0.004 s           0.003 s
          | Total time for scaled ZORA corrections     :        0.000 s           0.000 s
          | Total time for TS (2009) vdW correction    :        0.052 s           0.052 s

          Have a nice day.
------------------------------------------------------------
