  MPI-parallelism will be employed.
------------------------------------------------------------
          Invoking FHI-aims ...
          Version 081213
          Compiled on 2013/08/29 at 17:41:06 on host generoso.

          When using FHI-aims, please cite the following reference:

          Volker Blum, Ralf Gehrke, Felix Hanke, Paula Havu,
          Ville Havu, Xinguo Ren, Karsten Reuter, and Matthias Scheffler,
          'Ab Initio Molecular Simulations with Numeric Atom-Centered Orbitals: FHI-aims',
          Computer Physics Communications 180, 2175-2196 (2009)

          For any questions about FHI-aims, please visit the aimsclub website
          with its forums and wiki. Contributions to both the forums and the
          wiki are warmly encouraged - they are for you, and everyone is welcome there.

------------------------------------------------------------

  Date     :  20150727, Time     :  120911.691
  Time zero on CPU 1             :   0.319950000000000E-01  s.
  Internal wall clock time zero  :           207230951.691  s.

  Using        8 parallel tasks.
  Task        0 on host gen60 reporting.
  Task        1 on host gen60 reporting.
  Task        2 on host gen60 reporting.
  Task        3 on host gen60 reporting.
  Task        4 on host gen60 reporting.
  Task        5 on host gen60 reporting.
  Task        6 on host gen60 reporting.
  Task        7 on host gen60 reporting.

  Performing system and environment tests:
  | Environment variable OMP_NUM_THREADS correctly set to 1.
  | Checking for scalapack...
  | No scalapack compiled in.

  Obtaining array dimensions for all initial allocations:
  
  -----------------------------------------------------------------------
  Parsing control.in (first pass over file, find array dimensions only).
  The contents of control.in will be repeated verbatim below
  unless switched off by setting 'verbatim_writeout .false.' .
  in the first line of control.in .
  -----------------------------------------------------------------------
  
  #########################################################################################
  #
  #  Volker Blum, FHI 2008 : Test run input file control.in
  #
  #########################################################################################
  #
  #  Physical model
  #
    xc                 rpbe
    spin               none
    relativistic       atomic_zora scalar
    charge             0.
   vdw_correction_hirshfeld
  #
  #  SCF convergence
  #
    occupation_type    gaussian 0.01
    mixer              pulay
      n_max_pulay        10
      charge_mix_param   0.1
    sc_accuracy_rho    5E-5
    sc_accuracy_eev    5E-3
    sc_accuracy_etot   5E-6
    sc_iter_limit      3000
  #
  #  Eigenvalue solver
  #
    KS_method          lapack
      empty_states       8
      basis_threshold    0.e-5
  #
  #  Efficiency
  #
  #   all previous settings are now default, except stratmann still
  #   undecided. Continue to handle stratmann with care, if at all.
  #
  #  partition_type stratmann
    partition_type rho_r2
  #  hartree_partition_type stratmann
  #
  #  Oprions for large clusters (100's of atoms: memory saving / better scaling)
  #
  # for periodic systems:
  #
    density_update_method orbital
    packed_matrix_format none
  #  k_grid 6 6 6
  #  output k_eigenvalue 1
  #  distributed_spline_storage .true.
  #
  #  Relaxation
  #
  #  relax_geometry   bfgs 5.e-3
    sc_accuracy_forces 5.E-4
    final_forces_cleaned .true.
  #
  #  Output options
  #
  #  output mulliken
    output Hirshfeld
  #  output dipole
  
  #harmonic_length_scale 0.001
  
  ################################################################################
  #
  #  FHI-aims code project
  #  VB, Fritz-Haber Institut, 2007
  #
  #  Suggested "safe" defaults for H atom (to be pasted into control.in file)
  #  Basis constructed for a non-relativistic H2 molecule using the
  #  PW-LDA functional.
  #
  ################################################################################
    species        H
  #     global species definitions
      nucleus             1
      cut_pot             4.0  2.0  1.0
      cut_free_atom       finite 8.0
      logarithmic         0.00010000 100.00  1.0123
      basis_dep_cutoff    1d-4  # 1d-4 is safe default - please check 5d-4 if you wish!
      radial_base         24 7.0
      radial_multiplier   2
      angular_grids       specified
        division   0.2783  110
        division   0.3822  194
        division   0.5626  302
  #      division   0.5922  434
  #      division   0.6227  590
  #      division   0.7206  770
        outer_grid  302
      l_hartree           4
  ################################################################################
  #
  #  Definition of "minimal" basis
  #
  ################################################################################
  #     valence basis states
      valence      1  s   1.
  #     ion occupancy
      ion_occ      1  s   0.5
  ################################################################################
  #
  #  Suggested additional basis functions. For production calculations,
  #  uncomment them one after another (the most important basis functions are
  #  listed first).
  #
  ################################################################################
  #  "First tier" - improvements: -1014.90 meV to -62.69 meV
       hydro 2 s 2.1
       hydro 2 p 3.5
  #  "Second tier" - improvements: -12.89 meV to -1.83 meV
       hydro 1 s 0.85
       hydro 2 p 3.7
       hydro 2 s 1.2
       hydro 3 d 7
  #  "Third tier" - improvements: -0.25 meV to -0.12 meV
  #     hydro 4 f 11.2
  #     hydro 3 p 4.8
  #     hydro 4 d 9
  #     hydro 3 s 3.2
  
  ################################################################################
  #
  #  FHI-aims code project
  #  VB, Fritz-Haber Institut, 2007
  #
  #  Suggested "safe" defaults for O atom (to be pasted into control.in file)
  #  All values have been tested for a non-relativistic, non-spinpolarized O2
  #  molecule using the PW-LDA functional. Validity for PBE is expected.
  #
  #  Constructed for dimers: 1.0 A, 1.208 A, 1.5 A, 2.0 A, 3.0 A
  #
  ################################################################################
    species        O
  #     global species definitions
      nucleus             8
      mass                15.9994
      l_hartree           4
      cut_pot             4.0  2.0  1.0
      cut_free_atom       finite 8.0
      basis_dep_cutoff    1d-4  # 1d-4 is safe default - please check 5d-4 if you wish!
      logarithmic         0.00010000 100.00  1.0123
      radial_base         36 7.0
      radial_multiplier   2
       angular_grids specified
        division   0.4087  110
        division   0.5181  194
        division   0.6184  302
  #      division   0.7315  434
  #      division   0.7934  590
  #      division   0.9656  770
  #      division   1.4041  974
  #      outer_grid 974
        outer_grid 302
  ################################################################################
  #
  #  Definition of "minimal" basis
  #
  ################################################################################
  #     valence basis states
      valence      2  s   2.
      valence      2  p   4.
  #     ion occupancy
      ion_occ      2  s   1.
      ion_occ      2  p   3.
  ################################################################################
  #
  #  Suggested additional basis functions. For production calculations,
  #  uncomment them one after another (the most important basis functions are
  #  listed first).
  #
  ################################################################################
  #  "First tier" - improvements: -699.05 meV to -159.38 meV
       hydro 2 p 1.8
       hydro 3 d 7.6
       hydro 3 s 6.4
  #  "Second tier" - improvements: -49.91 meV to -5.39 meV
       hydro 4 f 11.6
       hydro 3 p 6.2
       hydro 3 d 5.6
       hydro 5 g 17.6
       hydro 1 s 0.75
  #  "Third tier" - improvements: -2.83 meV to -0.50 meV
  #     ionic 2 p auto
  #     hydro 4 f 10.8
  #     hydro 4 d 4.7
  #     hydro 2 s 6.8
  #  "Fourth tier" - improvements: -0.40 meV to -0.12 meV
  #     hydro 3 p 5
  #     hydro 3 s 3.3
  #     hydro 5 g 15.6
  #     hydro 4 f 17.6
  #     hydro 4 d 14
  # Further basis functions - -0.08 meV and below
  #     hydro 3 s 2.1
  #     hydro 4 d 11.6
  #     hydro 3 p 16
  #     hydro 2 s 17.2
  
  
  -----------------------------------------------------------------------
  Completed first pass over input file control.in .
  -----------------------------------------------------------------------
  
  
  -----------------------------------------------------------------------
  Parsing geometry.in (first pass over file, find array dimensions only).
  The contents of geometry.in will be repeated verbatim below
  unless switched off by setting 'verbatim_writeout .false.' .
  in the first line of geometry.in .
  -----------------------------------------------------------------------
  
  atom      -4.053030000      0.065001000     -1.525160000  O
  atom      -4.566710000      0.974813000     -1.912820000  H
  atom      -3.067820000      0.330172000     -1.477310000  H
  atom      -4.581760000     -0.256435000      0.939478000  O
  atom      -4.349860000      0.471090000      1.504340000  H
  atom      -5.393870000     -0.726611000      1.228070000  H
  atom      -3.818880000      2.024990000      2.187990000  O
  atom      -3.690880000      1.961360000      3.202150000  H
  atom      -4.546490000      2.751300000      2.045370000  H
  atom      -1.975360000      2.858040000      0.453140000  O
  atom      -1.223550000      3.375850000      0.786238000  H
  atom      -2.537520000      2.567960000      1.156120000  H
  
  -----------------------------------------------------------------------
  Completed first pass over input file geometry.in .
  -----------------------------------------------------------------------
  
 
  Basic array size parameters: 
  | Number of species                 :        2
  | Number of atoms                   :       12
  | Max. basis fn. angular momentum   :        4
  | Max. atomic/ionic basis occupied n:        2
  | Max. number of basis fn. types    :        2
  | Max. radial fns per species/type  :        8
  | Max. logarithmic grid size        :     1301
  | Max. radial integration grid size :       73
  | Max. angular integration grid size:      302
  | Max. angular grid division number :        8
  | Radial grid for Hartree potential :     1301
  | Number of spin channels           :        1

------------------------------------------------------------
          Reading file control.in.
------------------------------------------------------------
  XC: Using RPBE gradient-corrected functionals.
  Spin treatment: No spin polarisation.
  Scalar relativistic treatment of kinetic energy: on-site free-atom approximation to ZORA.
  Charge =   0.000000E+00: Neutral system requested explicitly.
  Using non-empirical van der Waals correction (Hirshfeld partitioning):
  Occupation type: Gaussian broadening, width =   0.100000E-01 eV.
  Using pulay charge density mixing.
  Pulay mixing - number of memorized iterations:   10
  Charge density mixing - mixing parameter:     0.1000
  Convergence accuracy of self-consistent charge density: 0.5000E-04
  Convergence accuracy of sum of eigenvalues: 0.5000E-02
  Convergence accuracy of total energy: 0.5000E-05
  Maximum number of s.-c. iterations  :  3000
  Kohn-Sham eigenvalues and eigenfunctions calculated by lapack diagonalisation (D&C).
  Number of empty states per atom:        8
  Threshold for basis singularities: 0.0000E+00
  Partition function in integrals calculations: rho / r^2
 Using packed matrix format           0
  Convergence accuracy of forces: 0.5000E-03
  Cleaning forces before final output.
  Hirshfeld charge analysis will be performed.
 
  Reading configuration options for species H                   .
  | Found nuclear charge :   1.0000
  | Found cutoff potl. onset [A], width [A], scale factor :    4.00000    2.00000    1.00000
  | Found cutoff specification for free atom: Cutoff potential begins at    8.00000 A.
  | Found logarithmic grid data [bohr] : 0.1000E-03 0.1000E+03 0.1012E+01
  | Threshold for basis-dependent cutoff potential is   0.100000E-03
  | Found data for basic radial integration grid :    24 points, outermost radius =    7.000 A
  | Found multiplier for basic radial grid :   2
  | Found angular grid specification: user-specified.
  | Specified grid contains     4 separate shells.
  | Check grid settings after all constraints further below.
  | Found l_max for Hartree potential  :   4
  | Found free-atom valence shell :  1 s   1.000
  | No ionic wave fns used. Skipping ion_occ.
  | Found hydrogenic basis function :  2 s   2.100
  | Found hydrogenic basis function :  2 p   3.500
  | Found hydrogenic basis function :  1 s   0.850
  | Found hydrogenic basis function :  2 p   3.700
  | Found hydrogenic basis function :  2 s   1.200
  | Found hydrogenic basis function :  3 d   7.000
  Species H                   : Missing cutoff potential type.
  Defaulting to exp(1/x)/(1-x)^2 type cutoff potential.
  Species H : On-site basis accuracy parameter (for Gram-Schmidt orthonormalisation) not specified.
  Using default value basis_acc =  0.1000000E-03.
  Species H                   : Using default innermost maximum threshold i_radial=  2 for radial functions.
  Species H                   : Basic radial grid will be enhanced according to radial_multiplier =   2, to contain    49 grid points.
 
  Reading configuration options for species O                   .
  | Found nuclear charge :   8.0000
  | Found atomic mass :    15.9994000000000      amu
  | Found l_max for Hartree potential  :   4
  | Found cutoff potl. onset [A], width [A], scale factor :    4.00000    2.00000    1.00000
  | Found cutoff specification for free atom: Cutoff potential begins at    8.00000 A.
  | Threshold for basis-dependent cutoff potential is   0.100000E-03
  | Found logarithmic grid data [bohr] : 0.1000E-03 0.1000E+03 0.1012E+01
  | Found data for basic radial integration grid :    36 points, outermost radius =    7.000 A
  | Found multiplier for basic radial grid :   2
  | Found angular grid specification: user-specified.
  | Specified grid contains     4 separate shells.
  | Check grid settings after all constraints further below.
  | Found free-atom valence shell :  2 s   2.000
  | Found free-atom valence shell :  2 p   4.000
  | No ionic wave fns used. Skipping ion_occ.
  | No ionic wave fns used. Skipping ion_occ.
  | Found hydrogenic basis function :  2 p   1.800
  | Found hydrogenic basis function :  3 d   7.600
  | Found hydrogenic basis function :  3 s   6.400
  | Found hydrogenic basis function :  4 f  11.600
  | Found hydrogenic basis function :  3 p   6.200
  | Found hydrogenic basis function :  3 d   5.600
  | Found hydrogenic basis function :  5 g  17.600
  | Found hydrogenic basis function :  1 s   0.750
  Species O                   : Missing cutoff potential type.
  Defaulting to exp(1/x)/(1-x)^2 type cutoff potential.
  Species O : On-site basis accuracy parameter (for Gram-Schmidt orthonormalisation) not specified.
  Using default value basis_acc =  0.1000000E-03.
  Species O                   : Using default innermost maximum threshold i_radial=  2 for radial functions.
  Species O                   : Basic radial grid will be enhanced according to radial_multiplier =   2, to contain    73 grid points.
 
  Finished reading input file 'control.in'. Consistency checks are next.
 
  Target number of points in a grid batch is not set. Defaulting to  100
  Method for grid partitioning is not set. Defaulting to parallel hash+maxmin partitioning.
  Batch size limit is not set. Defaulting to    200
  By default, will store active basis functions for each batch.
  If in need of memory, prune_basis_once .false. can be used to disable this option.
  communication_type for Hartree potential was not specified.
  Defaulting to calc_hartree .
  Pulay mixer: Number of initial linear mixing iterations not set.
  Defaulting to    0 iterations.
  Work space size for distributed Hartree potential not set.
  Defaulting to   0.200000E+03 MB.
  Algorithm-dependent basis array size parameters:
  | n_max_pulay                         :       10
  Geometry relaxation not requested: no relaxation will be performed.
  Handling of forces: Unphysical translation and rotation will be removed from forces.
  No accuracy limit for integral partition fn. given. Defaulting to 0.1000E-14.
  No threshold value for u(r) in integrations given. Defaulting to 0.1000E-05.
  No accuracy for occupation numbers given. Defaulting to 0.1000E-07.
  No threshold value for occupation numbers given. Defaulting to 0.0000E+00.
  No accuracy for fermi level given. Defaulting to 0.1000E-19.
  Maximum # of iterations to find E_F not set. Defaulting to  200.
  Will not use alltoall communication since running on < 1024 CPUs.
  Partitioning for Hartree potential was not defined. Using partition_type for integrals.
  | Reporting present value of keyword multip_moments_threshold  :       0.10000000E-09
  | This value may affect high angular momentum components of the Hartree potential in periodic systems.
  No q(lm)/r^(l+1) cutoff set for long-range Hartree potential.
  | Using default value of  0.100000E-09 .
  | Verify using the multipole_threshold keyword.
  Defaulting to new monopole extrapolation.
  Density update method: Loop over occupied states selected for charge density update.
------------------------------------------------------------


------------------------------------------------------------
          Reading geometry description geometry.in.
------------------------------------------------------------
  Input structure read successfully.
  The structure contains       12 atoms,  and a total of         40.000 electrons.

  Input geometry:
  | No unit cell requested.
  | Atomic structure:
  |       Atom                x [A]            y [A]            z [A]
  |    1: Species O             -4.053030         0.065001        -1.525160
  |    2: Species H             -4.566710         0.974813        -1.912820
  |    3: Species H             -3.067820         0.330172        -1.477310
  |    4: Species O             -4.581760        -0.256435         0.939478
  |    5: Species H             -4.349860         0.471090         1.504340
  |    6: Species H             -5.393870        -0.726611         1.228070
  |    7: Species O             -3.818880         2.024990         2.187990
  |    8: Species H             -3.690880         1.961360         3.202150
  |    9: Species H             -4.546490         2.751300         2.045370
  |   10: Species O             -1.975360         2.858040         0.453140
  |   11: Species H             -1.223550         3.375850         0.786238
  |   12: Species H             -2.537520         2.567960         1.156120
  |

  | The smallest distance between any two atoms is         0.94570141 AA.
  |
  | The first atom of this pair is atom number                     10 .
  | The second atom of this pair is atom number                    12 .

  Structure-dependent array size parameters: 
  | Maximum number of distinct radial functions  :       18
  | Maximum number of basis functions            :      276
  | Number of Kohn-Sham states (occupied + empty):       68
------------------------------------------------------------

------------------------------------------------------------
          Preparing all fixed parts of the calculation.
------------------------------------------------------------
  Determining machine precision:
    2.225073858507201E-308
  Setting up grids for atomic and cluster calculations.

  Creating wave function, potential, and density for free atoms.

  Species: H

  List of occupied orbitals and eigenvalues:
    n    l              occ      energy [Ha]    energy [eV]
    1    0           1.0000        -0.241408        -6.5691


  Species: O

  List of occupied orbitals and eigenvalues:
    n    l              occ      energy [Ha]    energy [eV]
    1    0           2.0000       -18.944147      -515.4965
    2    0           2.0000        -0.883529       -24.0421
    2    1           4.0000        -0.330176        -8.9845

  Creating fixed part of basis set: Ionic, confined, hydrogenic.
 
  H                    hydrogenic:
 
  List of hydrogenic basis orbitals: 
    n    l      effective z      eigenvalue [eV]  inner max. [A]     outer max. [A]     outer radius [A]   
    2    0         2.100000       -14.9965           0.193241           1.317192           5.372934
    2    1         3.500000       -41.6672           0.602363           0.602363           4.056010
    1    0         0.850000        -9.8292           0.624864           0.624864           5.372934
    2    1         3.700000       -46.5653           0.573616           0.573616           3.909951
    2    0         1.200000        -4.5995           0.334977           2.228160           5.505921
    3    2         7.000000       -74.0753           0.680692           0.680692           3.769152
 
 
  O                    hydrogenic:
 
  List of hydrogenic basis orbitals: 
    n    l      effective z      eigenvalue [eV]  inner max. [A]     outer max. [A]     outer radius [A]   
    2    1         1.800000       -11.0118           1.178546           1.178546           5.432516
    3    2         7.600000       -87.3182           0.624117           0.624117           3.541422
    3    0         6.400000       -61.9209           0.061166           1.081887           4.306510
    4    3        11.600000      -114.4238           0.731621           0.731621           3.584982
    3    1         6.200000       -58.1113           0.255677           1.030255           4.306510
    3    2         5.600000       -47.4081           0.847222           0.847222           4.413102
    5    4        17.600000      -168.5799           0.749730           0.749730           3.372413
    1    0         0.750000        -7.6499           0.705275           0.705275           5.366508
 

  Adding cutoff potential to free-atom effective potential.
  Creating atomic-like basis functions for current effective potential.

  Species H                   :

  List of atomic basis orbitals and eigenvalues:
    n    l      energy [Ha]    energy [eV]    outer radius [A]
    1    0        -0.241374        -6.5681       5.372934


  Species O                   :

  List of atomic basis orbitals and eigenvalues:
    n    l      energy [Ha]    energy [eV]    outer radius [A]
    1    0       -18.944147      -515.4965       1.415745
    2    0        -0.883529       -24.0421       5.048305
    2    1        -0.330173        -8.9845       5.301302

  Assembling full basis from fixed parts.
  | Species H :   atomic orbital   1 s accepted.
  | Species H :    hydro orbital   2 s accepted.
  | Species H :    hydro orbital   1 s accepted.
  | Species H :    hydro orbital   2 s accepted.
  | Species H :    hydro orbital   2 p accepted.
  | Species H :    hydro orbital   2 p accepted.
  | Species H :    hydro orbital   3 d accepted.
  | Species O :   atomic orbital   1 s accepted.
  | Species O :    hydro orbital   3 s accepted.
  | Species O :   atomic orbital   2 s accepted.
  | Species O :    hydro orbital   1 s accepted.
  | Species O :    hydro orbital   3 p accepted.
  | Species O :   atomic orbital   2 p accepted.
  | Species O :    hydro orbital   2 p accepted.
  | Species O :    hydro orbital   3 d accepted.
  | Species O :    hydro orbital   3 d accepted.
  | Species O :    hydro orbital   4 f accepted.
  | Species O :    hydro orbital   5 g accepted.
 
  Basis size parameters after reduction:
  | Total number of radial functions:       18
  | Total number of basis functions :      276
 
  Testing on-site integration grid accuracy.
  |  Species  Function  <phi|h_atom|phi> (log., in eV)  <phi|h_atom|phi> (rad., in eV)
           1        1                 -6.5683835025                 -6.5684759159
           1        2                 13.3711789951                 13.3708738703
           1        3                 23.6590910787                 23.6532055418
           1        4                 16.2963827186                 16.1870710655 ***
           1        5                 28.7627214838                 28.7627215090
           1        6                 59.5965249172                 59.5965950857
           1        7                 60.2220506392                 60.2220503827
           2        8               -515.4964576505               -515.4964530710
           2        9                 15.3030791347                 15.3030722972
           2       10                -21.7296094581                -21.7296135470
           2       11                 14.2969371730                 14.2969701621
           2       12                 21.0679693190                 21.0679697493
           2       13                 -2.3833606469                 -2.3833613176
           2       14                 13.7067136422                 13.7066766629
           2       15                 45.8013116808                 45.8013116965
           2       16                 52.2309815402                 52.2309831494
           2       17                 85.4120732416                 85.4120732763
           2       18                142.1019167745                142.1019167817
 * Note: Onsite integrals marked "***" above are less accurate than
 * onsite_accuracy_threshold =    0.03000 eV. Usually, this is harmless.
 * When in doubt, tighten the "radial" and/or "radial_multiplier" flags to check.

  Preparing densities etc. for the partition functions (integrals / Hartree potential).

  Preparations completed.
  max(cpu_time)          :      0.170 s.
  Wall clock time (cpu1) :      0.534 s.
------------------------------------------------------------

------------------------------------------------------------
          Begin self-consistency loop: Initialization.

          Date     :  20150727, Time     :  120912.235
------------------------------------------------------------

  Initializing index lists of integration centers etc. from given atomic structure:
  | Number of centers in hartree potential         :        12
  | Number of centers in hartree multipole         :        12
  | Number of centers in electron density summation:        12
  | Number of centers in basis integrals           :        12
  | Number of centers in integrals                 :        12
  Partitioning the integration grid into batches with parallel hashing+maxmin method.
  | Number of batches:     1768
  | Maximal batch size:     197
  | Minimal batch size:      55
  | Average batch size:      89.009
  | Standard deviation of batch sizes:      29.600

  Integration load balanced across     8 MPI tasks.
  Work distribution over tasks is as follows:
  Task     0 has      19682 integration points.
  Task     1 has      19598 integration points.
  Task     2 has      19604 integration points.
  Task     3 has      19607 integration points.
  Task     4 has      19751 integration points.
  Task     5 has      19776 integration points.
  Task     6 has      19655 integration points.
  Task     7 has      19695 integration points.
  Initializing partition tables, free-atom densities, potentials, etc. across the integration grid (initialize_grid_storage).
  | Net number of integration points:   157368
  | of which are non-zero points    :   156865
  Obtaining max. number of non-zero basis functions in each batch (get_n_compute_maxes).
  | Maximal number of non-zero basis functions:      274 in task     0
  | Maximal number of non-zero basis functions:      274 in task     1
  | Maximal number of non-zero basis functions:      274 in task     2
  | Maximal number of non-zero basis functions:      274 in task     3
  | Maximal number of non-zero basis functions:      274 in task     4
  | Maximal number of non-zero basis functions:      274 in task     5
  | Maximal number of non-zero basis functions:      274 in task     6
  | Maximal number of non-zero basis functions:      274 in task     7
  Integrating Hamiltonian matrix: batch-based integration.
  Time summed over all CPUs for integration: real work        4.682 s, elapsed        4.790 s
  Integrating overlap matrix.
  Time summed over all CPUs for integration: real work        2.476 s, elapsed        2.532 s

  Updating Kohn-Sham eigenvalues, eigenvectors, occupation numbers, and Fermi level.
  Solving generalized eigenproblem
  Updating Kohn-Sham eigenvalues and eigenfunctions.
  Transforming overlap matrix and checking for singularities.
  Overlap matrix is nonsingular:
  | Lowest eigenvalue:  0.295493E-03
  Solving real generalised eigenvalue problem by standard LAPACK (fast)
  Determining occupation numbers for Kohn-Sham eigenstates.
  | Chemical potential (Fermi level) in eV                 : -.39980137E+01
  | Error in electron count due to remaining E_F inaccuracy: 0.00000000E+00
  | Maximum occupation number of highest empty state:  0.00E+00

  Writing Kohn-Sham eigenvalues.

  State    Occupation    Eigenvalue [Ha]    Eigenvalue [eV]
      1       2.00000         -19.054634         -518.50297
      2       2.00000         -19.052093         -518.43381
      3       2.00000         -19.035947         -517.99448
      4       2.00000         -19.019441         -517.54531
      5       2.00000          -1.105823          -30.09097
      6       2.00000          -1.100129          -29.93604
      7       2.00000          -1.068754          -29.08228
      8       2.00000          -1.043115          -28.38460
      9       2.00000          -0.652021          -17.74239
     10       2.00000          -0.648356          -17.64267
     11       2.00000          -0.597439          -16.25716
     12       2.00000          -0.569972          -15.50974
     13       2.00000          -0.512809          -13.95426
     14       2.00000          -0.507498          -13.80972
     15       2.00000          -0.492879          -13.41193
     16       2.00000          -0.474986          -12.92503
     17       2.00000          -0.440187          -11.97809
     18       2.00000          -0.438494          -11.93202
     19       2.00000          -0.430988          -11.72778
     20       2.00000          -0.402256          -10.94593
     21       0.00000          -0.096550           -2.62725
     22       0.00000          -0.077211           -2.10102
     23       0.00000          -0.047997           -1.30608
     24       0.00000          -0.039422           -1.07273
     25       0.00000          -0.020406           -0.55527
     26       0.00000          -0.014700           -0.40001
     27       0.00000           0.041520            1.12983
     28       0.00000           0.060055            1.63419
     29       0.00000           0.067855            1.84641
     30       0.00000           0.082051            2.23272
     31       0.00000           0.095204            2.59064
     32       0.00000           0.096180            2.61720
     33       0.00000           0.103439            2.81471
     34       0.00000           0.113693            3.09373
     35       0.00000           0.123077            3.34911
     36       0.00000           0.130141            3.54131
     37       0.00000           0.133049            3.62044
     38       0.00000           0.151088            4.11132
     39       0.00000           0.162605            4.42470
     40       0.00000           0.170281            4.63358
     41       0.00000           0.190511            5.18406
     42       0.00000           0.217901            5.92938
     43       0.00000           0.234174            6.37221
     44       0.00000           0.244101            6.64233
     45       0.00000           0.250851            6.82601
     46       0.00000           0.267573            7.28102
     47       0.00000           0.285778            7.77640
     48       0.00000           0.305570            8.31499
     49       0.00000           0.340914            9.27673
     50       0.00000           0.343645            9.35104
     51       0.00000           0.367120            9.98984
     52       0.00000           0.374086           10.17940
     53       0.00000           0.399271           10.86470
     54       0.00000           0.402233           10.94531
     55       0.00000           0.424615           11.55436
     56       0.00000           0.435432           11.84872
     57       0.00000           0.437413           11.90260
     58       0.00000           0.456488           12.42167
     59       0.00000           0.477448           12.99203
     60       0.00000           0.501013           13.63325
     61       0.00000           0.522467           14.21705
     62       0.00000           0.552580           15.03647
     63       0.00000           0.566968           15.42799
     64       0.00000           0.575050           15.64790
     65       0.00000           0.614504           16.72150
     66       0.00000           0.623082           16.95492
     67       0.00000           0.709050           19.29423
     68       0.00000           0.729714           19.85654

  Highest occupied state (VBM) at    -10.94593498 eV
  | Occupation number:      2.00000000

  Lowest unoccupied state (CBM) at    -2.62724961 eV
  | Occupation number:      0.00000000

  Overall HOMO-LUMO gap:      8.31868538 eV.
  Calculating total energy contributions from superposition of free atom densities.

  Total energy components:
  | Sum of eigenvalues            :        -173.29564335 Ha       -4715.61438333 eV
  | XC energy correction          :         -36.41675893 Ha        -990.95042939 eV
  | XC potential correction       :          46.52809468 Ha        1266.09387448 eV
  | Free-atom electrostatic energy:        -143.27229806 Ha       -3898.63759079 eV
  | Hartree energy correction     :           0.00000000 Ha           0.00000000 eV
  | van der Waals energy corr.    :           0.00000000 Ha           0.00000000 eV
  | Entropy correction            :           0.00000000 Ha           0.00000000 eV
  | ---------------------------
  | Total energy                  :        -306.45660565 Ha       -8339.10852902 eV
  | Total energy, T -> 0          :        -306.45660565 Ha       -8339.10852902 eV  <-- do not rely on this value for anything but (periodic) metals
  | Electronic free energy        :        -306.45660565 Ha       -8339.10852902 eV

  Derived energy quantities:
  | Kinetic energy                :         303.25272454 Ha        8251.92648800 eV
  | Electrostatic energy          :        -573.29257126 Ha      -15600.08458763 eV
  | Energy correction for multipole
  | error in Hartree potential    :           0.00000000 Ha           0.00000000 eV
  | Sum of eigenvalues per atom                           :        -392.96786528 eV
  | Total energy (T->0) per atom                          :        -694.92571075 eV  <-- do not rely on this value for anything but (periodic) metals
  | Electronic free energy per atom                       :        -694.92571075 eV
  Initialize hartree_potential_storage
  Max. number of atoms included in rho_multipole:           12

  End scf initialization - timings             :  max(cpu_time)    wall_clock(cpu1)
  | Time for scf. initialization               :        1.292 s           1.292 s
  | Boundary condition initialization          :        0.000 s           0.000 s
  | Integration                                :        0.918 s           0.918 s
  | Solution of K.-S. eqns.                    :        0.120 s           0.120 s
  | Grid partitioning                          :        0.106 s           0.106 s
  | Preloading free-atom quantities on grid    :        0.013 s           0.013 s
  | Free-atom superposition energy             :        0.045 s           0.046 s
  | Total energy evaluation                    :        0.000 s           0.000 s
------------------------------------------------------------

------------------------------------------------------------
          Begin self-consistency iteration #    1

  Date     :  20150727, Time     :  120913.527
------------------------------------------------------------
  Evaluating new KS density.
  Integration grid: deviation in total charge (<rho> - N_e) =  -7.105427E-15
  Pulay mixing of updated and previous charge densities.

  Evaluating partitioned Hartree potential by multipole expansion.
  | Analytical far-field extrapolation by fixed multipoles:
  | Hartree multipole sum: apparent total charge =  -0.150829E-05
  Summing up the Hartree potential.
  Time summed over all CPUs for potential: real work        1.655 s, elapsed        1.666 s
  | RMS charge density error from multipole expansion :   0.143191E-02

  Integrating Hamiltonian matrix: batch-based integration.
  Time summed over all CPUs for integration: real work        4.676 s, elapsed        4.781 s

  Updating Kohn-Sham eigenvalues, eigenvectors, occupation numbers, and Fermi level.
  Solving generalized eigenproblem
  Updating Kohn-Sham eigenvalues and eigenfunctions.
  Solving real generalised eigenvalue problem by standard LAPACK (fast)
  Determining occupation numbers for Kohn-Sham eigenstates.
  | Chemical potential (Fermi level) in eV                 : -.35405884E+01
  | Error in electron count due to remaining E_F inaccuracy: 0.00000000E+00
  | Maximum occupation number of highest empty state:  0.00E+00

  Writing Kohn-Sham eigenvalues.

  State    Occupation    Eigenvalue [Ha]    Eigenvalue [eV]
      1       2.00000         -18.977026         -516.39116
      2       2.00000         -18.969031         -516.17360
      3       2.00000         -18.962004         -515.98237
      4       2.00000         -18.939281         -515.36405
      5       2.00000          -1.063569          -28.94118
      6       2.00000          -1.053899          -28.67805
      7       2.00000          -1.039176          -28.27743
      8       2.00000          -0.999601          -27.20052
      9       2.00000          -0.614654          -16.72559
     10       2.00000          -0.607358          -16.52704
     11       2.00000          -0.575668          -15.66473
     12       2.00000          -0.533660          -14.52162
     13       2.00000          -0.479604          -13.05069
     14       2.00000          -0.463025          -12.59956
     15       2.00000          -0.452737          -12.31960
     16       2.00000          -0.431588          -11.74412
     17       2.00000          -0.401762          -10.93251
     18       2.00000          -0.392571          -10.68239
     19       2.00000          -0.389708          -10.60450
     20       2.00000          -0.355070           -9.66194
     21       0.00000          -0.088655           -2.41241
     22       0.00000          -0.067461           -1.83571
     23       0.00000          -0.038977           -1.06063
     24       0.00000          -0.030016           -0.81679
     25       0.00000          -0.014554           -0.39603
     26       0.00000          -0.004136           -0.11255
     27       0.00000           0.050296            1.36863
     28       0.00000           0.065835            1.79147
     29       0.00000           0.077147            2.09929
     30       0.00000           0.091586            2.49218
     31       0.00000           0.100959            2.74724
     32       0.00000           0.106697            2.90336
     33       0.00000           0.112117            3.05086
     34       0.00000           0.124076            3.37628
     35       0.00000           0.135932            3.69890
     36       0.00000           0.143282            3.89890
     37       0.00000           0.145888            3.96980
     38       0.00000           0.162292            4.41619
     39       0.00000           0.175669            4.78019
     40       0.00000           0.182357            4.96218
     41       0.00000           0.202535            5.51124
     42       0.00000           0.227670            6.19521
     43       0.00000           0.243877            6.63622
     44       0.00000           0.254613            6.92836
     45       0.00000           0.261512            7.11609
     46       0.00000           0.276326            7.51923
     47       0.00000           0.296722            8.07421
     48       0.00000           0.315788            8.59303
     49       0.00000           0.350701            9.54307
     50       0.00000           0.352393            9.58911
     51       0.00000           0.378040           10.28699
     52       0.00000           0.383446           10.43408
     53       0.00000           0.409019           11.12997
     54       0.00000           0.414353           11.27511
     55       0.00000           0.432049           11.75666
     56       0.00000           0.444716           12.10134
     57       0.00000           0.449384           12.22837
     58       0.00000           0.463288           12.60670
     59       0.00000           0.489896           13.33076
     60       0.00000           0.514962           14.01282
     61       0.00000           0.537506           14.62629
     62       0.00000           0.565565           15.38981
     63       0.00000           0.579469           15.76816
     64       0.00000           0.587210           15.97881
     65       0.00000           0.629282           17.12363
     66       0.00000           0.639792           17.40964
     67       0.00000           0.723415           19.68514
     68       0.00000           0.743706           20.23726

  Highest occupied state (VBM) at     -9.66194454 eV
  | Occupation number:      2.00000000

  Lowest unoccupied state (CBM) at    -2.41241452 eV
  | Occupation number:      0.00000000

  Overall HOMO-LUMO gap:      7.24953002 eV.

  Total energy components:
  | Sum of eigenvalues            :        -171.40198479 Ha       -4664.08531219 eV
  | XC energy correction          :         -36.61185002 Ha        -996.25912805 eV
  | XC potential correction       :          46.78359252 Ha        1273.04632432 eV
  | Free-atom electrostatic energy:        -143.27229806 Ha       -3898.63759079 eV
  | Hartree energy correction     :          -1.83105542 Ha         -49.82555309 eV
  | van der Waals energy corr.    :           0.00000000 Ha           0.00000000 eV
  | Entropy correction            :           0.00000000 Ha           0.00000000 eV
  | ---------------------------
  | Total energy                  :        -306.33359577 Ha       -8335.76125980 eV
  | Total energy, T -> 0          :        -306.33359577 Ha       -8335.76125980 eV  <-- do not rely on this value for anything but (periodic) metals
  | Electronic free energy        :        -306.33359577 Ha       -8335.76125980 eV

  Derived energy quantities:
  | Kinetic energy                :         304.41219200 Ha        8283.47720302 eV
  | Electrostatic energy          :        -574.13393776 Ha      -15622.97933477 eV
  | Energy correction for multipole
  | error in Hartree potential    :           0.00005856 Ha           0.00159358 eV
  | Sum of eigenvalues per atom                           :        -388.67377602 eV
  | Total energy (T->0) per atom                          :        -694.64677165 eV  <-- do not rely on this value for anything but (periodic) metals
  | Electronic free energy per atom                       :        -694.64677165 eV

  Self-consistency convergence accuracy:
  | Change of charge density      : 0.6007E+00
  | Change of sum of eigenvalues  : 0.5153E+02 eV
  | Change of total energy        : 0.3347E+01 eV

  End self-consistency iteration #     1       :  max(cpu_time)    wall_clock(cpu1)
  | Time for this iteration                    :        1.233 s           1.233 s
  | Charge density update                      :        0.387 s           0.387 s
  | Density mixing                             :        0.003 s           0.002 s
  | Hartree multipole update                   :        0.004 s           0.004 s
  | Hartree multipole summation                :        0.209 s           0.210 s
  | Integration                                :        0.599 s           0.598 s
  | Solution of K.-S. eqns.                    :        0.030 s           0.031 s
  | Total energy evaluation                    :        0.000 s           0.000 s
------------------------------------------------------------

------------------------------------------------------------
          Begin self-consistency iteration #    2

  Date     :  20150727, Time     :  120914.760
------------------------------------------------------------
  Evaluating new KS density.
  Integration grid: deviation in total charge (<rho> - N_e) =   2.131628E-14
  Pulay mixing of updated and previous charge densities.

  Evaluating partitioned Hartree potential by multipole expansion.
  | Analytical far-field extrapolation by fixed multipoles:
  | Hartree multipole sum: apparent total charge =  -0.413859E-05
  Summing up the Hartree potential.
  Time summed over all CPUs for potential: real work        1.655 s, elapsed        1.666 s
  | RMS charge density error from multipole expansion :   0.566131E-02

  Integrating Hamiltonian matrix: batch-based integration.
  Time summed over all CPUs for integration: real work        4.665 s, elapsed        4.771 s

  Updating Kohn-Sham eigenvalues, eigenvectors, occupation numbers, and Fermi level.
  Solving generalized eigenproblem
  Updating Kohn-Sham eigenvalues and eigenfunctions.
  Solving real generalised eigenvalue problem by standard LAPACK (fast)
  Determining occupation numbers for Kohn-Sham eigenstates.
  | Chemical potential (Fermi level) in eV                 : -.25065561E+01
  | Error in electron count due to remaining E_F inaccuracy: 0.00000000E+00
  | Maximum occupation number of highest empty state:  0.00E+00

  Highest occupied state (VBM) at     -6.67351363 eV
  | Occupation number:      2.00000000

  Lowest unoccupied state (CBM) at    -2.04003761 eV
  | Occupation number:      0.00000000

  Overall HOMO-LUMO gap:      4.63347602 eV.

  Total energy components:
  | Sum of eigenvalues            :        -167.03251536 Ha       -4545.18599933 eV
  | XC energy correction          :         -37.08150110 Ha       -1009.03898415 eV
  | XC potential correction       :          47.39813766 Ha        1289.76894846 eV
  | Free-atom electrostatic energy:        -143.27229806 Ha       -3898.63759079 eV
  | Hartree energy correction     :          -6.20536568 Ha        -168.85659156 eV
  | van der Waals energy corr.    :           0.00000000 Ha           0.00000000 eV
  | Entropy correction            :           0.00000000 Ha           0.00000000 eV
  | ---------------------------
  | Total energy                  :        -306.19354254 Ha       -8331.95021737 eV
  | Total energy, T -> 0          :        -306.19354254 Ha       -8331.95021737 eV  <-- do not rely on this value for anything but (periodic) metals
  | Electronic free energy        :        -306.19354254 Ha       -8331.95021737 eV

  Derived energy quantities:
  | Kinetic energy                :         306.67449336 Ha        8345.03755525 eV
  | Electrostatic energy          :        -575.78653480 Ha      -15667.94878847 eV
  | Energy correction for multipole
  | error in Hartree potential    :          -0.00038445 Ha          -0.01046133 eV
  | Sum of eigenvalues per atom                           :        -378.76549994 eV
  | Total energy (T->0) per atom                          :        -694.32918478 eV  <-- do not rely on this value for anything but (periodic) metals
  | Electronic free energy per atom                       :        -694.32918478 eV

  Self-consistency convergence accuracy:
  | Change of charge density      : 0.4535E+00
  | Change of sum of eigenvalues  : 0.1189E+03 eV
  | Change of total energy        : 0.3811E+01 eV

  End self-consistency iteration #     2       :  max(cpu_time)    wall_clock(cpu1)
  | Time for this iteration                    :        1.229 s           1.230 s
  | Charge density update                      :        0.383 s           0.383 s
  | Density mixing                             :        0.004 s           0.005 s
  | Hartree multipole update                   :        0.005 s           0.004 s
  | Hartree multipole summation                :        0.209 s           0.209 s
  | Integration                                :        0.597 s           0.597 s
  | Solution of K.-S. eqns.                    :        0.031 s           0.031 s
  | Total energy evaluation                    :        0.000 s           0.000 s
------------------------------------------------------------

------------------------------------------------------------
          Begin self-consistency iteration #    3

  Date     :  20150727, Time     :  120915.990
------------------------------------------------------------
  Evaluating new KS density.
  Integration grid: deviation in total charge (<rho> - N_e) =  -7.105427E-15
  Pulay mixing of updated and previous charge densities.

  Evaluating partitioned Hartree potential by multipole expansion.
  | Analytical far-field extrapolation by fixed multipoles:
  | Hartree multipole sum: apparent total charge =  -0.359228E-05
  Summing up the Hartree potential.
  Time summed over all CPUs for potential: real work        1.655 s, elapsed        1.666 s
  | RMS charge density error from multipole expansion :   0.113617E-01

  Integrating Hamiltonian matrix: batch-based integration.
  Time summed over all CPUs for integration: real work        4.655 s, elapsed        4.754 s

  Updating Kohn-Sham eigenvalues, eigenvectors, occupation numbers, and Fermi level.
  Solving generalized eigenproblem
  Updating Kohn-Sham eigenvalues and eigenfunctions.
  Solving real generalised eigenvalue problem by standard LAPACK (fast)
  Determining occupation numbers for Kohn-Sham eigenstates.
  | Chemical potential (Fermi level) in eV                 : -.23111304E+01
  | Error in electron count due to remaining E_F inaccuracy: 0.00000000E+00
  | Maximum occupation number of highest empty state:  0.00E+00

  Highest occupied state (VBM) at     -6.65717202 eV
  | Occupation number:      2.00000000

  Lowest unoccupied state (CBM) at    -2.05327205 eV
  | Occupation number:      0.00000000

  Overall HOMO-LUMO gap:      4.60389998 eV.

  Total energy components:
  | Sum of eigenvalues            :        -167.28976763 Ha       -4552.18618986 eV
  | XC energy correction          :         -37.05023305 Ha       -1008.18813741 eV
  | XC potential correction       :          47.35328778 Ha        1288.54852108 eV
  | Free-atom electrostatic energy:        -143.27229806 Ha       -3898.63759079 eV
  | Hartree energy correction     :          -5.93088187 Ha        -161.38750701 eV
  | van der Waals energy corr.    :           0.00000000 Ha           0.00000000 eV
  | Entropy correction            :           0.00000000 Ha           0.00000000 eV
  | ---------------------------
  | Total energy                  :        -306.18989284 Ha       -8331.85090398 eV
  | Total energy, T -> 0          :        -306.18989284 Ha       -8331.85090398 eV  <-- do not rely on this value for anything but (periodic) metals
  | Electronic free energy        :        -306.18989284 Ha       -8331.85090398 eV

  Derived energy quantities:
  | Kinetic energy                :         305.02588712 Ha        8300.17669689 eV
  | Electrostatic energy          :        -574.16554690 Ha      -15623.83946346 eV
  | Energy correction for multipole
  | error in Hartree potential    :          -0.00335648 Ha          -0.09133458 eV
  | Sum of eigenvalues per atom                           :        -379.34884916 eV
  | Total energy (T->0) per atom                          :        -694.32090867 eV  <-- do not rely on this value for anything but (periodic) metals
  | Electronic free energy per atom                       :        -694.32090867 eV

  Self-consistency convergence accuracy:
  | Change of charge density      : 0.2322E+00
  | Change of sum of eigenvalues  : -.7000E+01 eV
  | Change of total energy        : 0.9931E-01 eV

  End self-consistency iteration #     3       :  max(cpu_time)    wall_clock(cpu1)
  | Time for this iteration                    :        1.225 s           1.225 s
  | Charge density update                      :        0.380 s           0.380 s
  | Density mixing                             :        0.006 s           0.005 s
  | Hartree multipole update                   :        0.004 s           0.004 s
  | Hartree multipole summation                :        0.209 s           0.209 s
  | Integration                                :        0.595 s           0.595 s
  | Solution of K.-S. eqns.                    :        0.031 s           0.031 s
  | Total energy evaluation                    :        0.000 s           0.000 s
------------------------------------------------------------

------------------------------------------------------------
          Begin self-consistency iteration #    4

  Date     :  20150727, Time     :  120917.215
------------------------------------------------------------
  Evaluating new KS density.
  Integration grid: deviation in total charge (<rho> - N_e) =   1.421085E-14
  Pulay mixing of updated and previous charge densities.

  Evaluating partitioned Hartree potential by multipole expansion.
  | Analytical far-field extrapolation by fixed multipoles:
  | Hartree multipole sum: apparent total charge =  -0.431864E-05
  Summing up the Hartree potential.
  Time summed over all CPUs for potential: real work        1.654 s, elapsed        1.665 s
  | RMS charge density error from multipole expansion :   0.150471E-01

  Integrating Hamiltonian matrix: batch-based integration.
  Time summed over all CPUs for integration: real work        4.652 s, elapsed        4.751 s

  Updating Kohn-Sham eigenvalues, eigenvectors, occupation numbers, and Fermi level.
  Solving generalized eigenproblem
  Updating Kohn-Sham eigenvalues and eigenfunctions.
  Solving real generalised eigenvalue problem by standard LAPACK (fast)
  Determining occupation numbers for Kohn-Sham eigenstates.
  | Chemical potential (Fermi level) in eV                 : -.33663738E+01
  | Error in electron count due to remaining E_F inaccuracy: 0.00000000E+00
  | Maximum occupation number of highest empty state:  0.00E+00

  Highest occupied state (VBM) at     -5.47112173 eV
  | Occupation number:      2.00000000

  Lowest unoccupied state (CBM) at    -1.93652903 eV
  | Occupation number:      0.00000000

  Overall HOMO-LUMO gap:      3.53459270 eV.

  Total energy components:
  | Sum of eigenvalues            :        -165.76608592 Ha       -4510.72470108 eV
  | XC energy correction          :         -37.23048453 Ha       -1013.09302958 eV
  | XC potential correction       :          47.58825329 Ha        1294.94225807 eV
  | Free-atom electrostatic energy:        -143.27229806 Ha       -3898.63759079 eV
  | Hartree energy correction     :          -7.49846343 Ha        -204.04357166 eV
  | van der Waals energy corr.    :           0.00000000 Ha           0.00000000 eV
  | Entropy correction            :           0.00000000 Ha           0.00000000 eV
  | ---------------------------
  | Total energy                  :        -306.17907865 Ha       -8331.55663504 eV
  | Total energy, T -> 0          :        -306.17907865 Ha       -8331.55663504 eV  <-- do not rely on this value for anything but (periodic) metals
  | Electronic free energy        :        -306.17907865 Ha       -8331.55663504 eV

  Derived energy quantities:
  | Kinetic energy                :         305.22873208 Ha        8305.69638910 eV
  | Electrostatic energy          :        -574.17732621 Ha      -15624.15999456 eV
  | Energy correction for multipole
  | error in Hartree potential    :          -0.00466146 Ha          -0.12684480 eV
  | Sum of eigenvalues per atom                           :        -375.89372509 eV
  | Total energy (T->0) per atom                          :        -694.29638625 eV  <-- do not rely on this value for anything but (periodic) metals
  | Electronic free energy per atom                       :        -694.29638625 eV

  Self-consistency convergence accuracy:
  | Change of charge density      : 0.1332E+00
  | Change of sum of eigenvalues  : 0.4146E+02 eV
  | Change of total energy        : 0.2943E+00 eV

  End self-consistency iteration #     4       :  max(cpu_time)    wall_clock(cpu1)
  | Time for this iteration                    :        1.225 s           1.225 s
  | Charge density update                      :        0.379 s           0.379 s
  | Density mixing                             :        0.007 s           0.007 s
  | Hartree multipole update                   :        0.004 s           0.004 s
  | Hartree multipole summation                :        0.209 s           0.209 s
  | Integration                                :        0.595 s           0.595 s
  | Solution of K.-S. eqns.                    :        0.030 s           0.030 s
  | Total energy evaluation                    :        0.000 s           0.000 s
------------------------------------------------------------

------------------------------------------------------------
          Begin self-consistency iteration #    5

  Date     :  20150727, Time     :  120918.440
------------------------------------------------------------
  Evaluating new KS density.
  Integration grid: deviation in total charge (<rho> - N_e) =   7.105427E-15
  Pulay mixing of updated and previous charge densities.

  Evaluating partitioned Hartree potential by multipole expansion.
  | Analytical far-field extrapolation by fixed multipoles:
  | Hartree multipole sum: apparent total charge =  -0.418739E-05
  Summing up the Hartree potential.
  Time summed over all CPUs for potential: real work        1.655 s, elapsed        1.666 s
  | RMS charge density error from multipole expansion :   0.155338E-01

  Integrating Hamiltonian matrix: batch-based integration.
  Time summed over all CPUs for integration: real work        4.650 s, elapsed        4.766 s

  Updating Kohn-Sham eigenvalues, eigenvectors, occupation numbers, and Fermi level.
  Solving generalized eigenproblem
  Updating Kohn-Sham eigenvalues and eigenfunctions.
  Solving real generalised eigenvalue problem by standard LAPACK (fast)
  Determining occupation numbers for Kohn-Sham eigenstates.
  | Chemical potential (Fermi level) in eV                 : -.33694469E+01
  | Error in electron count due to remaining E_F inaccuracy: 0.00000000E+00
  | Maximum occupation number of highest empty state:  0.00E+00

  Highest occupied state (VBM) at     -5.36561526 eV
  | Occupation number:      2.00000000

  Lowest unoccupied state (CBM) at    -1.92815871 eV
  | Occupation number:      0.00000000

  Overall HOMO-LUMO gap:      3.43745655 eV.

  Total energy components:
  | Sum of eigenvalues            :        -165.78330128 Ha       -4511.19315481 eV
  | XC energy correction          :         -37.23148925 Ha       -1013.12036945 eV
  | XC potential correction       :          47.58906273 Ha        1294.96428397 eV
  | Free-atom electrostatic energy:        -143.27229806 Ha       -3898.63759079 eV
  | Hartree energy correction     :          -7.48058081 Ha        -203.55696060 eV
  | van der Waals energy corr.    :           0.00000000 Ha           0.00000000 eV
  | Entropy correction            :           0.00000000 Ha           0.00000000 eV
  | ---------------------------
  | Total energy                  :        -306.17860667 Ha       -8331.54379168 eV
  | Total energy, T -> 0          :        -306.17860667 Ha       -8331.54379168 eV  <-- do not rely on this value for anything but (periodic) metals
  | Electronic free energy        :        -306.17860667 Ha       -8331.54379168 eV

  Derived energy quantities:
  | Kinetic energy                :         305.19690644 Ha        8304.83036935 eV
  | Electrostatic energy          :        -574.14402386 Ha      -15623.25379158 eV
  | Energy correction for multipole
  | error in Hartree potential    :          -0.00470482 Ha          -0.12802465 eV
  | Sum of eigenvalues per atom                           :        -375.93276290 eV
  | Total energy (T->0) per atom                          :        -694.29531597 eV  <-- do not rely on this value for anything but (periodic) metals
  | Electronic free energy per atom                       :        -694.29531597 eV

  Self-consistency convergence accuracy:
  | Change of charge density      : 0.3602E-01
  | Change of sum of eigenvalues  : -.4685E+00 eV
  | Change of total energy        : 0.1284E-01 eV

  End self-consistency iteration #     5       :  max(cpu_time)    wall_clock(cpu1)
  | Time for this iteration                    :        1.231 s           1.231 s
  | Charge density update                      :        0.382 s           0.382 s
  | Density mixing                             :        0.008 s           0.008 s
  | Hartree multipole update                   :        0.004 s           0.004 s
  | Hartree multipole summation                :        0.209 s           0.209 s
  | Integration                                :        0.597 s           0.597 s
  | Solution of K.-S. eqns.                    :        0.031 s           0.030 s
  | Total energy evaluation                    :        0.000 s           0.001 s
------------------------------------------------------------

------------------------------------------------------------
          Begin self-consistency iteration #    6

  Date     :  20150727, Time     :  120919.671
------------------------------------------------------------
  Evaluating new KS density.
  Integration grid: deviation in total charge (<rho> - N_e) =   2.842171E-14
  Pulay mixing of updated and previous charge densities.

  Evaluating partitioned Hartree potential by multipole expansion.
  | Analytical far-field extrapolation by fixed multipoles:
  | Hartree multipole sum: apparent total charge =  -0.420332E-05
  Summing up the Hartree potential.
  Time summed over all CPUs for potential: real work        1.654 s, elapsed        1.665 s
  | RMS charge density error from multipole expansion :   0.157356E-01

  Integrating Hamiltonian matrix: batch-based integration.
  Time summed over all CPUs for integration: real work        4.647 s, elapsed        4.753 s

  Updating Kohn-Sham eigenvalues, eigenvectors, occupation numbers, and Fermi level.
  Solving generalized eigenproblem
  Updating Kohn-Sham eigenvalues and eigenfunctions.
  Solving real generalised eigenvalue problem by standard LAPACK (fast)
  Determining occupation numbers for Kohn-Sham eigenstates.
  | Chemical potential (Fermi level) in eV                 : -.33522104E+01
  | Error in electron count due to remaining E_F inaccuracy: 0.00000000E+00
  | Maximum occupation number of highest empty state:  0.00E+00

  Highest occupied state (VBM) at     -5.33915449 eV
  | Occupation number:      2.00000000

  Lowest unoccupied state (CBM) at    -1.92137189 eV
  | Occupation number:      0.00000000

  Overall HOMO-LUMO gap:      3.41778261 eV.

  Total energy components:
  | Sum of eigenvalues            :        -165.72926574 Ha       -4509.72277297 eV
  | XC energy correction          :         -37.23848171 Ha       -1013.31064407 eV
  | XC potential correction       :          47.59812612 Ha        1295.21091135 eV
  | Free-atom electrostatic energy:        -143.27229806 Ha       -3898.63759079 eV
  | Hartree energy correction     :          -7.53674552 Ha        -205.08528024 eV
  | van der Waals energy corr.    :           0.00000000 Ha           0.00000000 eV
  | Entropy correction            :           0.00000000 Ha           0.00000000 eV
  | ---------------------------
  | Total energy                  :        -306.17866492 Ha       -8331.54537671 eV
  | Total energy, T -> 0          :        -306.17866492 Ha       -8331.54537671 eV  <-- do not rely on this value for anything but (periodic) metals
  | Electronic free energy        :        -306.17866492 Ha       -8331.54537671 eV

  Derived energy quantities:
  | Kinetic energy                :         305.19747059 Ha        8304.84572061 eV
  | Electrostatic energy          :        -574.13765379 Ha      -15623.08045325 eV
  | Energy correction for multipole
  | error in Hartree potential    :          -0.00477281 Ha          -0.12987465 eV
  | Sum of eigenvalues per atom                           :        -375.81023108 eV
  | Total energy (T->0) per atom                          :        -694.29544806 eV  <-- do not rely on this value for anything but (periodic) metals
  | Electronic free energy per atom                       :        -694.29544806 eV

  Self-consistency convergence accuracy:
  | Change of charge density      : 0.1014E-01
  | Change of sum of eigenvalues  : 0.1470E+01 eV
  | Change of total energy        : -.1585E-02 eV

  End self-consistency iteration #     6       :  max(cpu_time)    wall_clock(cpu1)
  | Time for this iteration                    :        1.229 s           1.228 s
  | Charge density update                      :        0.381 s           0.381 s
  | Density mixing                             :        0.009 s           0.008 s
  | Hartree multipole update                   :        0.004 s           0.005 s
  | Hartree multipole summation                :        0.209 s           0.208 s
  | Integration                                :        0.595 s           0.595 s
  | Solution of K.-S. eqns.                    :        0.030 s           0.031 s
  | Total energy evaluation                    :        0.000 s           0.000 s
------------------------------------------------------------

------------------------------------------------------------
          Begin self-consistency iteration #    7

  Date     :  20150727, Time     :  120920.900
------------------------------------------------------------
  Evaluating new KS density.
  Integration grid: deviation in total charge (<rho> - N_e) =   0.000000E+00
  Pulay mixing of updated and previous charge densities.

  Evaluating partitioned Hartree potential by multipole expansion.
  | Analytical far-field extrapolation by fixed multipoles:
  | Hartree multipole sum: apparent total charge =  -0.397895E-05
  Summing up the Hartree potential.
  Time summed over all CPUs for potential: real work        1.654 s, elapsed        1.665 s
  | RMS charge density error from multipole expansion :   0.157489E-01

  Integrating Hamiltonian matrix: batch-based integration.
  Time summed over all CPUs for integration: real work        4.650 s, elapsed        4.752 s

  Updating Kohn-Sham eigenvalues, eigenvectors, occupation numbers, and Fermi level.
  Solving generalized eigenproblem
  Updating Kohn-Sham eigenvalues and eigenfunctions.
  Solving real generalised eigenvalue problem by standard LAPACK (fast)
  Determining occupation numbers for Kohn-Sham eigenstates.
  | Chemical potential (Fermi level) in eV                 : -.33869706E+01
  | Error in electron count due to remaining E_F inaccuracy: 0.00000000E+00
  | Maximum occupation number of highest empty state:  0.00E+00

  Highest occupied state (VBM) at     -5.44621549 eV
  | Occupation number:      2.00000000

  Lowest unoccupied state (CBM) at    -1.92992356 eV
  | Occupation number:      0.00000000

  Overall HOMO-LUMO gap:      3.51629193 eV.

  Total energy components:
  | Sum of eigenvalues            :        -165.85792436 Ha       -4513.22375216 eV
  | XC energy correction          :         -37.22611061 Ha       -1012.97400919 eV
  | XC potential correction       :          47.58143742 Ha        1294.75678874 eV
  | Free-atom electrostatic energy:        -143.27229806 Ha       -3898.63759079 eV
  | Hartree energy correction     :          -7.40367329 Ha        -201.46420056 eV
  | van der Waals energy corr.    :           0.00000000 Ha           0.00000000 eV
  | Entropy correction            :           0.00000000 Ha           0.00000000 eV
  | ---------------------------
  | Total energy                  :        -306.17856890 Ha       -8331.54276395 eV
  | Total energy, T -> 0          :        -306.17856890 Ha       -8331.54276395 eV  <-- do not rely on this value for anything but (periodic) metals
  | Electronic free energy        :        -306.17856890 Ha       -8331.54276395 eV

  Derived energy quantities:
  | Kinetic energy                :         305.25559117 Ha        8306.42726215 eV
  | Electrostatic energy          :        -574.20804946 Ha      -15624.99601691 eV
  | Energy correction for multipole
  | error in Hartree potential    :          -0.00456021 Ha          -0.12408971 eV
  | Sum of eigenvalues per atom                           :        -376.10197935 eV
  | Total energy (T->0) per atom                          :        -694.29523033 eV  <-- do not rely on this value for anything but (periodic) metals
  | Electronic free energy per atom                       :        -694.29523033 eV

  Self-consistency convergence accuracy:
  | Change of charge density      : 0.9970E-02
  | Change of sum of eigenvalues  : -.3501E+01 eV
  | Change of total energy        : 0.2613E-02 eV

  End self-consistency iteration #     7       :  max(cpu_time)    wall_clock(cpu1)
  | Time for this iteration                    :        1.229 s           1.229 s
  | Charge density update                      :        0.380 s           0.380 s
  | Density mixing                             :        0.010 s           0.009 s
  | Hartree multipole update                   :        0.004 s           0.005 s
  | Hartree multipole summation                :        0.209 s           0.208 s
  | Integration                                :        0.595 s           0.595 s
  | Solution of K.-S. eqns.                    :        0.031 s           0.031 s
  | Total energy evaluation                    :        0.000 s           0.001 s
------------------------------------------------------------

------------------------------------------------------------
          Begin self-consistency iteration #    8

  Date     :  20150727, Time     :  120922.129
------------------------------------------------------------
  Evaluating new KS density.
  Integration grid: deviation in total charge (<rho> - N_e) =  -1.421085E-14
  Pulay mixing of updated and previous charge densities.

  Evaluating partitioned Hartree potential by multipole expansion.
  | Analytical far-field extrapolation by fixed multipoles:
  | Hartree multipole sum: apparent total charge =  -0.397958E-05
  Summing up the Hartree potential.
  Time summed over all CPUs for potential: real work        1.654 s, elapsed        1.665 s
  | RMS charge density error from multipole expansion :   0.157872E-01

  Integrating Hamiltonian matrix: batch-based integration.
  Time summed over all CPUs for integration: real work        4.650 s, elapsed        4.752 s

  Updating Kohn-Sham eigenvalues, eigenvectors, occupation numbers, and Fermi level.
  Solving generalized eigenproblem
  Updating Kohn-Sham eigenvalues and eigenfunctions.
  Solving real generalised eigenvalue problem by standard LAPACK (fast)
  Determining occupation numbers for Kohn-Sham eigenstates.
  | Chemical potential (Fermi level) in eV                 : -.33888168E+01
  | Error in electron count due to remaining E_F inaccuracy: 0.00000000E+00
  | Maximum occupation number of highest empty state:  0.00E+00

  Highest occupied state (VBM) at     -5.43552466 eV
  | Occupation number:      2.00000000

  Lowest unoccupied state (CBM) at    -1.92981046 eV
  | Occupation number:      0.00000000

  Overall HOMO-LUMO gap:      3.50571421 eV.

  Total energy components:
  | Sum of eigenvalues            :        -165.84866562 Ha       -4512.97180909 eV
  | XC energy correction          :         -37.22712736 Ha       -1013.00167652 eV
  | XC potential correction       :          47.58275298 Ha        1294.79258703 eV
  | Free-atom electrostatic energy:        -143.27229806 Ha       -3898.63759079 eV
  | Hartree energy correction     :          -7.41323127 Ha        -201.72428652 eV
  | van der Waals energy corr.    :           0.00000000 Ha           0.00000000 eV
  | Entropy correction            :           0.00000000 Ha           0.00000000 eV
  | ---------------------------
  | Total energy                  :        -306.17856934 Ha       -8331.54277589 eV
  | Total energy, T -> 0          :        -306.17856934 Ha       -8331.54277589 eV  <-- do not rely on this value for anything but (periodic) metals
  | Electronic free energy        :        -306.17856934 Ha       -8331.54277589 eV

  Derived energy quantities:
  | Kinetic energy                :         305.25538261 Ha        8306.42158699 eV
  | Electrostatic energy          :        -574.20682459 Ha      -15624.96268636 eV
  | Energy correction for multipole
  | error in Hartree potential    :          -0.00457473 Ha          -0.12448465 eV
  | Sum of eigenvalues per atom                           :        -376.08098409 eV
  | Total energy (T->0) per atom                          :        -694.29523132 eV  <-- do not rely on this value for anything but (periodic) metals
  | Electronic free energy per atom                       :        -694.29523132 eV

  Self-consistency convergence accuracy:
  | Change of charge density      : 0.1443E-02
  | Change of sum of eigenvalues  : 0.2519E+00 eV
  | Change of total energy        : -.1194E-04 eV

  End self-consistency iteration #     8       :  max(cpu_time)    wall_clock(cpu1)
  | Time for this iteration                    :        1.230 s           1.230 s
  | Charge density update                      :        0.380 s           0.380 s
  | Density mixing                             :        0.011 s           0.010 s
  | Hartree multipole update                   :        0.004 s           0.005 s
  | Hartree multipole summation                :        0.209 s           0.208 s
  | Integration                                :        0.595 s           0.595 s
  | Solution of K.-S. eqns.                    :        0.031 s           0.030 s
  | Total energy evaluation                    :        0.000 s           0.001 s
------------------------------------------------------------

------------------------------------------------------------
          Begin self-consistency iteration #    9

  Date     :  20150727, Time     :  120923.359
------------------------------------------------------------
  Evaluating new KS density.
  Integration grid: deviation in total charge (<rho> - N_e) =   7.105427E-15
  Pulay mixing of updated and previous charge densities.

  Evaluating partitioned Hartree potential by multipole expansion.
  | Analytical far-field extrapolation by fixed multipoles:
  | Hartree multipole sum: apparent total charge =  -0.398061E-05
  Summing up the Hartree potential.
  Time summed over all CPUs for potential: real work        1.654 s, elapsed        1.665 s
  | RMS charge density error from multipole expansion :   0.157926E-01

  Integrating Hamiltonian matrix: batch-based integration.
  Time summed over all CPUs for integration: real work        4.652 s, elapsed        4.748 s

  Updating Kohn-Sham eigenvalues, eigenvectors, occupation numbers, and Fermi level.
  Solving generalized eigenproblem
  Updating Kohn-Sham eigenvalues and eigenfunctions.
  Solving real generalised eigenvalue problem by standard LAPACK (fast)
  Determining occupation numbers for Kohn-Sham eigenstates.
  | Chemical potential (Fermi level) in eV                 : -.33896083E+01
  | Error in electron count due to remaining E_F inaccuracy: 0.00000000E+00
  | Maximum occupation number of highest empty state:  0.00E+00

  Highest occupied state (VBM) at     -5.43363104 eV
  | Occupation number:      2.00000000

  Lowest unoccupied state (CBM) at    -1.93070234 eV
  | Occupation number:      0.00000000

  Overall HOMO-LUMO gap:      3.50292870 eV.

  Total energy components:
  | Sum of eigenvalues            :        -165.84371897 Ha       -4512.83720379 eV
  | XC energy correction          :         -37.22745639 Ha       -1013.01062976 eV
  | XC potential correction       :          47.58318793 Ha        1294.80442251 eV
  | Free-atom electrostatic energy:        -143.27229806 Ha       -3898.63759079 eV
  | Hartree energy correction     :          -7.41828300 Ha        -201.86175117 eV
  | van der Waals energy corr.    :           0.00000000 Ha           0.00000000 eV
  | Entropy correction            :           0.00000000 Ha           0.00000000 eV
  | ---------------------------
  | Total energy                  :        -306.17856850 Ha       -8331.54275300 eV
  | Total energy, T -> 0          :        -306.17856850 Ha       -8331.54275300 eV  <-- do not rely on this value for anything but (periodic) metals
  | Electronic free energy        :        -306.17856850 Ha       -8331.54275300 eV

  Derived energy quantities:
  | Kinetic energy                :         305.25714776 Ha        8306.46961897 eV
  | Electrostatic energy          :        -574.20825986 Ha      -15625.00174221 eV
  | Energy correction for multipole
  | error in Hartree potential    :          -0.00458091 Ha          -0.12465297 eV
  | Sum of eigenvalues per atom                           :        -376.06976698 eV
  | Total energy (T->0) per atom                          :        -694.29522942 eV  <-- do not rely on this value for anything but (periodic) metals
  | Electronic free energy per atom                       :        -694.29522942 eV

  Self-consistency convergence accuracy:
  | Change of charge density      : 0.8682E-03
  | Change of sum of eigenvalues  : 0.1346E+00 eV
  | Change of total energy        : 0.2289E-04 eV

  End self-consistency iteration #     9       :  max(cpu_time)    wall_clock(cpu1)
  | Time for this iteration                    :        1.231 s           1.231 s
  | Charge density update                      :        0.380 s           0.380 s
  | Density mixing                             :        0.012 s           0.012 s
  | Hartree multipole update                   :        0.004 s           0.004 s
  | Hartree multipole summation                :        0.209 s           0.209 s
  | Integration                                :        0.594 s           0.594 s
  | Solution of K.-S. eqns.                    :        0.031 s           0.031 s
  | Total energy evaluation                    :        0.000 s           0.001 s
------------------------------------------------------------

------------------------------------------------------------
          Begin self-consistency iteration #   10

  Date     :  20150727, Time     :  120924.590
------------------------------------------------------------
  Evaluating new KS density.
  Integration grid: deviation in total charge (<rho> - N_e) =   1.421085E-14
  Pulay mixing of updated and previous charge densities.

  Evaluating partitioned Hartree potential by multipole expansion.
  | Analytical far-field extrapolation by fixed multipoles:
  | Hartree multipole sum: apparent total charge =  -0.397287E-05
  Summing up the Hartree potential.
  Time summed over all CPUs for potential: real work        1.655 s, elapsed        1.665 s
  | RMS charge density error from multipole expansion :   0.157912E-01

  Integrating Hamiltonian matrix: batch-based integration.
  Time summed over all CPUs for integration: real work        4.644 s, elapsed        4.747 s

  Updating Kohn-Sham eigenvalues, eigenvectors, occupation numbers, and Fermi level.
  Solving generalized eigenproblem
[...]
  |                                 -0.00065560       0.07834017       0.01588486
  |                                  0.03254570       0.01588486       0.06183463
  ----------------------------------------------------------------------


  Total energy components:
  | Sum of eigenvalues            :        -165.84781492 Ha       -4512.94866036 eV
  | XC energy correction          :         -37.22694264 Ha       -1012.99664994 eV
  | XC potential correction       :          47.58250109 Ha        1294.78573272 eV
  | Free-atom electrostatic energy:        -143.27229806 Ha       -3898.63759079 eV
  | Hartree energy correction     :          -7.41401319 Ha        -201.74556358 eV
  | van der Waals energy corr.    :          -0.00179410 Ha          -0.04881991 eV
  | Entropy correction            :           0.00000000 Ha           0.00000000 eV
  | ---------------------------
  | Total energy                  :        -306.18036182 Ha       -8331.59155186 eV
  | Total energy, T -> 0          :        -306.18036182 Ha       -8331.59155186 eV  <-- do not rely on this value for anything but (periodic) metals
  | Electronic free energy        :        -306.18036182 Ha       -8331.59155186 eV

  Derived energy quantities:
  | Kinetic energy                :         305.25832758 Ha        8306.50172353 eV
  | Electrostatic energy          :        -574.20995266 Ha      -15625.04780554 eV
  | Energy correction for multipole
  | error in Hartree potential    :          -0.00457629 Ha          -0.12452710 eV
  | Sum of eigenvalues per atom                           :        -376.07905503 eV
  | Total energy (T->0) per atom                          :        -694.29929599 eV  <-- do not rely on this value for anything but (periodic) metals
  | Electronic free energy per atom                       :        -694.29929599 eV

  atomic forces [eV/Ang]:
  -----------------------
  atom #    1
   Hellmann-Feynman + Multipole  : -.755312E+01 -.116828E+02 0.397214E+01
   Pulay + GGA                   : 0.744266E+01 0.154395E+02 -.615140E+01
   Van der Waals               : 0.322325E-02 0.418234E-02 -.769198E-03
   ----------------------------------------------------------------
   Total forces(   1)            : -.107239E+00 0.376085E+01 -.218003E+01
  atom #    2
   Hellmann-Feynman + Multipole  : 0.238234E+01 -.353255E+01 0.153249E+01
   Pulay + GGA                   : -.498921E-01 0.107481E+00 -.610428E-01
   Van der Waals               : 0.125089E-02 0.139402E-02 0.302177E-02
   ----------------------------------------------------------------
   Total forces(   2)            : 0.233370E+01 -.342367E+01 0.147447E+01
  atom #    3
   Hellmann-Feynman + Multipole  : -.216946E+01 -.223087E+00 -.132172E+00
   Pulay + GGA                   : 0.133146E+00 0.306895E-01 -.122288E-01
   Van der Waals               : 0.161149E-02 0.380856E-02 0.252919E-02
   ----------------------------------------------------------------
   Total forces(   3)            : -.203470E+01 -.188589E+00 -.141871E+00
  atom #    4
   Hellmann-Feynman + Multipole  : 0.826403E+01 -.491355E+01 -.145901E+02
   Pulay + GGA                   : -.900154E+01 0.301904E+01 0.140500E+02
   Van der Waals               : 0.596807E-03 0.271805E-02 0.711958E-02
   ----------------------------------------------------------------
   Total forces(   4)            : -.736915E+00 -.189180E+01 -.532906E+00
  atom #    5
   Hellmann-Feynman + Multipole  : -.278135E+00 0.592655E+00 0.862209E+00
   Pulay + GGA                   : 0.372847E-02 0.400461E-01 0.853770E-01
   Van der Waals               : -.280273E-03 -.209892E-02 -.131737E-02
   ----------------------------------------------------------------
   Total forces(   5)            : -.274686E+00 0.630602E+00 0.946268E+00
  atom #    6
   Hellmann-Feynman + Multipole  : 0.753416E+00 0.737338E+00 0.147710E+00
   Pulay + GGA                   : -.106349E+00 -.446951E-01 0.636661E-01
   Van der Waals               : 0.255293E-02 0.430465E-02 0.305351E-03
   ----------------------------------------------------------------
   Total forces(   6)            : 0.649620E+00 0.696948E+00 0.211682E+00
  atom #    7
   Hellmann-Feynman + Multipole  : 0.524831E+01 -.635106E+01 -.803901E+01
   Pulay + GGA                   : -.689232E+01 0.812056E+01 0.102152E+02
   Van der Waals               : -.438358E-03 -.991153E-03 -.194085E-02
   ----------------------------------------------------------------
   Total forces(   7)            : -.164445E+01 0.176851E+01 0.217429E+01
  atom #    8
   Hellmann-Feynman + Multipole  : -.383052E+00 0.284438E+00 -.220094E+01
   Pulay + GGA                   : 0.119241E-01 0.695464E-02 0.125627E+00
   Van der Waals               : 0.303415E-03 -.885275E-03 -.203004E-02
   ----------------------------------------------------------------
   Total forces(   8)            : -.370824E+00 0.290508E+00 -.207735E+01
  atom #    9
   Hellmann-Feynman + Multipole  : 0.183556E+01 -.187603E+01 0.534448E+00
   Pulay + GGA                   : -.899091E-01 0.917414E-01 -.930636E-02
   Van der Waals               : -.172868E-02 -.116353E-02 -.257891E-03
   ----------------------------------------------------------------
   Total forces(   9)            : 0.174392E+01 -.178545E+01 0.524884E+00
  atom #   10
   Hellmann-Feynman + Multipole  : -.205588E+01 -.330752E+01 -.162141E+02
   Pulay + GGA                   : 0.336279E+01 0.398784E+01 0.142694E+02
   Van der Waals               : -.416761E-02 -.734619E-02 -.259372E-02
   ----------------------------------------------------------------
   Total forces(  10)            : 0.130274E+01 0.672971E+00 -.194729E+01
  atom #   11
   Hellmann-Feynman + Multipole  : -.493489E+00 -.319712E+00 0.174509E+00
   Pulay + GGA                   : 0.882575E-01 0.695355E-01 0.627949E-01
   Van der Waals               : -.380360E-02 -.227118E-02 0.126129E-02
   ----------------------------------------------------------------
   Total forces(  11)            : -.409035E+00 -.252448E+00 0.238565E+00
  atom #   12
   Hellmann-Feynman + Multipole  : -.406374E+00 -.264757E+00 0.125880E+01
   Pulay + GGA                   : -.418827E-01 -.123540E-01 0.656173E-01
   Van der Waals               : 0.879750E-03 -.165137E-02 -.532809E-02
   ----------------------------------------------------------------
   Total forces(  12)            : -.447377E+00 -.278762E+00 0.131908E+01
  Timings for vdw_correction_hirshfeld (Tkatchenko-Scheffler 2009):
  | CPU time:        3.214 s, Wall clock time:        3.213 s.
  Removing unitary transformations (pure translations, rotations) from forces on atoms.
  Atomic forces before filtering:
  | Net force on center of mass :  0.475308E-02 -.332363E-03 0.980520E-02 eV/A
  | Net torque on center of mass:  0.128571E-01 -.146612E-01 0.184808E-02 eV
  Atomic forces after filtering:
  | Net force on center of mass :  -.178406E-15 0.446015E-15 0.000000E+00 eV/A
  | Net torque on center of mass:  0.302107E-14 0.755268E-15 0.000000E+00 eV
 
  Energy and forces in a compact form:
  | Total energy uncorrected      :         -0.833159155185901E+04 eV
  | Total energy corrected        :         -0.833159155185901E+04 eV  <-- do not rely on this value for anything but (periodic) metals
  | Electronic free energy        :         -0.833159155185901E+04 eV
  Total atomic forces (unitary forces cleaned) [eV/Ang]:
  |   1         -0.108230646406425E+00          0.376045418555276E+01         -0.218048977172155E+01
  |   2          0.233258375521956E+01         -0.342415141243387E+01          0.147397717738285E+01
  |   3         -0.203568440954968E+01         -0.188959116017536E+00         -0.142656749371461E+00
  |   4         -0.737217726002447E+00         -0.189174562350201E+01         -0.533162882724753E+00
  |   5         -0.274847188722791E+00          0.630763541008436E+00          0.945811318152551E+00
  |   6          0.649405569629013E+00          0.697037816127398E+00          0.211736674618311E+00
  |   7         -0.164445103269762E+01          0.176880703342691E+01          0.217340136495862E+01
  |   8         -0.370543736363143E+00          0.290997716776585E+00         -0.207826346138897E+01
  |   9          0.174386771655078E+01         -0.178519497941855E+01          0.524056947345873E+00
  |  10          0.130224159614307E+01          0.672982021000976E+00         -0.194884839592058E+01
  |  11         -0.409450010724154E+00         -0.252360342549246E+00          0.236701978874186E+00
  |  12         -0.447673887076164E+00         -0.278630839971861E+00          0.131773579979493E+01
 
  ------------------------------------ 
  Start decomposition of the XC Energy 
  ------------------------------------ 
  Hartree-Fock part   :          0.000000000 Ha              0.000000000 eV
  ------------------------------------ 
  X Energy            :        -35.923569412 Ha           -977.530059891 eV
  C Energy GGA        :         -1.303373228 Ha            -35.466590051 eV
  Total XC Energy     :        -37.226942640 Ha          -1012.996649943 eV
  LDA X and C from self-consistent density 
  X Energy LDA        :        -32.362834127 Ha           -880.637522930 eV
  C Energy LDA        :         -2.636541105 Ha            -71.743933756 eV
  ------------------------------------ 
  End decomposition of the XC Energy 
  ------------------------------------ 
  Performing Hirshfeld analysis of fragment charges and moments.
  ----------------------------------------------------------------------
  | Atom     1: O
  |   Hirshfeld charge        :     -0.27860637
  |   Free atom volume        :     23.95238533
  |   Hirshfeld volume        :     22.61386161
  |   Hirshfeld dipole vector :      0.02299655       0.04057646       0.02649521
  |   Hirshfeld dipole moment :      0.05364035
  |   Hirshfeld second moments:      0.05203283      -0.02057172       0.01992440
  |                                 -0.02057172      -0.00560493      -0.03416929
  |                                  0.01992440      -0.03416929      -0.05283268
  ----------------------------------------------------------------------
  | Atom     2: H
  |   Hirshfeld charge        :      0.13484038
  |   Free atom volume        :     10.44207651
  |   Hirshfeld volume        :      6.88958653
  |   Hirshfeld dipole vector :     -0.06397529       0.09221048      -0.03232572
  |   Hirshfeld dipole moment :      0.11679282
  |   Hirshfeld second moments:      0.11970518       0.00345082       0.00499398
  |                                  0.00345082       0.08959130      -0.00708985
  |                                  0.00499398      -0.00708985       0.08729251
  ----------------------------------------------------------------------
  | Atom     3: H
  |   Hirshfeld charge        :      0.13117823
  |   Free atom volume        :     10.44207651
  |   Hirshfeld volume        :      7.28225856
  |   Hirshfeld dipole vector :      0.11190751       0.01717276       0.01455778
  |   Hirshfeld dipole moment :      0.11414957
  |   Hirshfeld second moments:      0.09923993      -0.01849072      -0.00376820
  |                                 -0.01849072       0.09623860      -0.01488810
  |                                 -0.00376820      -0.01488810       0.08167243
  ----------------------------------------------------------------------
  | Atom     4: O
  |   Hirshfeld charge        :     -0.30776818
  |   Free atom volume        :     23.95238533
  |   Hirshfeld volume        :     22.20113028
  |   Hirshfeld dipole vector :     -0.02627415       0.02011192       0.01609147
  |   Hirshfeld dipole moment :      0.03679342
  |   Hirshfeld second moments:      0.02126262       0.05449026      -0.01155582
  |                                  0.05449026       0.01410680       0.01817869
  |                                 -0.01155582       0.01817869      -0.00643712
  ----------------------------------------------------------------------
  | Atom     5: H
  |   Hirshfeld charge        :      0.07593585
  |   Free atom volume        :     10.44207651
  |   Hirshfeld volume        :      7.80479498
  |   Hirshfeld dipole vector :      0.01698004       0.04332449       0.03278044
  |   Hirshfeld dipole moment :      0.05692003
  |   Hirshfeld second moments:      0.08940962      -0.00095989      -0.01121975
  |                                 -0.00095989       0.04223237      -0.01966197
  |                                 -0.01121975      -0.01966197       0.07385771
  ----------------------------------------------------------------------
  | Atom     6: H
  |   Hirshfeld charge        :      0.12853726
  |   Free atom volume        :     10.44207651
  |   Hirshfeld volume        :      6.68491299
  |   Hirshfeld dipole vector :     -0.10202719      -0.06256912       0.02157980
  |   Hirshfeld dipole moment :      0.12161468
  |   Hirshfeld second moments:      0.09631487       0.01262197      -0.00007608
  |                                  0.01262197       0.11028031       0.01239640
  |                                 -0.00007608       0.01239640       0.10232353
  ----------------------------------------------------------------------
  | Atom     7: O
  |   Hirshfeld charge        :     -0.14649680
  |   Free atom volume        :     23.95238533
  |   Hirshfeld volume        :     19.64413971
  |   Hirshfeld dipole vector :      0.00407565      -0.00693317      -0.01253403
  |   Hirshfeld dipole moment :      0.01489233
  |   Hirshfeld second moments:      0.08464636      -0.02696485       0.01260017
  |                                 -0.02696485       0.08299246      -0.00983857
  |                                  0.01260017      -0.00983857       0.11040055
  ----------------------------------------------------------------------
  | Atom     8: H
  |   Hirshfeld charge        :      0.18392583
  |   Free atom volume        :     10.44207651
  |   Hirshfeld volume        :      5.42899649
  |   Hirshfeld dipole vector :      0.02250940      -0.01581665       0.11609496
  |   Hirshfeld dipole moment :      0.11931001
  |   Hirshfeld second moments:      0.14207206      -0.01044513       0.00063396
  |                                 -0.01044513       0.13886156      -0.00071217
  |                                  0.00063396      -0.00071217       0.13029444
  ----------------------------------------------------------------------
  | Atom     9: H
  |   Hirshfeld charge        :      0.18877090
  |   Free atom volume        :     10.44207651
  |   Hirshfeld volume        :      5.67171249
  |   Hirshfeld dipole vector :     -0.08357603       0.08048876      -0.02449418
  |   Hirshfeld dipole moment :      0.11858903
  |   Hirshfeld second moments:      0.12821138      -0.00307192       0.00271390
  |                                 -0.00307192       0.12669725       0.00173581
  |                                  0.00271390       0.00173581       0.14463745
  ----------------------------------------------------------------------
  | Atom    10: O
  |   Hirshfeld charge        :     -0.32633693
  |   Free atom volume        :     23.95238533
  |   Hirshfeld volume        :     22.31447111
  |   Hirshfeld dipole vector :      0.00979291       0.00261517       0.05888941
  |   Hirshfeld dipole moment :      0.05975536
  |   Hirshfeld second moments:      0.03398391       0.05667277      -0.00832092
  |                                  0.05667277      -0.01289449       0.00354794
  |                                 -0.00832092       0.00354794      -0.01035923
  ----------------------------------------------------------------------
  | Atom    11: H
  |   Hirshfeld charge        :      0.13519579
  |   Free atom volume        :     10.44207651
  |   Hirshfeld volume        :      6.54027135
  |   Hirshfeld dipole vector :      0.10052732       0.06603343       0.03838215
  |   Hirshfeld dipole moment :      0.12625112
  |   Hirshfeld second moments:      0.11018955       0.01276467      -0.01221512
  |                                  0.01276467       0.09861584      -0.00478806
  |                                 -0.01221512      -0.00478806       0.11185262
  ----------------------------------------------------------------------
  | Atom    12: H
  |   Hirshfeld charge        :      0.08079893
  |   Free atom volume        :     10.44207651
  |   Hirshfeld volume        :      7.72896888
  |   Hirshfeld dipole vector :     -0.02863199      -0.02138281       0.04266686
  |   Hirshfeld dipole moment :      0.05565498
  |   Hirshfeld second moments:      0.07149046      -0.00065560       0.03254570
  |                                 -0.00065560       0.07834017       0.01588486
  |                                  0.03254570       0.01588486       0.06183463
  ----------------------------------------------------------------------


------------------------------------------------------------------------------
  Final output of selected total energy values:

  The following output summarizes some interesting total energy values
  at the end of a run (AFTER all relaxation, molecular dynamics, etc.).

  | Total energy of the DFT / Hartree-Fock s.c.f. calculation      :          -8331.591551859 eV
  | Final zero-broadening corrected energy (caution - metals only) :          -8331.591551859 eV
  | For reference only, the value of 1 Hartree used in FHI-aims is :             27.211384500 eV

  Before relying on these values, please be sure to understand exactly which
  total energy value is referred to by a given number. Different objects may
  all carry the same name 'total energy'. Definitions:

  Total energy of the DFT / Hartree-Fock s.c.f. calculation:
  | Note that this energy does not include ANY quantities calculated after the
  | s.c.f. cycle, in particular not ANY RPA, MP2, etc. many-body perturbation terms.

  Final zero-broadening corrected energy:
  | For metallic systems only, a broadening of the occupation numbers at the Fermi
  | level can be extrapolated back to zero broadening by an electron-gas inspired
  | formula. For all systems that are not real metals, this value can be
  | meaningless and should be avoided.

------------------------------------------------------------------------------

------------------------------------------------------------
          Leaving FHI-aims.
          Date     :  20150727, Time     :  120933.172

          Computational steps:
          | Number of self-consistency cycles          :           14

          Detailed time accounting                     :  max(cpu_time)    wall_clock(cpu1)
          | Total time                                 :       21.472 s          21.481 s
          | Preparation time                           :        0.170 s           0.534 s
          | Grid partitioning                          :        0.106 s           0.106 s
          | Preloading free-atom quantities on grid    :        0.013 s           0.013 s
          | Free-atom superposition energy             :        0.045 s           0.046 s
          | Total time for integrations                :        9.249 s           9.251 s
          | Total time for solution of K.-S. equations :        0.550 s           0.548 s
          | Total time for density & force components  :        6.965 s           6.965 s
          | Total time for mixing                      :        0.138 s           0.134 s
          | Total time for Hartree multipole update    :        0.059 s           0.061 s
          | Total time for Hartree multipole sum       :        3.614 s           3.612 s
          | Total time for total energy evaluation     :        0.002 s           0.004 s
          | Total time for scaled ZORA corrections     :        0.000 s           0.000 s
          | Total time for TS (2009) vdW correction    :        0.035 s           0.034 s

          Have a nice day.
------------------------------------------------------------
