  MPI-parallelism will be employed.
------------------------------------------------------------
          Invoking FHI-aims ...
          Version 081213
          Compiled on 2013/08/29 at 17:41:06 on host generoso.

          When using FHI-aims, please cite the following reference:

          Volker Blum, Ralf Gehrke, Felix Hanke, Paula Havu,
          Ville Havu, Xinguo Ren, Karsten Reuter, and Matthias Scheffler,
          'Ab Initio Molecular Simulations with Numeric Atom-Centered Orbitals: FHI-aims',
          Computer Physics Communications 180, 2175-2196 (2009)

          For any questions about FHI-aims, please visit the aimsclub website
          with its forums and wiki. Contributions to both the forums and the
          wiki are warmly encouraged - they are for you, and everyone is welcome there.

------------------------------------------------------------

  Date     :  20150727, Time     :  123729.478
  Time zero on CPU 1             :   0.409930000000000E-01  s.
  Internal wall clock time zero  :           207232649.478  s.

  Using        8 parallel tasks.
  Task        0 on host gen60 reporting.
  Task        1 on host gen60 reporting.
  Task        2 on host gen60 reporting.
  Task        3 on host gen60 reporting.
  Task        4 on host gen60 reporting.
  Task        5 on host gen60 reporting.
  Task        6 on host gen60 reporting.
  Task        7 on host gen60 reporting.

  Performing system and environment tests:
  | Environment variable OMP_NUM_THREADS correctly set to 1.
  | Checking for scalapack...
  | No scalapack compiled in.

  Obtaining array dimensions for all initial allocations:
  
  -----------------------------------------------------------------------
  Parsing control.in (first pass over file, find array dimensions only).
  The contents of control.in will be repeated verbatim below
  unless switched off by setting 'verbatim_writeout .false.' .
  in the first line of control.in .
  -----------------------------------------------------------------------
  
  #########################################################################################
  #
  #  Volker Blum, FHI 2008 : Test run input file control.in
  #
  #########################################################################################
  #
  #  Physical model
  #
    xc                 rpbe
    spin               none
    relativistic       atomic_zora scalar
    charge             0.
   vdw_correction_hirshfeld
  #
  #  SCF convergence
  #
    occupation_type    gaussian 0.01
    mixer              pulay
      n_max_pulay        10
      charge_mix_param   0.1
    sc_accuracy_rho    5E-5
    sc_accuracy_eev    5E-3
    sc_accuracy_etot   5E-6
    sc_iter_limit      3000
  #
  #  Eigenvalue solver
  #
    KS_method          lapack
      empty_states       8
      basis_threshold    0.e-5
  #
  #  Efficiency
  #
  #   all previous settings are now default, except stratmann still
  #   undecided. Continue to handle stratmann with care, if at all.
  #
  #  partition_type stratmann
    partition_type rho_r2
  #  hartree_partition_type stratmann
  #
  #  Oprions for large clusters (100's of atoms: memory saving / better scaling)
  #
  # for periodic systems:
  #
    density_update_method orbital
    packed_matrix_format none
  #  k_grid 6 6 6
  #  output k_eigenvalue 1
  #  distributed_spline_storage .true.
  #
  #  Relaxation
  #
  #  relax_geometry   bfgs 5.e-3
    sc_accuracy_forces 5.E-4
    final_forces_cleaned .true.
  #
  #  Output options
  #
  #  output mulliken
    output Hirshfeld
  #  output dipole
  
  #harmonic_length_scale 0.001
  
  ################################################################################
  #
  #  FHI-aims code project
  #  VB, Fritz-Haber Institut, 2007
  #
  #  Suggested "safe" defaults for H atom (to be pasted into control.in file)
  #  Basis constructed for a non-relativistic H2 molecule using the
  #  PW-LDA functional.
  #
  ################################################################################
    species        H
  #     global species definitions
      nucleus             1
      cut_pot             4.0  2.0  1.0
      cut_free_atom       finite 8.0
      logarithmic         0.00010000 100.00  1.0123
      basis_dep_cutoff    1d-4  # 1d-4 is safe default - please check 5d-4 if you wish!
      radial_base         24 7.0
      radial_multiplier   2
      angular_grids       specified
        division   0.2783  110
        division   0.3822  194
        division   0.5626  302
  #      division   0.5922  434
  #      division   0.6227  590
  #      division   0.7206  770
        outer_grid  302
      l_hartree           4
  ################################################################################
  #
  #  Definition of "minimal" basis
  #
  ################################################################################
  #     valence basis states
      valence      1  s   1.
  #     ion occupancy
      ion_occ      1  s   0.5
  ################################################################################
  #
  #  Suggested additional basis functions. For production calculations,
  #  uncomment them one after another (the most important basis functions are
  #  listed first).
  #
  ################################################################################
  #  "First tier" - improvements: -1014.90 meV to -62.69 meV
       hydro 2 s 2.1
       hydro 2 p 3.5
  #  "Second tier" - improvements: -12.89 meV to -1.83 meV
       hydro 1 s 0.85
       hydro 2 p 3.7
       hydro 2 s 1.2
       hydro 3 d 7
  #  "Third tier" - improvements: -0.25 meV to -0.12 meV
  #     hydro 4 f 11.2
  #     hydro 3 p 4.8
  #     hydro 4 d 9
  #     hydro 3 s 3.2
  
  ################################################################################
  #
  #  FHI-aims code project
  #  VB, Fritz-Haber Institut, 2007
  #
  #  Suggested "safe" defaults for O atom (to be pasted into control.in file)
  #  All values have been tested for a non-relativistic, non-spinpolarized O2
  #  molecule using the PW-LDA functional. Validity for PBE is expected.
  #
  #  Constructed for dimers: 1.0 A, 1.208 A, 1.5 A, 2.0 A, 3.0 A
  #
  ################################################################################
    species        O
  #     global species definitions
      nucleus             8
      mass                15.9994
      l_hartree           4
      cut_pot             4.0  2.0  1.0
      cut_free_atom       finite 8.0
      basis_dep_cutoff    1d-4  # 1d-4 is safe default - please check 5d-4 if you wish!
      logarithmic         0.00010000 100.00  1.0123
      radial_base         36 7.0
      radial_multiplier   2
       angular_grids specified
        division   0.4087  110
        division   0.5181  194
        division   0.6184  302
  #      division   0.7315  434
  #      division   0.7934  590
  #      division   0.9656  770
  #      division   1.4041  974
  #      outer_grid 974
        outer_grid 302
  ################################################################################
  #
  #  Definition of "minimal" basis
  #
  ################################################################################
  #     valence basis states
      valence      2  s   2.
      valence      2  p   4.
  #     ion occupancy
      ion_occ      2  s   1.
      ion_occ      2  p   3.
  ################################################################################
  #
  #  Suggested additional basis functions. For production calculations,
  #  uncomment them one after another (the most important basis functions are
  #  listed first).
  #
  ################################################################################
  #  "First tier" - improvements: -699.05 meV to -159.38 meV
       hydro 2 p 1.8
       hydro 3 d 7.6
       hydro 3 s 6.4
  #  "Second tier" - improvements: -49.91 meV to -5.39 meV
       hydro 4 f 11.6
       hydro 3 p 6.2
       hydro 3 d 5.6
       hydro 5 g 17.6
       hydro 1 s 0.75
  #  "Third tier" - improvements: -2.83 meV to -0.50 meV
  #     ionic 2 p auto
  #     hydro 4 f 10.8
  #     hydro 4 d 4.7
  #     hydro 2 s 6.8
  #  "Fourth tier" - improvements: -0.40 meV to -0.12 meV
  #     hydro 3 p 5
  #     hydro 3 s 3.3
  #     hydro 5 g 15.6
  #     hydro 4 f 17.6
  #     hydro 4 d 14
  # Further basis functions - -0.08 meV and below
  #     hydro 3 s 2.1
  #     hydro 4 d 11.6
  #     hydro 3 p 16
  #     hydro 2 s 17.2
  
  
  -----------------------------------------------------------------------
  Completed first pass over input file control.in .
  -----------------------------------------------------------------------
  
  
  -----------------------------------------------------------------------
  Parsing geometry.in (first pass over file, find array dimensions only).
  The contents of geometry.in will be repeated verbatim below
  unless switched off by setting 'verbatim_writeout .false.' .
  in the first line of geometry.in .
  -----------------------------------------------------------------------
  
  atom      -4.053030000      0.065001000     -1.525160000  O
  atom      -4.566710000      0.974813000     -1.912820000  H
  atom      -3.067820000      0.330172000     -1.477310000  H
  atom      -1.645860000      0.870179000     -1.502250000  O
  atom      -1.568890000      1.501730000     -0.721051000  H
  atom      -0.824432000      0.282220000     -1.377720000  H
  atom      -4.066610000      4.258280000     -0.900064000  O
  atom      -3.224110000      3.876870000     -0.569443000  H
  atom      -3.737450000      5.116530000     -1.322720000  H
  
  -----------------------------------------------------------------------
  Completed first pass over input file geometry.in .
  -----------------------------------------------------------------------
  
 
  Basic array size parameters: 
  | Number of species                 :        2
  | Number of atoms                   :        9
  | Max. basis fn. angular momentum   :        4
  | Max. atomic/ionic basis occupied n:        2
  | Max. number of basis fn. types    :        2
  | Max. radial fns per species/type  :        8
  | Max. logarithmic grid size        :     1301
  | Max. radial integration grid size :       73
  | Max. angular integration grid size:      302
  | Max. angular grid division number :        8
  | Radial grid for Hartree potential :     1301
  | Number of spin channels           :        1

------------------------------------------------------------
          Reading file control.in.
------------------------------------------------------------
  XC: Using RPBE gradient-corrected functionals.
  Spin treatment: No spin polarisation.
  Scalar relativistic treatment of kinetic energy: on-site free-atom approximation to ZORA.
  Charge =   0.000000E+00: Neutral system requested explicitly.
  Using non-empirical van der Waals correction (Hirshfeld partitioning):
  Occupation type: Gaussian broadening, width =   0.100000E-01 eV.
  Using pulay charge density mixing.
  Pulay mixing - number of memorized iterations:   10
  Charge density mixing - mixing parameter:     0.1000
  Convergence accuracy of self-consistent charge density: 0.5000E-04
  Convergence accuracy of sum of eigenvalues: 0.5000E-02
  Convergence accuracy of total energy: 0.5000E-05
  Maximum number of s.-c. iterations  :  3000
  Kohn-Sham eigenvalues and eigenfunctions calculated by lapack diagonalisation (D&C).
  Number of empty states per atom:        8
  Threshold for basis singularities: 0.0000E+00
  Partition function in integrals calculations: rho / r^2
 Using packed matrix format           0
  Convergence accuracy of forces: 0.5000E-03
  Cleaning forces before final output.
  Hirshfeld charge analysis will be performed.
 
  Reading configuration options for species H                   .
  | Found nuclear charge :   1.0000
  | Found cutoff potl. onset [A], width [A], scale factor :    4.00000    2.00000    1.00000
  | Found cutoff specification for free atom: Cutoff potential begins at    8.00000 A.
  | Found logarithmic grid data [bohr] : 0.1000E-03 0.1000E+03 0.1012E+01
  | Threshold for basis-dependent cutoff potential is   0.100000E-03
  | Found data for basic radial integration grid :    24 points, outermost radius =    7.000 A
  | Found multiplier for basic radial grid :   2
  | Found angular grid specification: user-specified.
  | Specified grid contains     4 separate shells.
  | Check grid settings after all constraints further below.
  | Found l_max for Hartree potential  :   4
  | Found free-atom valence shell :  1 s   1.000
  | No ionic wave fns used. Skipping ion_occ.
  | Found hydrogenic basis function :  2 s   2.100
  | Found hydrogenic basis function :  2 p   3.500
  | Found hydrogenic basis function :  1 s   0.850
  | Found hydrogenic basis function :  2 p   3.700
  | Found hydrogenic basis function :  2 s   1.200
  | Found hydrogenic basis function :  3 d   7.000
  Species H                   : Missing cutoff potential type.
  Defaulting to exp(1/x)/(1-x)^2 type cutoff potential.
  Species H : On-site basis accuracy parameter (for Gram-Schmidt orthonormalisation) not specified.
  Using default value basis_acc =  0.1000000E-03.
  Species H                   : Using default innermost maximum threshold i_radial=  2 for radial functions.
  Species H                   : Basic radial grid will be enhanced according to radial_multiplier =   2, to contain    49 grid points.
 
  Reading configuration options for species O                   .
  | Found nuclear charge :   8.0000
  | Found atomic mass :    15.9994000000000      amu
  | Found l_max for Hartree potential  :   4
  | Found cutoff potl. onset [A], width [A], scale factor :    4.00000    2.00000    1.00000
  | Found cutoff specification for free atom: Cutoff potential begins at    8.00000 A.
  | Threshold for basis-dependent cutoff potential is   0.100000E-03
  | Found logarithmic grid data [bohr] : 0.1000E-03 0.1000E+03 0.1012E+01
  | Found data for basic radial integration grid :    36 points, outermost radius =    7.000 A
  | Found multiplier for basic radial grid :   2
  | Found angular grid specification: user-specified.
  | Specified grid contains     4 separate shells.
  | Check grid settings after all constraints further below.
  | Found free-atom valence shell :  2 s   2.000
  | Found free-atom valence shell :  2 p   4.000
  | No ionic wave fns used. Skipping ion_occ.
  | No ionic wave fns used. Skipping ion_occ.
  | Found hydrogenic basis function :  2 p   1.800
  | Found hydrogenic basis function :  3 d   7.600
  | Found hydrogenic basis function :  3 s   6.400
  | Found hydrogenic basis function :  4 f  11.600
  | Found hydrogenic basis function :  3 p   6.200
  | Found hydrogenic basis function :  3 d   5.600
  | Found hydrogenic basis function :  5 g  17.600
  | Found hydrogenic basis function :  1 s   0.750
  Species O                   : Missing cutoff potential type.
  Defaulting to exp(1/x)/(1-x)^2 type cutoff potential.
  Species O : On-site basis accuracy parameter (for Gram-Schmidt orthonormalisation) not specified.
  Using default value basis_acc =  0.1000000E-03.
  Species O                   : Using default innermost maximum threshold i_radial=  2 for radial functions.
  Species O                   : Basic radial grid will be enhanced according to radial_multiplier =   2, to contain    73 grid points.
 
  Finished reading input file 'control.in'. Consistency checks are next.
 
  Target number of points in a grid batch is not set. Defaulting to  100
  Method for grid partitioning is not set. Defaulting to parallel hash+maxmin partitioning.
  Batch size limit is not set. Defaulting to    200
  By default, will store active basis functions for each batch.
  If in need of memory, prune_basis_once .false. can be used to disable this option.
  communication_type for Hartree potential was not specified.
  Defaulting to calc_hartree .
  Pulay mixer: Number of initial linear mixing iterations not set.
  Defaulting to    0 iterations.
  Work space size for distributed Hartree potential not set.
  Defaulting to   0.200000E+03 MB.
  Algorithm-dependent basis array size parameters:
  | n_max_pulay                         :       10
  Geometry relaxation not requested: no relaxation will be performed.
  Handling of forces: Unphysical translation and rotation will be removed from forces.
  No accuracy limit for integral partition fn. given. Defaulting to 0.1000E-14.
  No threshold value for u(r) in integrations given. Defaulting to 0.1000E-05.
  No accuracy for occupation numbers given. Defaulting to 0.1000E-07.
  No threshold value for occupation numbers given. Defaulting to 0.0000E+00.
  No accuracy for fermi level given. Defaulting to 0.1000E-19.
  Maximum # of iterations to find E_F not set. Defaulting to  200.
  Will not use alltoall communication since running on < 1024 CPUs.
  Partitioning for Hartree potential was not defined. Using partition_type for integrals.
  | Reporting present value of keyword multip_moments_threshold  :       0.10000000E-09
  | This value may affect high angular momentum components of the Hartree potential in periodic systems.
  No q(lm)/r^(l+1) cutoff set for long-range Hartree potential.
  | Using default value of  0.100000E-09 .
  | Verify using the multipole_threshold keyword.
  Defaulting to new monopole extrapolation.
  Density update method: Loop over occupied states selected for charge density update.
------------------------------------------------------------


------------------------------------------------------------
          Reading geometry description geometry.in.
------------------------------------------------------------
  Input structure read successfully.
  The structure contains        9 atoms,  and a total of         30.000 electrons.

  Input geometry:
  | No unit cell requested.
  | Atomic structure:
  |       Atom                x [A]            y [A]            z [A]
  |    1: Species O             -4.053030         0.065001        -1.525160
  |    2: Species H             -4.566710         0.974813        -1.912820
  |    3: Species H             -3.067820         0.330172        -1.477310
  |    4: Species O             -1.645860         0.870179        -1.502250
  |    5: Species H             -1.568890         1.501730        -0.721051
  |    6: Species H             -0.824432         0.282220        -1.377720
  |    7: Species O             -4.066610         4.258280        -0.900064
  |    8: Species H             -3.224110         3.876870        -0.569443
  |    9: Species H             -3.737450         5.116530        -1.322720
  |

  | The smallest distance between any two atoms is         0.98213547 AA.
  |
  | The first atom of this pair is atom number                      7 .
  | The second atom of this pair is atom number                     8 .

  Structure-dependent array size parameters: 
  | Maximum number of distinct radial functions  :       18
  | Maximum number of basis functions            :      207
  | Number of Kohn-Sham states (occupied + empty):       51
------------------------------------------------------------

------------------------------------------------------------
          Preparing all fixed parts of the calculation.
------------------------------------------------------------
  Determining machine precision:
    2.225073858507201E-308
  Setting up grids for atomic and cluster calculations.

  Creating wave function, potential, and density for free atoms.

  Species: H

  List of occupied orbitals and eigenvalues:
    n    l              occ      energy [Ha]    energy [eV]
    1    0           1.0000        -0.241408        -6.5691


  Species: O

  List of occupied orbitals and eigenvalues:
    n    l              occ      energy [Ha]    energy [eV]
    1    0           2.0000       -18.944147      -515.4965
    2    0           2.0000        -0.883529       -24.0421
    2    1           4.0000        -0.330176        -8.9845

  Creating fixed part of basis set: Ionic, confined, hydrogenic.
 
  H                    hydrogenic:
 
  List of hydrogenic basis orbitals: 
    n    l      effective z      eigenvalue [eV]  inner max. [A]     outer max. [A]     outer radius [A]   
    2    0         2.100000       -14.9965           0.193241           1.317192           5.372934
    2    1         3.500000       -41.6672           0.602363           0.602363           4.056010
    1    0         0.850000        -9.8292           0.624864           0.624864           5.372934
    2    1         3.700000       -46.5653           0.573616           0.573616           3.909951
    2    0         1.200000        -4.5995           0.334977           2.228160           5.505921
    3    2         7.000000       -74.0753           0.680692           0.680692           3.769152
 
 
  O                    hydrogenic:
 
  List of hydrogenic basis orbitals: 
    n    l      effective z      eigenvalue [eV]  inner max. [A]     outer max. [A]     outer radius [A]   
    2    1         1.800000       -11.0118           1.178546           1.178546           5.432516
    3    2         7.600000       -87.3182           0.624117           0.624117           3.541422
    3    0         6.400000       -61.9209           0.061166           1.081887           4.306510
    4    3        11.600000      -114.4238           0.731621           0.731621           3.584982
    3    1         6.200000       -58.1113           0.255677           1.030255           4.306510
    3    2         5.600000       -47.4081           0.847222           0.847222           4.413102
    5    4        17.600000      -168.5799           0.749730           0.749730           3.372413
    1    0         0.750000        -7.6499           0.705275           0.705275           5.366508
 

  Adding cutoff potential to free-atom effective potential.
  Creating atomic-like basis functions for current effective potential.

  Species H                   :

  List of atomic basis orbitals and eigenvalues:
    n    l      energy [Ha]    energy [eV]    outer radius [A]
    1    0        -0.241374        -6.5681       5.372934


  Species O                   :

  List of atomic basis orbitals and eigenvalues:
    n    l      energy [Ha]    energy [eV]    outer radius [A]
    1    0       -18.944147      -515.4965       1.415745
    2    0        -0.883529       -24.0421       5.048305
    2    1        -0.330173        -8.9845       5.301302

  Assembling full basis from fixed parts.
  | Species H :   atomic orbital   1 s accepted.
  | Species H :    hydro orbital   2 s accepted.
  | Species H :    hydro orbital   1 s accepted.
  | Species H :    hydro orbital   2 s accepted.
  | Species H :    hydro orbital   2 p accepted.
  | Species H :    hydro orbital   2 p accepted.
  | Species H :    hydro orbital   3 d accepted.
  | Species O :   atomic orbital   1 s accepted.
  | Species O :    hydro orbital   3 s accepted.
  | Species O :   atomic orbital   2 s accepted.
  | Species O :    hydro orbital   1 s accepted.
  | Species O :    hydro orbital   3 p accepted.
  | Species O :   atomic orbital   2 p accepted.
  | Species O :    hydro orbital   2 p accepted.
  | Species O :    hydro orbital   3 d accepted.
  | Species O :    hydro orbital   3 d accepted.
  | Species O :    hydro orbital   4 f accepted.
  | Species O :    hydro orbital   5 g accepted.
 
  Basis size parameters after reduction:
  | Total number of radial functions:       18
  | Total number of basis functions :      207
 
  Testing on-site integration grid accuracy.
  |  Species  Function  <phi|h_atom|phi> (log., in eV)  <phi|h_atom|phi> (rad., in eV)
           1        1                 -6.5683835025                 -6.5684759159
           1        2                 13.3711789951                 13.3708738703
           1        3                 23.6590910787                 23.6532055418
           1        4                 16.2963827186                 16.1870710655 ***
           1        5                 28.7627214838                 28.7627215090
           1        6                 59.5965249172                 59.5965950857
           1        7                 60.2220506392                 60.2220503827
           2        8               -515.4964576505               -515.4964530710
           2        9                 15.3030791347                 15.3030722972
           2       10                -21.7296094581                -21.7296135470
           2       11                 14.2969371730                 14.2969701621
           2       12                 21.0679693190                 21.0679697493
           2       13                 -2.3833606469                 -2.3833613176
           2       14                 13.7067136422                 13.7066766629
           2       15                 45.8013116808                 45.8013116965
           2       16                 52.2309815402                 52.2309831494
           2       17                 85.4120732416                 85.4120732763
           2       18                142.1019167745                142.1019167817
 * Note: Onsite integrals marked "***" above are less accurate than
 * onsite_accuracy_threshold =    0.03000 eV. Usually, this is harmless.
 * When in doubt, tighten the "radial" and/or "radial_multiplier" flags to check.

  Preparing densities etc. for the partition functions (integrals / Hartree potential).

  Preparations completed.
  max(cpu_time)          :      0.168 s.
  Wall clock time (cpu1) :      0.518 s.
------------------------------------------------------------

------------------------------------------------------------
          Begin self-consistency loop: Initialization.

          Date     :  20150727, Time     :  123730.040
------------------------------------------------------------

  Initializing index lists of integration centers etc. from given atomic structure:
  | Number of centers in hartree potential         :         9
  | Number of centers in hartree multipole         :         9
  | Number of centers in electron density summation:         9
  | Number of centers in basis integrals           :         9
  | Number of centers in integrals                 :         9
  Partitioning the integration grid into batches with parallel hashing+maxmin method.
  | Number of batches:     1297
  | Maximal batch size:     189
  | Minimal batch size:      50
  | Average batch size:      90.999
  | Standard deviation of batch sizes:      28.644

  Integration load balanced across     8 MPI tasks.
  Work distribution over tasks is as follows:
  Task     0 has      14708 integration points.
  Task     1 has      14756 integration points.
  Task     2 has      14728 integration points.
  Task     3 has      14802 integration points.
  Task     4 has      14715 integration points.
  Task     5 has      14854 integration points.
  Task     6 has      14750 integration points.
  Task     7 has      14713 integration points.
  Initializing partition tables, free-atom densities, potentials, etc. across the integration grid (initialize_grid_storage).
  | Net number of integration points:   118026
  | of which are non-zero points    :   117496
  Obtaining max. number of non-zero basis functions in each batch (get_n_compute_maxes).
  | Maximal number of non-zero basis functions:      205 in task     0
  | Maximal number of non-zero basis functions:      206 in task     1
  | Maximal number of non-zero basis functions:      206 in task     2
  | Maximal number of non-zero basis functions:      206 in task     3
  | Maximal number of non-zero basis functions:      206 in task     4
  | Maximal number of non-zero basis functions:      206 in task     5
  | Maximal number of non-zero basis functions:      206 in task     6
  | Maximal number of non-zero basis functions:      206 in task     7
  Integrating Hamiltonian matrix: batch-based integration.
  Time summed over all CPUs for integration: real work        2.386 s, elapsed        2.414 s
  Integrating overlap matrix.
  Time summed over all CPUs for integration: real work        1.231 s, elapsed        1.245 s

  Updating Kohn-Sham eigenvalues, eigenvectors, occupation numbers, and Fermi level.
  Solving generalized eigenproblem
  Updating Kohn-Sham eigenvalues and eigenfunctions.
  Transforming overlap matrix and checking for singularities.
  Overlap matrix is nonsingular:
  | Lowest eigenvalue:  0.318212E-03
  Solving real generalised eigenvalue problem by standard LAPACK (fast)
  Determining occupation numbers for Kohn-Sham eigenstates.
  | Chemical potential (Fermi level) in eV                 : -.51563506E+01
  | Error in electron count due to remaining E_F inaccuracy: 0.00000000E+00
  | Maximum occupation number of highest empty state:  0.00E+00

  Writing Kohn-Sham eigenvalues.

  State    Occupation    Eigenvalue [Ha]    Eigenvalue [eV]
      1       2.00000         -19.042424         -518.17072
      2       2.00000         -19.040005         -518.10491
      3       2.00000         -19.019449         -517.54554
      4       2.00000          -1.086740          -29.57171
      5       2.00000          -1.083005          -29.47007
      6       2.00000          -1.041663          -28.34510
      7       2.00000          -0.605155          -16.46709
      8       2.00000          -0.602864          -16.40476
      9       2.00000          -0.588827          -16.02280
     10       2.00000          -0.516272          -14.04846
     11       2.00000          -0.504792          -13.73608
     12       2.00000          -0.471530          -12.83099
     13       2.00000          -0.431584          -11.74399
     14       2.00000          -0.426825          -11.61451
     15       2.00000          -0.409330          -11.13844
     16       0.00000          -0.097147           -2.64350
     17       0.00000          -0.060897           -1.65709
     18       0.00000          -0.059996           -1.63259
     19       0.00000          -0.020406           -0.55529
     20       0.00000           0.028060            0.76356
     21       0.00000           0.041268            1.12296
     22       0.00000           0.073121            1.98973
     23       0.00000           0.077001            2.09530
     24       0.00000           0.090354            2.45865
     25       0.00000           0.098390            2.67733
     26       0.00000           0.107099            2.91432
     27       0.00000           0.113478            3.08790
     28       0.00000           0.116568            3.17197
     29       0.00000           0.147646            4.01765
     30       0.00000           0.155392            4.22844
     31       0.00000           0.174760            4.75546
     32       0.00000           0.191949            5.22319
     33       0.00000           0.216478            5.89066
     34       0.00000           0.256055            6.96761
     35       0.00000           0.263135            7.16026
     36       0.00000           0.308401            8.39202
     37       0.00000           0.335644            9.13333
     38       0.00000           0.358172            9.74637
     39       0.00000           0.360948            9.82190
     40       0.00000           0.364945            9.93066
     41       0.00000           0.380708           10.35960
     42       0.00000           0.405356           11.03031
     43       0.00000           0.412275           11.21857
     44       0.00000           0.419527           11.41590
     45       0.00000           0.432915           11.78021
     46       0.00000           0.467707           12.72696
     47       0.00000           0.495973           13.49612
     48       0.00000           0.505195           13.74705
     49       0.00000           0.541806           14.74330
     50       0.00000           0.602482           16.39437
     51       0.00000           0.685954           18.66577

  Highest occupied state (VBM) at    -11.13843539 eV
  | Occupation number:      2.00000000

  Lowest unoccupied state (CBM) at    -2.64349896 eV
  | Occupation number:      0.00000000

  Overall HOMO-LUMO gap:      8.49493643 eV.
  Calculating total energy contributions from superposition of free atom densities.

  Total energy components:
  | Sum of eigenvalues            :        -129.74093051 Ha       -3530.43034560 eV
  | XC energy correction          :         -27.29014400 Ha        -742.60260134 eV
  | XC potential correction       :          34.86477139 Ha         948.71869974 eV
  | Free-atom electrostatic energy:        -107.66740057 Ha       -2929.77903504 eV
  | Hartree energy correction     :           0.00000000 Ha           0.00000000 eV
  | van der Waals energy corr.    :           0.00000000 Ha           0.00000000 eV
  | Entropy correction            :           0.00000000 Ha           0.00000000 eV
  | ---------------------------
  | Total energy                  :        -229.83370369 Ha       -6254.09328224 eV
  | Total energy, T -> 0          :        -229.83370369 Ha       -6254.09328224 eV  <-- do not rely on this value for anything but (periodic) metals
  | Electronic free energy        :        -229.83370369 Ha       -6254.09328224 eV

  Derived energy quantities:
  | Kinetic energy                :         227.41475324 Ha        6188.27029138 eV
  | Electrostatic energy          :        -429.95831294 Ha      -11699.76097228 eV
  | Energy correction for multipole
  | error in Hartree potential    :           0.00000000 Ha           0.00000000 eV
  | Sum of eigenvalues per atom                           :        -392.27003840 eV
  | Total energy (T->0) per atom                          :        -694.89925358 eV  <-- do not rely on this value for anything but (periodic) metals
  | Electronic free energy per atom                       :        -694.89925358 eV
  Initialize hartree_potential_storage
  Max. number of atoms included in rho_multipole:            9

  End scf initialization - timings             :  max(cpu_time)    wall_clock(cpu1)
  | Time for scf. initialization               :        0.699 s           0.699 s
  | Boundary condition initialization          :        0.000 s           0.000 s
  | Integration                                :        0.459 s           0.459 s
  | Solution of K.-S. eqns.                    :        0.065 s           0.065 s
  | Grid partitioning                          :        0.082 s           0.081 s
  | Preloading free-atom quantities on grid    :        0.013 s           0.013 s
  | Free-atom superposition energy             :        0.030 s           0.029 s
  | Total energy evaluation                    :        0.000 s           0.000 s
------------------------------------------------------------

------------------------------------------------------------
          Begin self-consistency iteration #    1

  Date     :  20150727, Time     :  123730.739
------------------------------------------------------------
  Evaluating new KS density.
  Integration grid: deviation in total charge (<rho> - N_e) =  -7.105427E-15
  Pulay mixing of updated and previous charge densities.

  Evaluating partitioned Hartree potential by multipole expansion.
  | Analytical far-field extrapolation by fixed multipoles:
  | Hartree multipole sum: apparent total charge =  -0.139024E-05
  Summing up the Hartree potential.
  Time summed over all CPUs for potential: real work        0.944 s, elapsed        0.946 s
  | RMS charge density error from multipole expansion :   0.117249E-02

  Integrating Hamiltonian matrix: batch-based integration.
  Time summed over all CPUs for integration: real work        2.380 s, elapsed        2.421 s

  Updating Kohn-Sham eigenvalues, eigenvectors, occupation numbers, and Fermi level.
  Solving generalized eigenproblem
  Updating Kohn-Sham eigenvalues and eigenfunctions.
  Solving real generalised eigenvalue problem by standard LAPACK (fast)
  Determining occupation numbers for Kohn-Sham eigenstates.
  | Chemical potential (Fermi level) in eV                 : -.47582005E+01
  | Error in electron count due to remaining E_F inaccuracy: 0.00000000E+00
  | Maximum occupation number of highest empty state:  0.00E+00

  Writing Kohn-Sham eigenvalues.

  State    Occupation    Eigenvalue [Ha]    Eigenvalue [eV]
      1       2.00000         -18.979471         -516.45769
      2       2.00000         -18.965412         -516.07510
      3       2.00000         -18.935236         -515.25399
      4       2.00000          -1.057114          -28.76554
      5       2.00000          -1.046975          -28.48964
      6       2.00000          -0.996754          -27.12306
      7       2.00000          -0.580466          -15.79529
      8       2.00000          -0.572623          -15.58186
      9       2.00000          -0.554362          -15.08496
     10       2.00000          -0.482543          -13.13066
     11       2.00000          -0.468518          -12.74903
     12       2.00000          -0.431419          -11.73950
     13       2.00000          -0.396570          -10.79121
     14       2.00000          -0.388586          -10.57396
     15       2.00000          -0.362692           -9.86935
     16       0.00000          -0.090506           -2.46279
     17       0.00000          -0.054607           -1.48595
     18       0.00000          -0.049411           -1.34454
     19       0.00000          -0.015374           -0.41835
     20       0.00000           0.034469            0.93794
     21       0.00000           0.049290            1.34125
     22       0.00000           0.081116            2.20727
     23       0.00000           0.085130            2.31650
     24       0.00000           0.095563            2.60041
     25       0.00000           0.105617            2.87399
     26       0.00000           0.112726            3.06744
     27       0.00000           0.121299            3.30072
     28       0.00000           0.123367            3.35700
     29       0.00000           0.162833            4.43091
     30       0.00000           0.163180            4.44035
     31       0.00000           0.188444            5.12781
     32       0.00000           0.200569            5.45776
     33       0.00000           0.224625            6.11236
     34       0.00000           0.263380            7.16693
     35       0.00000           0.271249            7.38107
     36       0.00000           0.314084            8.54665
     37       0.00000           0.343964            9.35973
     38       0.00000           0.366280            9.96697
     39       0.00000           0.367130            9.99012
     40       0.00000           0.375191           10.20945
     41       0.00000           0.388463           10.57063
     42       0.00000           0.412013           11.21146
     43       0.00000           0.418173           11.37905
     44       0.00000           0.427665           11.63736
     45       0.00000           0.441084           12.00250
     46       0.00000           0.478827           13.02956
     47       0.00000           0.505504           13.75546
     48       0.00000           0.513207           13.96508
     49       0.00000           0.552155           15.02489
     50       0.00000           0.614029           16.70859
     51       0.00000           0.698342           19.00286

  Highest occupied state (VBM) at     -9.86935349 eV
  | Occupation number:      2.00000000

  Lowest unoccupied state (CBM) at    -2.46278970 eV
  | Occupation number:      0.00000000

  Overall HOMO-LUMO gap:      7.40656379 eV.

  Total energy components:
  | Sum of eigenvalues            :        -128.43748126 Ha       -3494.96168680 eV
  | XC energy correction          :         -27.43245043 Ha        -746.47495636 eV
  | XC potential correction       :          35.05141735 Ha         953.79759483 eV
  | Free-atom electrostatic energy:        -107.66740057 Ha       -2929.77903504 eV
  | Hartree energy correction     :          -1.26039667 Ha         -34.29713842 eV
  | van der Waals energy corr.    :           0.00000000 Ha           0.00000000 eV
  | Entropy correction            :           0.00000000 Ha           0.00000000 eV
  | ---------------------------
  | Total energy                  :        -229.74631158 Ha       -6251.71522178 eV
  | Total energy, T -> 0          :        -229.74631158 Ha       -6251.71522178 eV  <-- do not rely on this value for anything but (periodic) metals
  | Electronic free energy        :        -229.74631158 Ha       -6251.71522178 eV

  Derived energy quantities:
  | Kinetic energy                :         228.24928509 Ha        6210.97905839 eV
  | Electrostatic energy          :        -430.56314624 Ha      -11716.21932381 eV
  | Energy correction for multipole
  | error in Hartree potential    :          -0.00019595 Ha          -0.00533213 eV
  | Sum of eigenvalues per atom                           :        -388.32907631 eV
  | Total energy (T->0) per atom                          :        -694.63502464 eV  <-- do not rely on this value for anything but (periodic) metals
  | Electronic free energy per atom                       :        -694.63502464 eV

  Self-consistency convergence accuracy:
  | Change of charge density      : 0.5038E+00
  | Change of sum of eigenvalues  : 0.3547E+02 eV
  | Change of total energy        : 0.2378E+01 eV

  End self-consistency iteration #     1       :  max(cpu_time)    wall_clock(cpu1)
  | Time for this iteration                    :        0.663 s           0.663 s
  | Charge density update                      :        0.218 s           0.217 s
  | Density mixing                             :        0.002 s           0.001 s
  | Hartree multipole update                   :        0.004 s           0.004 s
  | Hartree multipole summation                :        0.119 s           0.119 s
  | Integration                                :        0.303 s           0.303 s
  | Solution of K.-S. eqns.                    :        0.016 s           0.017 s
  | Total energy evaluation                    :        0.001 s           0.000 s
------------------------------------------------------------

------------------------------------------------------------
          Begin self-consistency iteration #    2

  Date     :  20150727, Time     :  123731.402
------------------------------------------------------------
  Evaluating new KS density.
  Integration grid: deviation in total charge (<rho> - N_e) =   2.131628E-14
  Pulay mixing of updated and previous charge densities.

  Evaluating partitioned Hartree potential by multipole expansion.
  | Analytical far-field extrapolation by fixed multipoles:
  | Hartree multipole sum: apparent total charge =  -0.408108E-05
  Summing up the Hartree potential.
  Time summed over all CPUs for potential: real work        0.944 s, elapsed        0.946 s
  | RMS charge density error from multipole expansion :   0.456008E-02

  Integrating Hamiltonian matrix: batch-based integration.
  Time summed over all CPUs for integration: real work        2.376 s, elapsed        2.408 s

  Updating Kohn-Sham eigenvalues, eigenvectors, occupation numbers, and Fermi level.
  Solving generalized eigenproblem
  Updating Kohn-Sham eigenvalues and eigenfunctions.
  Solving real generalised eigenvalue problem by standard LAPACK (fast)
  Determining occupation numbers for Kohn-Sham eigenstates.
  | Chemical potential (Fermi level) in eV                 : -.37967043E+01
  | Error in electron count due to remaining E_F inaccuracy: 0.00000000E+00
  | Maximum occupation number of highest empty state:  0.00E+00

  Highest occupied state (VBM) at     -7.00530226 eV
  | Occupation number:      2.00000000

  Lowest unoccupied state (CBM) at    -2.10976226 eV
  | Occupation number:      0.00000000

  Overall HOMO-LUMO gap:      4.89553999 eV.

  Total energy components:
  | Sum of eigenvalues            :        -125.53640018 Ha       -3416.01925406 eV
  | XC energy correction          :         -27.76385451 Ha        -755.49292031 eV
  | XC potential correction       :          35.48572372 Ha         965.61567249 eV
  | Free-atom electrostatic energy:        -107.66740057 Ha       -2929.77903504 eV
  | Hartree energy correction     :          -4.16768462 Ha        -113.40846868 eV
  | van der Waals energy corr.    :           0.00000000 Ha           0.00000000 eV
  | Entropy correction            :           0.00000000 Ha           0.00000000 eV
  | ---------------------------
  | Total energy                  :        -229.64961616 Ha       -6249.08400559 eV
  | Total energy, T -> 0          :        -229.64961616 Ha       -6249.08400559 eV  <-- do not rely on this value for anything but (periodic) metals
  | Electronic free energy        :        -229.64961616 Ha       -6249.08400559 eV

  Derived energy quantities:
  | Kinetic energy                :         229.82168734 Ha        6253.76630077 eV
  | Electrostatic energy          :        -431.70744899 Ha      -11747.35738605 eV
  | Energy correction for multipole
  | error in Hartree potential    :          -0.00114916 Ha          -0.03127030 eV
  | Sum of eigenvalues per atom                           :        -379.55769490 eV
  | Total energy (T->0) per atom                          :        -694.34266729 eV  <-- do not rely on this value for anything but (periodic) metals
  | Electronic free energy per atom                       :        -694.34266729 eV

  Self-consistency convergence accuracy:
  | Change of charge density      : 0.3786E+00
  | Change of sum of eigenvalues  : 0.7894E+02 eV
  | Change of total energy        : 0.2631E+01 eV

  End self-consistency iteration #     2       :  max(cpu_time)    wall_clock(cpu1)
  | Time for this iteration                    :        0.659 s           0.658 s
  | Charge density update                      :        0.215 s           0.214 s
  | Density mixing                             :        0.003 s           0.003 s
  | Hartree multipole update                   :        0.003 s           0.004 s
  | Hartree multipole summation                :        0.118 s           0.119 s
  | Integration                                :        0.302 s           0.301 s
  | Solution of K.-S. eqns.                    :        0.016 s           0.017 s
  | Total energy evaluation                    :        0.000 s           0.000 s
------------------------------------------------------------

------------------------------------------------------------
          Begin self-consistency iteration #    3

  Date     :  20150727, Time     :  123732.060
------------------------------------------------------------
  Evaluating new KS density.
  Integration grid: deviation in total charge (<rho> - N_e) =   2.131628E-14
  Pulay mixing of updated and previous charge densities.

  Evaluating partitioned Hartree potential by multipole expansion.
  | Analytical far-field extrapolation by fixed multipoles:
  | Hartree multipole sum: apparent total charge =  -0.467159E-05
  Summing up the Hartree potential.
  Time summed over all CPUs for potential: real work        0.944 s, elapsed        0.946 s
  | RMS charge density error from multipole expansion :   0.977846E-02

  Integrating Hamiltonian matrix: batch-based integration.
  Time summed over all CPUs for integration: real work        2.379 s, elapsed        2.415 s

  Updating Kohn-Sham eigenvalues, eigenvectors, occupation numbers, and Fermi level.
  Solving generalized eigenproblem
  Updating Kohn-Sham eigenvalues and eigenfunctions.
  Solving real generalised eigenvalue problem by standard LAPACK (fast)
  Determining occupation numbers for Kohn-Sham eigenstates.
  | Chemical potential (Fermi level) in eV                 : -.35666174E+01
  | Error in electron count due to remaining E_F inaccuracy: 0.00000000E+00
  | Maximum occupation number of highest empty state:  0.00E+00

  Highest occupied state (VBM) at     -6.78062874 eV
  | Occupation number:      2.00000000

  Lowest unoccupied state (CBM) at    -2.08529188 eV
  | Occupation number:      0.00000000

  Overall HOMO-LUMO gap:      4.69533686 eV.

  Total energy components:
  | Sum of eigenvalues            :        -125.71301903 Ha       -3420.82529760 eV
  | XC energy correction          :         -27.74762886 Ha        -755.05139788 eV
  | XC potential correction       :          35.46168186 Ha         964.96146023 eV
  | Free-atom electrostatic energy:        -107.66740057 Ha       -2929.77903504 eV
  | Hartree energy correction     :          -3.97913452 Ha        -108.27775944 eV
  | van der Waals energy corr.    :           0.00000000 Ha           0.00000000 eV
  | Entropy correction            :           0.00000000 Ha           0.00000000 eV
  | ---------------------------
  | Total energy                  :        -229.64550112 Ha       -6248.97202972 eV
  | Total energy, T -> 0          :        -229.64550112 Ha       -6248.97202972 eV  <-- do not rely on this value for anything but (periodic) metals
  | Electronic free energy        :        -229.64550112 Ha       -6248.97202972 eV

  Derived energy quantities:
  | Kinetic energy                :         228.54952629 Ha        6219.14903721 eV
  | Electrostatic energy          :        -430.44739855 Ha      -11713.06966905 eV
  | Energy correction for multipole
  | error in Hartree potential    :          -0.00424030 Ha          -0.11538445 eV
  | Sum of eigenvalues per atom                           :        -380.09169973 eV
  | Total energy (T->0) per atom                          :        -694.33022552 eV  <-- do not rely on this value for anything but (periodic) metals
  | Electronic free energy per atom                       :        -694.33022552 eV

  Self-consistency convergence accuracy:
  | Change of charge density      : 0.1990E+00
  | Change of sum of eigenvalues  : -.4806E+01 eV
  | Change of total energy        : 0.1120E+00 eV

  End self-consistency iteration #     3       :  max(cpu_time)    wall_clock(cpu1)
  | Time for this iteration                    :        0.659 s           0.659 s
  | Charge density update                      :        0.213 s           0.213 s
  | Density mixing                             :        0.004 s           0.004 s
  | Hartree multipole update                   :        0.004 s           0.003 s
  | Hartree multipole summation                :        0.119 s           0.119 s
  | Integration                                :        0.302 s           0.303 s
  | Solution of K.-S. eqns.                    :        0.017 s           0.016 s
  | Total energy evaluation                    :        0.000 s           0.000 s
------------------------------------------------------------

------------------------------------------------------------
          Begin self-consistency iteration #    4

  Date     :  20150727, Time     :  123732.720
------------------------------------------------------------
  Evaluating new KS density.
  Integration grid: deviation in total charge (<rho> - N_e) =  -1.065814E-14
  Pulay mixing of updated and previous charge densities.

  Evaluating partitioned Hartree potential by multipole expansion.
  | Analytical far-field extrapolation by fixed multipoles:
  | Hartree multipole sum: apparent total charge =  -0.576698E-05
  Summing up the Hartree potential.
  Time summed over all CPUs for potential: real work        0.944 s, elapsed        0.949 s
  | RMS charge density error from multipole expansion :   0.126269E-01

  Integrating Hamiltonian matrix: batch-based integration.
  Time summed over all CPUs for integration: real work        2.371 s, elapsed        2.400 s

  Updating Kohn-Sham eigenvalues, eigenvectors, occupation numbers, and Fermi level.
  Solving generalized eigenproblem
  Updating Kohn-Sham eigenvalues and eigenfunctions.
  Solving real generalised eigenvalue problem by standard LAPACK (fast)
  Determining occupation numbers for Kohn-Sham eigenstates.
  | Chemical potential (Fermi level) in eV                 : -.31376460E+01
  | Error in electron count due to remaining E_F inaccuracy: 0.00000000E+00
  | Maximum occupation number of highest empty state:  0.00E+00

  Highest occupied state (VBM) at     -5.68024136 eV
  | Occupation number:      2.00000000

  Lowest unoccupied state (CBM) at    -1.97736671 eV
  | Occupation number:      0.00000000

  Overall HOMO-LUMO gap:      3.70287464 eV.

  Total energy components:
  | Sum of eigenvalues            :        -124.73956009 Ha       -3394.33613201 eV
  | XC energy correction          :         -27.87279064 Ha        -758.45722306 eV
  | XC potential correction       :          35.62533099 Ha         969.41457948 eV
  | Free-atom electrostatic energy:        -107.66740057 Ha       -2929.77903504 eV
  | Hartree energy correction     :          -4.98344373 Ha        -135.60640336 eV
  | van der Waals energy corr.    :           0.00000000 Ha           0.00000000 eV
  | Entropy correction            :           0.00000000 Ha           0.00000000 eV
  | ---------------------------
  | Total energy                  :        -229.63786403 Ha       -6248.76421399 eV
  | Total energy, T -> 0          :        -229.63786403 Ha       -6248.76421399 eV  <-- do not rely on this value for anything but (periodic) metals
  | Electronic free energy        :        -229.63786403 Ha       -6248.76421399 eV

  Derived energy quantities:
  | Kinetic energy                :         228.69319809 Ha        6223.05854570 eV
  | Electrostatic energy          :        -430.45827149 Ha      -11713.36553662 eV
  | Energy correction for multipole
  | error in Hartree potential    :          -0.00557480 Ha          -0.15169813 eV
  | Sum of eigenvalues per atom                           :        -377.14845911 eV
  | Total energy (T->0) per atom                          :        -694.30713489 eV  <-- do not rely on this value for anything but (periodic) metals
  | Electronic free energy per atom                       :        -694.30713489 eV

  Self-consistency convergence accuracy:
  | Change of charge density      : 0.1082E+00
  | Change of sum of eigenvalues  : 0.2649E+02 eV
  | Change of total energy        : 0.2078E+00 eV

  End self-consistency iteration #     4       :  max(cpu_time)    wall_clock(cpu1)
  | Time for this iteration                    :        0.659 s           0.658 s
  | Charge density update                      :        0.214 s           0.213 s
  | Density mixing                             :        0.005 s           0.005 s
  | Hartree multipole update                   :        0.003 s           0.003 s
  | Hartree multipole summation                :        0.120 s           0.120 s
  | Integration                                :        0.300 s           0.300 s
  | Solution of K.-S. eqns.                    :        0.016 s           0.016 s
  | Total energy evaluation                    :        0.000 s           0.000 s
------------------------------------------------------------

------------------------------------------------------------
          Begin self-consistency iteration #    5

  Date     :  20150727, Time     :  123733.378
------------------------------------------------------------
  Evaluating new KS density.
  Integration grid: deviation in total charge (<rho> - N_e) =   0.000000E+00
  Pulay mixing of updated and previous charge densities.

  Evaluating partitioned Hartree potential by multipole expansion.
  | Analytical far-field extrapolation by fixed multipoles:
  | Hartree multipole sum: apparent total charge =  -0.576851E-05
  Summing up the Hartree potential.
  Time summed over all CPUs for potential: real work        0.943 s, elapsed        0.946 s
  | RMS charge density error from multipole expansion :   0.128233E-01

  Integrating Hamiltonian matrix: batch-based integration.
  Time summed over all CPUs for integration: real work        2.370 s, elapsed        2.396 s

  Updating Kohn-Sham eigenvalues, eigenvectors, occupation numbers, and Fermi level.
  Solving generalized eigenproblem
  Updating Kohn-Sham eigenvalues and eigenfunctions.
  Solving real generalised eigenvalue problem by standard LAPACK (fast)
  Determining occupation numbers for Kohn-Sham eigenstates.
  | Chemical potential (Fermi level) in eV                 : -.31448072E+01
  | Error in electron count due to remaining E_F inaccuracy: 0.00000000E+00
  | Maximum occupation number of highest empty state:  0.00E+00

  Highest occupied state (VBM) at     -5.61683217 eV
  | Occupation number:      2.00000000

  Lowest unoccupied state (CBM) at    -1.98254167 eV
  | Occupation number:      0.00000000

  Overall HOMO-LUMO gap:      3.63429050 eV.

  Total energy components:
  | Sum of eigenvalues            :        -124.73653843 Ha       -3394.25390833 eV
  | XC energy correction          :         -27.87491133 Ha        -758.51493022 eV
  | XC potential correction       :          35.62785299 Ha         969.48320665 eV
  | Free-atom electrostatic energy:        -107.66740057 Ha       -2929.77903504 eV
  | Hartree energy correction     :          -4.98679207 Ha        -135.69751630 eV
  | van der Waals energy corr.    :           0.00000000 Ha           0.00000000 eV
  | Entropy correction            :           0.00000000 Ha           0.00000000 eV
  | ---------------------------
  | Total energy                  :        -229.63778941 Ha       -6248.76218324 eV
  | Total energy, T -> 0          :        -229.63778941 Ha       -6248.76218324 eV  <-- do not rely on this value for anything but (periodic) metals
  | Electronic free energy        :        -229.63778941 Ha       -6248.76218324 eV

  Derived energy quantities:
  | Kinetic energy                :         228.72573206 Ha        6223.94384010 eV
  | Electrostatic energy          :        -430.48861013 Ha      -11714.19109313 eV
  | Energy correction for multipole
  | error in Hartree potential    :          -0.00556721 Ha          -0.15149148 eV
  | Sum of eigenvalues per atom                           :        -377.13932315 eV
  | Total energy (T->0) per atom                          :        -694.30690925 eV  <-- do not rely on this value for anything but (periodic) metals
  | Electronic free energy per atom                       :        -694.30690925 eV

  Self-consistency convergence accuracy:
  | Change of charge density      : 0.1724E-01
  | Change of sum of eigenvalues  : 0.8222E-01 eV
  | Change of total energy        : 0.2031E-02 eV

  End self-consistency iteration #     5       :  max(cpu_time)    wall_clock(cpu1)
  | Time for this iteration                    :        0.659 s           0.659 s
  | Charge density update                      :        0.214 s           0.214 s
  | Density mixing                             :        0.005 s           0.005 s
  | Hartree multipole update                   :        0.004 s           0.004 s
  | Hartree multipole summation                :        0.119 s           0.119 s
  | Integration                                :        0.300 s           0.300 s
  | Solution of K.-S. eqns.                    :        0.016 s           0.016 s
  | Total energy evaluation                    :        0.001 s           0.001 s
------------------------------------------------------------

------------------------------------------------------------
          Begin self-consistency iteration #    6

  Date     :  20150727, Time     :  123734.037
------------------------------------------------------------
  Evaluating new KS density.
  Integration grid: deviation in total charge (<rho> - N_e) =   2.842171E-14
  Pulay mixing of updated and previous charge densities.

  Evaluating partitioned Hartree potential by multipole expansion.
  | Analytical far-field extrapolation by fixed multipoles:
  | Hartree multipole sum: apparent total charge =  -0.583619E-05
  Summing up the Hartree potential.
  Time summed over all CPUs for potential: real work        0.943 s, elapsed        0.946 s
  | RMS charge density error from multipole expansion :   0.131607E-01

  Integrating Hamiltonian matrix: batch-based integration.
  Time summed over all CPUs for integration: real work        2.366 s, elapsed        2.394 s

  Updating Kohn-Sham eigenvalues, eigenvectors, occupation numbers, and Fermi level.
  Solving generalized eigenproblem
  Updating Kohn-Sham eigenvalues and eigenfunctions.
  Solving real generalised eigenvalue problem by standard LAPACK (fast)
  Determining occupation numbers for Kohn-Sham eigenstates.
  | Chemical potential (Fermi level) in eV                 : -.31170874E+01
  | Error in electron count due to remaining E_F inaccuracy: 0.00000000E+00
  | Maximum occupation number of highest empty state:  0.00E+00

  Highest occupied state (VBM) at     -5.53817772 eV
  | Occupation number:      2.00000000

  Lowest unoccupied state (CBM) at    -1.97275173 eV
  | Occupation number:      0.00000000

  Overall HOMO-LUMO gap:      3.56542599 eV.

  Total energy components:
  | Sum of eigenvalues            :        -124.67264542 Ha       -3392.51529129 eV
  | XC energy correction          :         -27.88437926 Ha        -758.77256552 eV
  | XC potential correction       :          35.64008590 Ha         969.81608108 eV
  | Free-atom electrostatic energy:        -107.66740057 Ha       -2929.77903504 eV
  | Hartree energy correction     :          -5.05355721 Ha        -137.51428838 eV
  | van der Waals energy corr.    :           0.00000000 Ha           0.00000000 eV
  | Entropy correction            :           0.00000000 Ha           0.00000000 eV
  | ---------------------------
  | Total energy                  :        -229.63789656 Ha       -6248.76509914 eV
  | Total energy, T -> 0          :        -229.63789656 Ha       -6248.76509914 eV  <-- do not rely on this value for anything but (periodic) metals
  | Electronic free energy        :        -229.63789656 Ha       -6248.76509914 eV

  Derived energy quantities:
  | Kinetic energy                :         228.74488149 Ha        6224.46492264 eV
  | Electrostatic energy          :        -430.49839880 Ha      -11714.45745626 eV
  | Energy correction for multipole
  | error in Hartree potential    :          -0.00566620 Ha          -0.15418501 eV
  | Sum of eigenvalues per atom                           :        -376.94614348 eV
  | Total energy (T->0) per atom                          :        -694.30723324 eV  <-- do not rely on this value for anything but (periodic) metals
  | Electronic free energy per atom                       :        -694.30723324 eV

  Self-consistency convergence accuracy:
  | Change of charge density      : 0.7948E-02
  | Change of sum of eigenvalues  : 0.1739E+01 eV
  | Change of total energy        : -.2916E-02 eV

  End self-consistency iteration #     6       :  max(cpu_time)    wall_clock(cpu1)
  | Time for this iteration                    :        0.659 s           0.659 s
  | Charge density update                      :        0.214 s           0.214 s
  | Density mixing                             :        0.006 s           0.006 s
  | Hartree multipole update                   :        0.004 s           0.004 s
  | Hartree multipole summation                :        0.119 s           0.119 s
  | Integration                                :        0.300 s           0.299 s
  | Solution of K.-S. eqns.                    :        0.016 s           0.017 s
  | Total energy evaluation                    :        0.000 s           0.000 s
------------------------------------------------------------

------------------------------------------------------------
          Begin self-consistency iteration #    7

  Date     :  20150727, Time     :  123734.696
------------------------------------------------------------
  Evaluating new KS density.
  Integration grid: deviation in total charge (<rho> - N_e) =   1.065814E-14
  Pulay mixing of updated and previous charge densities.

  Evaluating partitioned Hartree potential by multipole expansion.
  | Analytical far-field extrapolation by fixed multipoles:
  | Hartree multipole sum: apparent total charge =  -0.569667E-05
  Summing up the Hartree potential.
  Time summed over all CPUs for potential: real work        0.944 s, elapsed        0.946 s
  | RMS charge density error from multipole expansion :   0.130266E-01

  Integrating Hamiltonian matrix: batch-based integration.
  Time summed over all CPUs for integration: real work        2.367 s, elapsed        2.392 s

  Updating Kohn-Sham eigenvalues, eigenvectors, occupation numbers, and Fermi level.
  Solving generalized eigenproblem
  Updating Kohn-Sham eigenvalues and eigenfunctions.
  Solving real generalised eigenvalue problem by standard LAPACK (fast)
  Determining occupation numbers for Kohn-Sham eigenstates.
  | Chemical potential (Fermi level) in eV                 : -.31700445E+01
  | Error in electron count due to remaining E_F inaccuracy: 0.00000000E+00
  | Maximum occupation number of highest empty state:  0.00E+00

  Highest occupied state (VBM) at     -5.69456995 eV
  | Occupation number:      2.00000000

  Lowest unoccupied state (CBM) at    -1.98554383 eV
  | Occupation number:      0.00000000

  Overall HOMO-LUMO gap:      3.70902612 eV.

  Total energy components:
  | Sum of eigenvalues            :        -124.77960084 Ha       -3395.42569624 eV
  | XC energy correction          :         -27.87140848 Ha        -758.41961268 eV
  | XC potential correction       :          35.62282485 Ha         969.34638398 eV
  | Free-atom electrostatic energy:        -107.66740057 Ha       -2929.77903504 eV
  | Hartree energy correction     :          -4.94217986 Ha        -134.48355632 eV
  | van der Waals energy corr.    :           0.00000000 Ha           0.00000000 eV
  | Entropy correction            :           0.00000000 Ha           0.00000000 eV
  | ---------------------------
  | Total energy                  :        -229.63776490 Ha       -6248.76151630 eV
  | Total energy, T -> 0          :        -229.63776490 Ha       -6248.76151630 eV  <-- do not rely on this value for anything but (periodic) metals
  | Electronic free energy        :        -229.63776490 Ha       -6248.76151630 eV

  Derived energy quantities:
  | Kinetic energy                :         228.77092496 Ha        6225.17360161 eV
  | Electrostatic energy          :        -430.53728138 Ha      -11715.51550523 eV
  | Energy correction for multipole
  | error in Hartree potential    :          -0.00547034 Ha          -0.14885557 eV
  | Sum of eigenvalues per atom                           :        -377.26952180 eV
  | Total energy (T->0) per atom                          :        -694.30683514 eV  <-- do not rely on this value for anything but (periodic) metals
  | Electronic free energy per atom                       :        -694.30683514 eV

  Self-consistency convergence accuracy:
  | Change of charge density      : 0.1123E-01
  | Change of sum of eigenvalues  : -.2910E+01 eV
  | Change of total energy        : 0.3583E-02 eV

  End self-consistency iteration #     7       :  max(cpu_time)    wall_clock(cpu1)
  | Time for this iteration                    :        0.661 s           0.660 s
  | Charge density update                      :        0.214 s           0.214 s
  | Density mixing                             :        0.007 s           0.008 s
  | Hartree multipole update                   :        0.003 s           0.003 s
  | Hartree multipole summation                :        0.119 s           0.119 s
  | Integration                                :        0.300 s           0.300 s
  | Solution of K.-S. eqns.                    :        0.016 s           0.016 s
  | Total energy evaluation                    :        0.000 s           0.000 s
------------------------------------------------------------

------------------------------------------------------------
          Begin self-consistency iteration #    8

  Date     :  20150727, Time     :  123735.357
------------------------------------------------------------
  Evaluating new KS density.
  Integration grid: deviation in total charge (<rho> - N_e) =   1.421085E-14
  Pulay mixing of updated and previous charge densities.

  Evaluating partitioned Hartree potential by multipole expansion.
  | Analytical far-field extrapolation by fixed multipoles:
  | Hartree multipole sum: apparent total charge =  -0.569138E-05
  Summing up the Hartree potential.
  Time summed over all CPUs for potential: real work        0.943 s, elapsed        0.946 s
  | RMS charge density error from multipole expansion :   0.130332E-01

  Integrating Hamiltonian matrix: batch-based integration.
  Time summed over all CPUs for integration: real work        2.367 s, elapsed        2.394 s

  Updating Kohn-Sham eigenvalues, eigenvectors, occupation numbers, and Fermi level.
  Solving generalized eigenproblem
  Updating Kohn-Sham eigenvalues and eigenfunctions.
  Solving real generalised eigenvalue problem by standard LAPACK (fast)
  Determining occupation numbers for Kohn-Sham eigenstates.
  | Chemical potential (Fermi level) in eV                 : -.31703965E+01
  | Error in electron count due to remaining E_F inaccuracy: 0.00000000E+00
  | Maximum occupation number of highest empty state:  0.00E+00

  Highest occupied state (VBM) at     -5.69119171 eV
  | Occupation number:      2.00000000

  Lowest unoccupied state (CBM) at    -1.98658133 eV
  | Occupation number:      0.00000000

  Overall HOMO-LUMO gap:      3.70461038 eV.

  Total energy components:
  | Sum of eigenvalues            :        -124.78142039 Ha       -3395.47520873 eV
  | XC energy correction          :         -27.87111530 Ha        -758.41163484 eV
  | XC potential correction       :          35.62242516 Ha         969.33550774 eV
  | Free-atom electrostatic energy:        -107.66740057 Ha       -2929.77903504 eV
  | Hartree energy correction     :          -4.94025263 Ha        -134.43111380 eV
  | van der Waals energy corr.    :           0.00000000 Ha           0.00000000 eV
  | Entropy correction            :           0.00000000 Ha           0.00000000 eV
  | ---------------------------
  | Total energy                  :        -229.63776373 Ha       -6248.76148466 eV
  | Total energy, T -> 0          :        -229.63776373 Ha       -6248.76148466 eV  <-- do not rely on this value for anything but (periodic) metals
  | Electronic free energy        :        -229.63776373 Ha       -6248.76148466 eV

  Derived energy quantities:
  | Kinetic energy                :         228.77188139 Ha        6225.19962718 eV
  | Electrostatic energy          :        -430.53852982 Ha      -11715.54947701 eV
  | Energy correction for multipole
  | error in Hartree potential    :          -0.00547161 Ha          -0.14889003 eV
  | Sum of eigenvalues per atom                           :        -377.27502319 eV
  | Total energy (T->0) per atom                          :        -694.30683163 eV  <-- do not rely on this value for anything but (periodic) metals
  | Electronic free energy per atom                       :        -694.30683163 eV

  Self-consistency convergence accuracy:
  | Change of charge density      : 0.1101E-02
  | Change of sum of eigenvalues  : -.4951E-01 eV
  | Change of total energy        : 0.3164E-04 eV

  End self-consistency iteration #     8       :  max(cpu_time)    wall_clock(cpu1)
  | Time for this iteration                    :        0.662 s           0.662 s
  | Charge density update                      :        0.215 s           0.215 s
  | Density mixing                             :        0.008 s           0.008 s
  | Hartree multipole update                   :        0.004 s           0.003 s
  | Hartree multipole summation                :        0.119 s           0.119 s
  | Integration                                :        0.299 s           0.300 s
  | Solution of K.-S. eqns.                    :        0.017 s           0.016 s
  | Total energy evaluation                    :        0.000 s           0.000 s
------------------------------------------------------------

------------------------------------------------------------
          Begin self-consistency iteration #    9

  Date     :  20150727, Time     :  123736.019
------------------------------------------------------------
  Evaluating new KS density.
  Integration grid: deviation in total charge (<rho> - N_e) =   0.000000E+00
  Pulay mixing of updated and previous charge densities.

  Evaluating partitioned Hartree potential by multipole expansion.
  | Analytical far-field extrapolation by fixed multipoles:
  | Hartree multipole sum: apparent total charge =  -0.568755E-05
  Summing up the Hartree potential.
  Time summed over all CPUs for potential: real work        0.943 s, elapsed        0.946 s
  | RMS charge density error from multipole expansion :   0.130413E-01

  Integrating Hamiltonian matrix: batch-based integration.
  Time summed over all CPUs for integration: real work        2.368 s, elapsed        2.403 s

  Updating Kohn-Sham eigenvalues, eigenvectors, occupation numbers, and Fermi level.
  Solving generalized eigenproblem
  Updating Kohn-Sham eigenvalues and eigenfunctions.
  Solving real generalised eigenvalue problem by standard LAPACK (fast)
  Determining occupation numbers for Kohn-Sham eigenstates.
  | Chemical potential (Fermi level) in eV                 : -.31703840E+01
  | Error in electron count due to remaining E_F inaccuracy: 0.00000000E+00
  | Maximum occupation number of highest empty state:  0.00E+00

  Highest occupied state (VBM) at     -5.69314724 eV
  | Occupation number:      2.00000000

  Lowest unoccupied state (CBM) at    -1.98681060 eV
  | Occupation number:      0.00000000

  Overall HOMO-LUMO gap:      3.70633664 eV.

  Total energy components:
  | Sum of eigenvalues            :        -124.78138537 Ha       -3395.47425573 eV
  | XC energy correction          :         -27.87106947 Ha        -758.41038786 eV
  | XC potential correction       :          35.62234706 Ha         969.33338262 eV
  | Free-atom electrostatic energy:        -107.66740057 Ha       -2929.77903504 eV
  | Hartree energy correction     :          -4.94025492 Ha        -134.43117610 eV
  | van der Waals energy corr.    :           0.00000000 Ha           0.00000000 eV
  | Entropy correction            :           0.00000000 Ha           0.00000000 eV
  | ---------------------------
  | Total energy                  :        -229.63776327 Ha       -6248.76147211 eV
  | Total energy, T -> 0          :        -229.63776327 Ha       -6248.76147211 eV  <-- do not rely on this value for anything but (periodic) metals
  | Electronic free energy        :        -229.63776327 Ha       -6248.76147211 eV

  Derived energy quantities:
  | Kinetic energy                :         228.77541547 Ha        6225.29579450 eV
  | Electrostatic energy          :        -430.54210927 Ha      -11715.64687876 eV
  | Energy correction for multipole
  | error in Hartree potential    :          -0.00546866 Ha          -0.14880970 eV
  | Sum of eigenvalues per atom                           :        -377.27491730 eV
  | Total energy (T->0) per atom                          :        -694.30683023 eV  <-- do not rely on this value for anything but (periodic) metals
  | Electronic free energy per atom                       :        -694.30683023 eV

  Self-consistency convergence accuracy:
  | Change of charge density      : 0.6670E-03
  | Change of sum of eigenvalues  : 0.9530E-03 eV
  | Change of total energy        : 0.1255E-04 eV

  End self-consistency iteration #     9       :  max(cpu_time)    wall_clock(cpu1)
  | Time for this iteration                    :        0.663 s           0.663 s
  | Charge density update                      :        0.214 s           0.214 s
  | Density mixing                             :        0.009 s           0.009 s
  | Hartree multipole update                   :        0.004 s           0.003 s
  | Hartree multipole summation                :        0.119 s           0.119 s
  | Integration                                :        0.301 s           0.301 s
  | Solution of K.-S. eqns.                    :        0.016 s           0.017 s
  | Total energy evaluation                    :        0.000 s           0.000 s
------------------------------------------------------------

------------------------------------------------------------
          Begin self-consistency iteration #   10

  Date     :  20150727, Time     :  123736.682
------------------------------------------------------------
  Evaluating new KS density.
  Integration grid: deviation in total charge (<rho> - N_e) =  -7.105427E-15
  Pulay mixing of updated and previous charge densities.

  Evaluating partitioned Hartree potential by multipole expansion.
  | Analytical far-field extrapolation by fixed multipoles:
  | Hartree multipole sum: apparent total charge =  -0.568769E-05
  Summing up the Hartree potential.
  Time summed over all CPUs for potential: real work        0.943 s, elapsed        0.946 s
  | RMS charge density error from multipole expansion :   0.130456E-01

  Integrating Hamiltonian matrix: batch-based integration.
  Time summed over all CPUs for integration: real work        2.364 s, elapsed        2.395 s

  Updating Kohn-Sham eigenvalues, eigenvectors, occupation numbers, and Fermi level.
  Solving generalized eigenproblem
  Updating Kohn-Sham eigenvalues and eigenfunctions.
  Solving real generalised eigenvalue problem by standard LAPACK (fast)
  Determining occupation numbers for Kohn-Sham eigenstates.
  | Chemical potential (Fermi level) in eV                 : -.31702391E+01
  | Error in electron count due to remaining E_F inaccuracy: 0.00000000E+00
  | Maximum occupation number of highest empty state:  0.00E+00

  Highest occupied state (VBM) at     -5.69244061 eV
  | Occupation number:      2.00000000

  Lowest unoccupied state (CBM) at    -1.98688307 eV
  | Occupation number:      0.00000000

  Overall HOMO-LUMO gap:      3.70555753 eV.

  Total energy components:
  | Sum of eigenvalues            :        -124.78063636 Ha       -3395.45387401 eV
  | XC energy correction          :         -27.87117168 Ha        -758.41316916 eV
  | XC potential correction       :          35.62247830 Ha         969.33695378 eV
  | Free-atom electrostatic energy:        -107.66740057 Ha       -2929.77903504 eV
  | Hartree energy correction     :          -4.94103292 Ha        -134.45234670 eV
  | van der Waals energy corr.    :           0.00000000 Ha           0.00000000 eV
  | Entropy correction            :           0.00000000 Ha           0.00000000 eV
  | ---------------------------
  | Total energy                  :        -229.63776324 Ha       -6248.76147113 eV
  | Total energy, T -> 0          :        -229.63776324 Ha       -6248.76147113 eV  <-- do not rely on this value for anything but (periodic) metals
  | Electronic free energy        :        -229.63776324 Ha       -6248.76147113 eV

  Derived energy quantities:
  | Kinetic energy                :         228.77580337 Ha        6225.30634982 eV
  | Electrostatic energy          :        -430.54239492 Ha      -11715.65465178 eV
  | Energy correction for multipole
  | error in Hartree potential    :          -0.00547100 Ha          -0.14887352 eV
  | Sum of eigenvalues per atom                           :        -377.27265267 eV
  | Total energy (T->0) per atom                          :        -694.30683013 eV  <-- do not rely on this value for anything but (periodic) metals
  | Electronic free energy per atom                       :        -694.30683013 eV

  Self-consistency convergence accuracy:
  | Change of charge density      : 0.2570E-03
  | Change of sum of eigenvalues  : 0.2038E-01 eV
  | Change of total energy        : 0.9835E-06 eV

[...]
  |   Hirshfeld volume        :     20.31749251
  |   Hirshfeld dipole vector :     -0.01561400      -0.02638055       0.02558664
  |   Hirshfeld dipole moment :      0.03993002
  |   Hirshfeld second moments:      0.07553626      -0.02617558       0.00737794
  |                                 -0.02617558       0.08356808       0.03803243
  |                                  0.00737794       0.03803243       0.05340656
  ----------------------------------------------------------------------
  | Atom     5: H
  |   Hirshfeld charge        :      0.16964203
  |   Free atom volume        :     10.44207651
  |   Hirshfeld volume        :      5.94032073
  |   Hirshfeld dipole vector :      0.00480075       0.07159631       0.09327560
  |   Hirshfeld dipole moment :      0.11768354
  |   Hirshfeld second moments:      0.13061331      -0.00816454       0.00537898
  |                                 -0.00816454       0.12794442       0.00142234
  |                                  0.00537898       0.00142234       0.11783329
  ----------------------------------------------------------------------
  | Atom     6: H
  |   Hirshfeld charge        :      0.17896633
  |   Free atom volume        :     10.44207651
  |   Hirshfeld volume        :      5.56408068
  |   Hirshfeld dipole vector :      0.09247770      -0.07854043       0.01156290
  |   Hirshfeld dipole moment :      0.12187873
  |   Hirshfeld second moments:      0.12878004       0.00259916       0.00086049
  |                                  0.00259916       0.13437799       0.01526508
  |                                  0.00086049       0.01526508       0.13713156
  ----------------------------------------------------------------------
  | Atom     7: O
  |   Hirshfeld charge        :     -0.28070880
  |   Free atom volume        :     23.95238533
  |   Hirshfeld volume        :     21.83306802
  |   Hirshfeld dipole vector :      0.04448070       0.01442489      -0.00573007
  |   Hirshfeld dipole moment :      0.04711098
  |   Hirshfeld second moments:      0.01700522      -0.01424398       0.02106584
  |                                 -0.01424398       0.04981709      -0.05091115
  |                                  0.02106584      -0.05091115      -0.01548355
  ----------------------------------------------------------------------
  | Atom     8: H
  |   Hirshfeld charge        :      0.13700918
  |   Free atom volume        :     10.44207651
  |   Hirshfeld volume        :      6.47106857
  |   Hirshfeld dipole vector :      0.10050519      -0.04729258       0.04176790
  |   Hirshfeld dipole moment :      0.11866945
  |   Hirshfeld second moments:      0.10514050       0.00872189       0.00249817
  |                                  0.00872189       0.11874159      -0.01507949
  |                                  0.00249817      -0.01507949       0.10538894
  ----------------------------------------------------------------------
  | Atom     9: H
  |   Hirshfeld charge        :      0.14914925
  |   Free atom volume        :     10.44207651
  |   Hirshfeld volume        :      6.12889770
  |   Hirshfeld dipole vector :      0.03618739       0.10647131      -0.05369184
  |   Hirshfeld dipole moment :      0.12461333
  |   Hirshfeld second moments:      0.12685693      -0.01048575       0.01074194
  |                                 -0.01048575       0.11655603      -0.00889844
  |                                  0.01074194      -0.00889844       0.10718363
  ----------------------------------------------------------------------


  Total energy components:
  | Sum of eigenvalues            :        -124.78112720 Ha       -3395.46723067 eV
  | XC energy correction          :         -27.87111660 Ha        -758.41167038 eV
  | XC potential correction       :          35.62240419 Ha         969.33493726 eV
  | Free-atom electrostatic energy:        -107.66740057 Ha       -2929.77903504 eV
  | Hartree energy correction     :          -4.94052295 Ha        -134.43846959 eV
  | van der Waals energy corr.    :          -0.00081804 Ha          -0.02226013 eV
  | Entropy correction            :           0.00000000 Ha           0.00000000 eV
  | ---------------------------
  | Total energy                  :        -229.63858118 Ha       -6248.78372854 eV
  | Total energy, T -> 0          :        -229.63858118 Ha       -6248.78372854 eV  <-- do not rely on this value for anything but (periodic) metals
  | Electronic free energy        :        -229.63858118 Ha       -6248.78372854 eV

  Derived energy quantities:
  | Kinetic energy                :         228.77591409 Ha        6225.30936255 eV
  | Electrostatic energy          :        -430.54256062 Ha      -11715.65916058 eV
  | Energy correction for multipole
  | error in Hartree potential    :          -0.00547128 Ha          -0.14888119 eV
  | Sum of eigenvalues per atom                           :        -377.27413674 eV
  | Total energy (T->0) per atom                          :        -694.30930317 eV  <-- do not rely on this value for anything but (periodic) metals
  | Electronic free energy per atom                       :        -694.30930317 eV

  atomic forces [eV/Ang]:
  -----------------------
  atom #    1
   Hellmann-Feynman + Multipole  : -.688149E+01 -.112176E+02 0.275449E+01
   Pulay + GGA                   : 0.529241E+01 0.146454E+02 -.407031E+01
   Van der Waals               : -.256802E-02 0.141003E-02 -.331154E-03
   ----------------------------------------------------------------
   Total forces(   1)            : -.159165E+01 0.342919E+01 -.131615E+01
  atom #    2
   Hellmann-Feynman + Multipole  : 0.220858E+01 -.362148E+01 0.156669E+01
   Pulay + GGA                   : -.333961E-01 0.955401E-01 -.424791E-01
   Van der Waals               : -.657357E-03 0.424688E-02 0.155587E-02
   ----------------------------------------------------------------
   Total forces(   2)            : 0.217453E+01 -.352170E+01 0.152577E+01
  atom #    3
   Hellmann-Feynman + Multipole  : -.180521E+01 -.314144E+00 -.314196E+00
   Pulay + GGA                   : 0.661071E-01 0.169253E-01 0.322236E-01
   Van der Waals               : -.134556E-02 0.248701E-02 0.378335E-03
   ----------------------------------------------------------------
   Total forces(   3)            : -.174045E+01 -.294731E+00 -.281594E+00
  atom #    4
   Hellmann-Feynman + Multipole  : -.617075E+01 0.830402E+00 -.103755E+02
   Pulay + GGA                   : 0.898451E+01 -.484247E+00 0.119164E+02
   Van der Waals               : 0.294099E-02 0.399148E-02 0.148011E-02
   ----------------------------------------------------------------
   Total forces(   4)            : 0.281671E+01 0.350147E+00 0.154237E+01
  atom #    5
   Hellmann-Feynman + Multipole  : -.154038E+00 -.103248E+01 -.125025E+01
   Pulay + GGA                   : 0.350826E-01 0.952510E-01 0.100186E+00
   Van der Waals               : 0.143112E-04 0.345830E-02 0.320670E-03
   ----------------------------------------------------------------
   Total forces(   5)            : -.118941E+00 -.933770E+00 -.114975E+01
  atom #    6
   Hellmann-Feynman + Multipole  : -.163914E+01 0.102476E+01 -.328690E+00
   Pulay + GGA                   : 0.122819E+00 -.552095E-01 0.211100E-01
   Van der Waals               : -.147599E-02 0.339073E-03 -.942384E-04
   ----------------------------------------------------------------
   Total forces(   6)            : -.151779E+01 0.969890E+00 -.307674E+00
  atom #    7
   Hellmann-Feynman + Multipole  : -.146326E+02 -.495157E+01 0.786389E+00
   Pulay + GGA                   : 0.158020E+02 0.626301E+01 -.133727E+01
   Van der Waals               : 0.232998E-02 -.835812E-02 -.135032E-02
   ----------------------------------------------------------------
   Total forces(   7)            : 0.117172E+01 0.130308E+01 -.552230E+00
  atom #    8
   Hellmann-Feynman + Multipole  : -.656675E+00 0.177580E+00 -.155832E+00
   Pulay + GGA                   : 0.142275E+00 -.710389E-01 0.406056E-01
   Van der Waals               : 0.521986E-03 -.623734E-02 -.189580E-02
   ----------------------------------------------------------------
   Total forces(   8)            : -.513878E+00 0.100304E+00 -.117123E+00
  atom #    9
   Hellmann-Feynman + Multipole  : -.737026E+00 -.151630E+01 0.713943E+00
   Pulay + GGA                   : 0.580788E-01 0.114490E+00 -.612104E-01
   Van der Waals               : 0.239653E-03 -.133731E-02 -.634629E-04
   ----------------------------------------------------------------
   Total forces(   9)            : -.678707E+00 -.140315E+01 0.652669E+00
  Timings for vdw_correction_hirshfeld (Tkatchenko-Scheffler 2009):
  | CPU time:        1.750 s, Wall clock time:        1.750 s.
  Removing unitary transformations (pure translations, rotations) from forces on atoms.
  Atomic forces before filtering:
  | Net force on center of mass :  0.153324E-02 -.737289E-03 -.370995E-02 eV/A
  | Net torque on center of mass:  0.569473E-03 -.101135E-03 -.106839E-01 eV
  Atomic forces after filtering:
  | Net force on center of mass :  0.892031E-16 0.713624E-15 0.267609E-15 eV/A
  | Net torque on center of mass:  0.173476E-14 0.566451E-15 -.113290E-14 eV
 
  Energy and forces in a compact form:
  | Total energy uncorrected      :         -0.624878372854101E+04 eV
  | Total energy corrected        :         -0.624878372854101E+04 eV  <-- do not rely on this value for anything but (periodic) metals
  | Electronic free energy        :         -0.624878372854101E+04 eV
  Total atomic forces (unitary forces cleaned) [eV/Ang]:
  |   1         -0.159137854441455E+01          0.342899332801186E+01         -0.131559996340542E+01
  |   2          0.217453716886581E+01         -0.352202732165348E+01          0.152633520355228E+01
  |   3         -0.174024654306032E+01         -0.294679100117451E+00         -0.281129274168655E+00
  |   4          0.281677857628627E+01          0.350550153642662E+00          0.154270496547175E+01
  |   5         -0.118965631095912E+00         -0.933325650911763E+00         -0.114943487594222E+01
  |   6         -0.151756833081893E+01          0.970500136199151E+00         -0.307385037912167E+00
  |   7          0.117099493633364E+01          0.130290290454009E+01         -0.551797002449693E+00
  |   8         -0.514478162925492E+00          0.100342849408390E+00         -0.116745836593106E+00
  |   9         -0.679673469170518E+00         -0.140325729911947E+01          0.653051821447221E+00
 
  ------------------------------------ 
  Start decomposition of the XC Energy 
  ------------------------------------ 
  Hartree-Fock part   :          0.000000000 Ha              0.000000000 eV
  ------------------------------------ 
  X Energy            :        -26.897133379 Ha           -731.908238314 eV
  C Energy GGA        :         -0.973983226 Ha            -26.503432069 eV
  Total XC Energy     :        -27.871116605 Ha           -758.411670383 eV
  LDA X and C from self-consistent density 
  X Energy LDA        :        -24.220975107 Ha           -659.086266601 eV
  C Energy LDA        :         -1.974073860 Ha            -53.717282835 eV
  ------------------------------------ 
  End decomposition of the XC Energy 
  ------------------------------------ 
  Performing Hirshfeld analysis of fragment charges and moments.
  ----------------------------------------------------------------------
  | Atom     1: O
  |   Hirshfeld charge        :     -0.35585867
  |   Free atom volume        :     23.95238533
  |   Hirshfeld volume        :     24.04375480
  |   Hirshfeld dipole vector :      0.03964222       0.05559435      -0.01775094
  |   Hirshfeld dipole moment :      0.07055022
  |   Hirshfeld second moments:      0.00295538      -0.03510794       0.02912067
  |                                 -0.03510794      -0.03925762      -0.02856108
  |                                  0.02912067      -0.02856108      -0.09816603
  ----------------------------------------------------------------------
  | Atom     2: H
  |   Hirshfeld charge        :      0.12246066
  |   Free atom volume        :     10.44207651
  |   Hirshfeld volume        :      7.60400709
  |   Hirshfeld dipole vector :     -0.05945275       0.08954894      -0.04339595
  |   Hirshfeld dipole moment :      0.11591743
  |   Hirshfeld second moments:      0.10983731       0.00242816       0.00649781
  |                                  0.00242816       0.06401538      -0.00263247
  |                                  0.00649781      -0.00263247       0.07588423
  ----------------------------------------------------------------------
  | Atom     3: H
  |   Hirshfeld charge        :      0.05866649
  |   Free atom volume        :     10.44207651
  |   Hirshfeld volume        :      8.41185942
  |   Hirshfeld dipole vector :      0.04936880       0.00730091       0.00550664
  |   Hirshfeld dipole moment :      0.05020861
  |   Hirshfeld second moments:      0.02177656      -0.02912718       0.00596754
  |                                 -0.02912718       0.07803336      -0.00409837
  |                                  0.00596754      -0.00409837       0.05975524
  ----------------------------------------------------------------------
  | Atom     4: O
  |   Hirshfeld charge        :     -0.17930918
  |   Free atom volume        :     23.95238533
  |   Hirshfeld volume        :     20.31749251
  |   Hirshfeld dipole vector :     -0.01561400      -0.02638055       0.02558664
  |   Hirshfeld dipole moment :      0.03993002
  |   Hirshfeld second moments:      0.07553626      -0.02617558       0.00737794
  |                                 -0.02617558       0.08356808       0.03803243
  |                                  0.00737794       0.03803243       0.05340656
  ----------------------------------------------------------------------
  | Atom     5: H
  |   Hirshfeld charge        :      0.16964203
  |   Free atom volume        :     10.44207651
  |   Hirshfeld volume        :      5.94032073
  |   Hirshfeld dipole vector :      0.00480075       0.07159631       0.09327560
  |   Hirshfeld dipole moment :      0.11768354
  |   Hirshfeld second moments:      0.13061331      -0.00816454       0.00537898
  |                                 -0.00816454       0.12794442       0.00142234
  |                                  0.00537898       0.00142234       0.11783329
  ----------------------------------------------------------------------
  | Atom     6: H
  |   Hirshfeld charge        :      0.17896633
  |   Free atom volume        :     10.44207651
  |   Hirshfeld volume        :      5.56408068
  |   Hirshfeld dipole vector :      0.09247770      -0.07854043       0.01156290
  |   Hirshfeld dipole moment :      0.12187873
  |   Hirshfeld second moments:      0.12878004       0.00259916       0.00086049
  |                                  0.00259916       0.13437799       0.01526508
  |                                  0.00086049       0.01526508       0.13713156
  ----------------------------------------------------------------------
  | Atom     7: O
  |   Hirshfeld charge        :     -0.28070880
  |   Free atom volume        :     23.95238533
  |   Hirshfeld volume        :     21.83306802
  |   Hirshfeld dipole vector :      0.04448070       0.01442489      -0.00573007
  |   Hirshfeld dipole moment :      0.04711098
  |   Hirshfeld second moments:      0.01700522      -0.01424398       0.02106584
  |                                 -0.01424398       0.04981709      -0.05091115
  |                                  0.02106584      -0.05091115      -0.01548355
  ----------------------------------------------------------------------
  | Atom     8: H
  |   Hirshfeld charge        :      0.13700918
  |   Free atom volume        :     10.44207651
  |   Hirshfeld volume        :      6.47106857
  |   Hirshfeld dipole vector :      0.10050519      -0.04729258       0.04176790
  |   Hirshfeld dipole moment :      0.11866945
  |   Hirshfeld second moments:      0.10514050       0.00872189       0.00249817
  |                                  0.00872189       0.11874159      -0.01507949
  |                                  0.00249817      -0.01507949       0.10538894
  ----------------------------------------------------------------------
  | Atom     9: H
  |   Hirshfeld charge        :      0.14914925
  |   Free atom volume        :     10.44207651
  |   Hirshfeld volume        :      6.12889770
  |   Hirshfeld dipole vector :      0.03618739       0.10647131      -0.05369184
  |   Hirshfeld dipole moment :      0.12461333
  |   Hirshfeld second moments:      0.12685693      -0.01048575       0.01074194
  |                                 -0.01048575       0.11655603      -0.00889844
  |                                  0.01074194      -0.00889844       0.10718363
  ----------------------------------------------------------------------


------------------------------------------------------------------------------
  Final output of selected total energy values:

  The following output summarizes some interesting total energy values
  at the end of a run (AFTER all relaxation, molecular dynamics, etc.).

  | Total energy of the DFT / Hartree-Fock s.c.f. calculation      :          -6248.783728541 eV
  | Final zero-broadening corrected energy (caution - metals only) :          -6248.783728541 eV
  | For reference only, the value of 1 Hartree used in FHI-aims is :             27.211384500 eV

  Before relying on these values, please be sure to understand exactly which
  total energy value is referred to by a given number. Different objects may
  all carry the same name 'total energy'. Definitions:

  Total energy of the DFT / Hartree-Fock s.c.f. calculation:
  | Note that this energy does not include ANY quantities calculated after the
  | s.c.f. cycle, in particular not ANY RPA, MP2, etc. many-body perturbation terms.

  Final zero-broadening corrected energy:
  | For metallic systems only, a broadening of the occupation numbers at the Fermi
  | level can be extrapolated back to zero broadening by an electron-gas inspired
  | formula. For all systems that are not real metals, this value can be
  | meaningless and should be avoided.

------------------------------------------------------------------------------

------------------------------------------------------------
          Leaving FHI-aims.
          Date     :  20150727, Time     :  123742.005

          Computational steps:
          | Number of self-consistency cycles          :           15

          Detailed time accounting                     :  max(cpu_time)    wall_clock(cpu1)
          | Total time                                 :       12.486 s          12.527 s
          | Preparation time                           :        0.168 s           0.518 s
          | Grid partitioning                          :        0.082 s           0.081 s
          | Preloading free-atom quantities on grid    :        0.013 s           0.013 s
          | Free-atom superposition energy             :        0.030 s           0.029 s
          | Total time for integrations                :        4.965 s           4.966 s
          | Total time for solution of K.-S. equations :        0.308 s           0.309 s
          | Total time for density & force components  :        4.103 s           4.101 s
          | Total time for mixing                      :        0.109 s           0.109 s
          | Total time for Hartree multipole update    :        0.056 s           0.054 s
          | Total time for Hartree multipole sum       :        2.173 s           2.175 s
          | Total time for total energy evaluation     :        0.005 s           0.004 s
          | Total time for scaled ZORA corrections     :        0.000 s           0.000 s
          | Total time for TS (2009) vdW correction    :        0.021 s           0.021 s

          Have a nice day.
------------------------------------------------------------
