  MPI-parallelism will be employed.
------------------------------------------------------------
          Invoking FHI-aims ...
          Version 081213
          Compiled on 2013/08/29 at 17:41:06 on host generoso.

          When using FHI-aims, please cite the following reference:

          Volker Blum, Ralf Gehrke, Felix Hanke, Paula Havu,
          Ville Havu, Xinguo Ren, Karsten Reuter, and Matthias Scheffler,
          'Ab Initio Molecular Simulations with Numeric Atom-Centered Orbitals: FHI-aims',
          Computer Physics Communications 180, 2175-2196 (2009)

          For any questions about FHI-aims, please visit the aimsclub website
          with its forums and wiki. Contributions to both the forums and the
          wiki are warmly encouraged - they are for you, and everyone is welcome there.

------------------------------------------------------------

  Date     :  20150727, Time     :  123353.042
  Time zero on CPU 1             :   0.439920000000000E-01  s.
  Internal wall clock time zero  :           207232433.042  s.

  Using        8 parallel tasks.
  Task        0 on host gen60 reporting.
  Task        1 on host gen60 reporting.
  Task        2 on host gen60 reporting.
  Task        3 on host gen60 reporting.
  Task        4 on host gen60 reporting.
  Task        5 on host gen60 reporting.
  Task        6 on host gen60 reporting.
  Task        7 on host gen60 reporting.

  Performing system and environment tests:
  | Environment variable OMP_NUM_THREADS correctly set to 1.
  | Checking for scalapack...
  | No scalapack compiled in.

  Obtaining array dimensions for all initial allocations:
  
  -----------------------------------------------------------------------
  Parsing control.in (first pass over file, find array dimensions only).
  The contents of control.in will be repeated verbatim below
  unless switched off by setting 'verbatim_writeout .false.' .
  in the first line of control.in .
  -----------------------------------------------------------------------
  
  #########################################################################################
  #
  #  Volker Blum, FHI 2008 : Test run input file control.in
  #
  #########################################################################################
  #
  #  Physical model
  #
    xc                 rpbe
    spin               none
    relativistic       atomic_zora scalar
    charge             0.
   vdw_correction_hirshfeld
  #
  #  SCF convergence
  #
    occupation_type    gaussian 0.01
    mixer              pulay
      n_max_pulay        10
      charge_mix_param   0.1
    sc_accuracy_rho    5E-5
    sc_accuracy_eev    5E-3
    sc_accuracy_etot   5E-6
    sc_iter_limit      3000
  #
  #  Eigenvalue solver
  #
    KS_method          lapack
      empty_states       8
      basis_threshold    0.e-5
  #
  #  Efficiency
  #
  #   all previous settings are now default, except stratmann still
  #   undecided. Continue to handle stratmann with care, if at all.
  #
  #  partition_type stratmann
    partition_type rho_r2
  #  hartree_partition_type stratmann
  #
  #  Oprions for large clusters (100's of atoms: memory saving / better scaling)
  #
  # for periodic systems:
  #
    density_update_method orbital
    packed_matrix_format none
  #  k_grid 6 6 6
  #  output k_eigenvalue 1
  #  distributed_spline_storage .true.
  #
  #  Relaxation
  #
  #  relax_geometry   bfgs 5.e-3
    sc_accuracy_forces 5.E-4
    final_forces_cleaned .true.
  #
  #  Output options
  #
  #  output mulliken
    output Hirshfeld
  #  output dipole
  
  #harmonic_length_scale 0.001
  
  ################################################################################
  #
  #  FHI-aims code project
  #  VB, Fritz-Haber Institut, 2007
  #
  #  Suggested "safe" defaults for H atom (to be pasted into control.in file)
  #  Basis constructed for a non-relativistic H2 molecule using the
  #  PW-LDA functional.
  #
  ################################################################################
    species        H
  #     global species definitions
      nucleus             1
      cut_pot             4.0  2.0  1.0
      cut_free_atom       finite 8.0
      logarithmic         0.00010000 100.00  1.0123
      basis_dep_cutoff    1d-4  # 1d-4 is safe default - please check 5d-4 if you wish!
      radial_base         24 7.0
      radial_multiplier   2
      angular_grids       specified
        division   0.2783  110
        division   0.3822  194
        division   0.5626  302
  #      division   0.5922  434
  #      division   0.6227  590
  #      division   0.7206  770
        outer_grid  302
      l_hartree           4
  ################################################################################
  #
  #  Definition of "minimal" basis
  #
  ################################################################################
  #     valence basis states
      valence      1  s   1.
  #     ion occupancy
      ion_occ      1  s   0.5
  ################################################################################
  #
  #  Suggested additional basis functions. For production calculations,
  #  uncomment them one after another (the most important basis functions are
  #  listed first).
  #
  ################################################################################
  #  "First tier" - improvements: -1014.90 meV to -62.69 meV
       hydro 2 s 2.1
       hydro 2 p 3.5
  #  "Second tier" - improvements: -12.89 meV to -1.83 meV
       hydro 1 s 0.85
       hydro 2 p 3.7
       hydro 2 s 1.2
       hydro 3 d 7
  #  "Third tier" - improvements: -0.25 meV to -0.12 meV
  #     hydro 4 f 11.2
  #     hydro 3 p 4.8
  #     hydro 4 d 9
  #     hydro 3 s 3.2
  
  ################################################################################
  #
  #  FHI-aims code project
  #  VB, Fritz-Haber Institut, 2007
  #
  #  Suggested "safe" defaults for O atom (to be pasted into control.in file)
  #  All values have been tested for a non-relativistic, non-spinpolarized O2
  #  molecule using the PW-LDA functional. Validity for PBE is expected.
  #
  #  Constructed for dimers: 1.0 A, 1.208 A, 1.5 A, 2.0 A, 3.0 A
  #
  ################################################################################
    species        O
  #     global species definitions
      nucleus             8
      mass                15.9994
      l_hartree           4
      cut_pot             4.0  2.0  1.0
      cut_free_atom       finite 8.0
      basis_dep_cutoff    1d-4  # 1d-4 is safe default - please check 5d-4 if you wish!
      logarithmic         0.00010000 100.00  1.0123
      radial_base         36 7.0
      radial_multiplier   2
       angular_grids specified
        division   0.4087  110
        division   0.5181  194
        division   0.6184  302
  #      division   0.7315  434
  #      division   0.7934  590
  #      division   0.9656  770
  #      division   1.4041  974
  #      outer_grid 974
        outer_grid 302
  ################################################################################
  #
  #  Definition of "minimal" basis
  #
  ################################################################################
  #     valence basis states
      valence      2  s   2.
      valence      2  p   4.
  #     ion occupancy
      ion_occ      2  s   1.
      ion_occ      2  p   3.
  ################################################################################
  #
  #  Suggested additional basis functions. For production calculations,
  #  uncomment them one after another (the most important basis functions are
  #  listed first).
  #
  ################################################################################
  #  "First tier" - improvements: -699.05 meV to -159.38 meV
       hydro 2 p 1.8
       hydro 3 d 7.6
       hydro 3 s 6.4
  #  "Second tier" - improvements: -49.91 meV to -5.39 meV
       hydro 4 f 11.6
       hydro 3 p 6.2
       hydro 3 d 5.6
       hydro 5 g 17.6
       hydro 1 s 0.75
  #  "Third tier" - improvements: -2.83 meV to -0.50 meV
  #     ionic 2 p auto
  #     hydro 4 f 10.8
  #     hydro 4 d 4.7
  #     hydro 2 s 6.8
  #  "Fourth tier" - improvements: -0.40 meV to -0.12 meV
  #     hydro 3 p 5
  #     hydro 3 s 3.3
  #     hydro 5 g 15.6
  #     hydro 4 f 17.6
  #     hydro 4 d 14
  # Further basis functions - -0.08 meV and below
  #     hydro 3 s 2.1
  #     hydro 4 d 11.6
  #     hydro 3 p 16
  #     hydro 2 s 17.2
  
  
  -----------------------------------------------------------------------
  Completed first pass over input file control.in .
  -----------------------------------------------------------------------
  
  
  -----------------------------------------------------------------------
  Parsing geometry.in (first pass over file, find array dimensions only).
  The contents of geometry.in will be repeated verbatim below
  unless switched off by setting 'verbatim_writeout .false.' .
  in the first line of geometry.in .
  -----------------------------------------------------------------------
  
  atom      -4.053030000      0.065001000     -1.525160000  O
  atom      -4.566710000      0.974813000     -1.912820000  H
  atom      -3.067820000      0.330172000     -1.477310000  H
  atom      -1.645860000      0.870179000     -1.502250000  O
  atom      -1.568890000      1.501730000     -0.721051000  H
  atom      -0.824432000      0.282220000     -1.377720000  H
  atom      -3.818880000      2.024990000      2.187990000  O
  atom      -3.690880000      1.961360000      3.202150000  H
  atom      -4.546490000      2.751300000      2.045370000  H
  atom      -4.066610000      4.258280000     -0.900064000  O
  atom      -3.224110000      3.876870000     -0.569443000  H
  atom      -3.737450000      5.116530000     -1.322720000  H
  atom      -5.628340000      3.730740000      1.385610000  O
  atom      -6.090650000      4.418470000      1.860350000  H
  atom      -5.158540000      4.200260000      0.615875000  H
  
  -----------------------------------------------------------------------
  Completed first pass over input file geometry.in .
  -----------------------------------------------------------------------
  
 
  Basic array size parameters: 
  | Number of species                 :        2
  | Number of atoms                   :       15
  | Max. basis fn. angular momentum   :        4
  | Max. atomic/ionic basis occupied n:        2
  | Max. number of basis fn. types    :        2
  | Max. radial fns per species/type  :        8
  | Max. logarithmic grid size        :     1301
  | Max. radial integration grid size :       73
  | Max. angular integration grid size:      302
  | Max. angular grid division number :        8
  | Radial grid for Hartree potential :     1301
  | Number of spin channels           :        1

------------------------------------------------------------
          Reading file control.in.
------------------------------------------------------------
  XC: Using RPBE gradient-corrected functionals.
  Spin treatment: No spin polarisation.
  Scalar relativistic treatment of kinetic energy: on-site free-atom approximation to ZORA.
  Charge =   0.000000E+00: Neutral system requested explicitly.
  Using non-empirical van der Waals correction (Hirshfeld partitioning):
  Occupation type: Gaussian broadening, width =   0.100000E-01 eV.
  Using pulay charge density mixing.
  Pulay mixing - number of memorized iterations:   10
  Charge density mixing - mixing parameter:     0.1000
  Convergence accuracy of self-consistent charge density: 0.5000E-04
  Convergence accuracy of sum of eigenvalues: 0.5000E-02
  Convergence accuracy of total energy: 0.5000E-05
  Maximum number of s.-c. iterations  :  3000
  Kohn-Sham eigenvalues and eigenfunctions calculated by lapack diagonalisation (D&C).
  Number of empty states per atom:        8
  Threshold for basis singularities: 0.0000E+00
  Partition function in integrals calculations: rho / r^2
 Using packed matrix format           0
  Convergence accuracy of forces: 0.5000E-03
  Cleaning forces before final output.
  Hirshfeld charge analysis will be performed.
 
  Reading configuration options for species H                   .
  | Found nuclear charge :   1.0000
  | Found cutoff potl. onset [A], width [A], scale factor :    4.00000    2.00000    1.00000
  | Found cutoff specification for free atom: Cutoff potential begins at    8.00000 A.
  | Found logarithmic grid data [bohr] : 0.1000E-03 0.1000E+03 0.1012E+01
  | Threshold for basis-dependent cutoff potential is   0.100000E-03
  | Found data for basic radial integration grid :    24 points, outermost radius =    7.000 A
  | Found multiplier for basic radial grid :   2
  | Found angular grid specification: user-specified.
  | Specified grid contains     4 separate shells.
  | Check grid settings after all constraints further below.
  | Found l_max for Hartree potential  :   4
  | Found free-atom valence shell :  1 s   1.000
  | No ionic wave fns used. Skipping ion_occ.
  | Found hydrogenic basis function :  2 s   2.100
  | Found hydrogenic basis function :  2 p   3.500
  | Found hydrogenic basis function :  1 s   0.850
  | Found hydrogenic basis function :  2 p   3.700
  | Found hydrogenic basis function :  2 s   1.200
  | Found hydrogenic basis function :  3 d   7.000
  Species H                   : Missing cutoff potential type.
  Defaulting to exp(1/x)/(1-x)^2 type cutoff potential.
  Species H : On-site basis accuracy parameter (for Gram-Schmidt orthonormalisation) not specified.
  Using default value basis_acc =  0.1000000E-03.
  Species H                   : Using default innermost maximum threshold i_radial=  2 for radial functions.
  Species H                   : Basic radial grid will be enhanced according to radial_multiplier =   2, to contain    49 grid points.
 
  Reading configuration options for species O                   .
  | Found nuclear charge :   8.0000
  | Found atomic mass :    15.9994000000000      amu
  | Found l_max for Hartree potential  :   4
  | Found cutoff potl. onset [A], width [A], scale factor :    4.00000    2.00000    1.00000
  | Found cutoff specification for free atom: Cutoff potential begins at    8.00000 A.
  | Threshold for basis-dependent cutoff potential is   0.100000E-03
  | Found logarithmic grid data [bohr] : 0.1000E-03 0.1000E+03 0.1012E+01
  | Found data for basic radial integration grid :    36 points, outermost radius =    7.000 A
  | Found multiplier for basic radial grid :   2
  | Found angular grid specification: user-specified.
  | Specified grid contains     4 separate shells.
  | Check grid settings after all constraints further below.
  | Found free-atom valence shell :  2 s   2.000
  | Found free-atom valence shell :  2 p   4.000
  | No ionic wave fns used. Skipping ion_occ.
  | No ionic wave fns used. Skipping ion_occ.
  | Found hydrogenic basis function :  2 p   1.800
  | Found hydrogenic basis function :  3 d   7.600
  | Found hydrogenic basis function :  3 s   6.400
  | Found hydrogenic basis function :  4 f  11.600
  | Found hydrogenic basis function :  3 p   6.200
  | Found hydrogenic basis function :  3 d   5.600
  | Found hydrogenic basis function :  5 g  17.600
  | Found hydrogenic basis function :  1 s   0.750
  Species O                   : Missing cutoff potential type.
  Defaulting to exp(1/x)/(1-x)^2 type cutoff potential.
  Species O : On-site basis accuracy parameter (for Gram-Schmidt orthonormalisation) not specified.
  Using default value basis_acc =  0.1000000E-03.
  Species O                   : Using default innermost maximum threshold i_radial=  2 for radial functions.
  Species O                   : Basic radial grid will be enhanced according to radial_multiplier =   2, to contain    73 grid points.
 
  Finished reading input file 'control.in'. Consistency checks are next.
 
  Target number of points in a grid batch is not set. Defaulting to  100
  Method for grid partitioning is not set. Defaulting to parallel hash+maxmin partitioning.
  Batch size limit is not set. Defaulting to    200
  By default, will store active basis functions for each batch.
  If in need of memory, prune_basis_once .false. can be used to disable this option.
  communication_type for Hartree potential was not specified.
  Defaulting to calc_hartree .
  Pulay mixer: Number of initial linear mixing iterations not set.
  Defaulting to    0 iterations.
  Work space size for distributed Hartree potential not set.
  Defaulting to   0.200000E+03 MB.
  Algorithm-dependent basis array size parameters:
  | n_max_pulay                         :       10
  Geometry relaxation not requested: no relaxation will be performed.
  Handling of forces: Unphysical translation and rotation will be removed from forces.
  No accuracy limit for integral partition fn. given. Defaulting to 0.1000E-14.
  No threshold value for u(r) in integrations given. Defaulting to 0.1000E-05.
  No accuracy for occupation numbers given. Defaulting to 0.1000E-07.
  No threshold value for occupation numbers given. Defaulting to 0.0000E+00.
  No accuracy for fermi level given. Defaulting to 0.1000E-19.
  Maximum # of iterations to find E_F not set. Defaulting to  200.
  Will not use alltoall communication since running on < 1024 CPUs.
  Partitioning for Hartree potential was not defined. Using partition_type for integrals.
  | Reporting present value of keyword multip_moments_threshold  :       0.10000000E-09
  | This value may affect high angular momentum components of the Hartree potential in periodic systems.
  No q(lm)/r^(l+1) cutoff set for long-range Hartree potential.
  | Using default value of  0.100000E-09 .
  | Verify using the multipole_threshold keyword.
  Defaulting to new monopole extrapolation.
  Density update method: Loop over occupied states selected for charge density update.
------------------------------------------------------------


------------------------------------------------------------
          Reading geometry description geometry.in.
------------------------------------------------------------
  Input structure read successfully.
  The structure contains       15 atoms,  and a total of         50.000 electrons.

  Input geometry:
  | No unit cell requested.
  | Atomic structure:
  |       Atom                x [A]            y [A]            z [A]
  |    1: Species O             -4.053030         0.065001        -1.525160
  |    2: Species H             -4.566710         0.974813        -1.912820
  |    3: Species H             -3.067820         0.330172        -1.477310
  |    4: Species O             -1.645860         0.870179        -1.502250
  |    5: Species H             -1.568890         1.501730        -0.721051
  |    6: Species H             -0.824432         0.282220        -1.377720
  |    7: Species O             -3.818880         2.024990         2.187990
  |    8: Species H             -3.690880         1.961360         3.202150
  |    9: Species H             -4.546490         2.751300         2.045370
  |   10: Species O             -4.066610         4.258280        -0.900064
  |   11: Species H             -3.224110         3.876870        -0.569443
  |   12: Species H             -3.737450         5.116530        -1.322720
  |   13: Species O             -5.628340         3.730740         1.385610
  |   14: Species H             -6.090650         4.418470         1.860350
  |   15: Species H             -5.158540         4.200260         0.615875
  |

  | The smallest distance between any two atoms is         0.95502940 AA.
  |
  | The first atom of this pair is atom number                     13 .
  | The second atom of this pair is atom number                    14 .

  Structure-dependent array size parameters: 
  | Maximum number of distinct radial functions  :       18
  | Maximum number of basis functions            :      345
  | Number of Kohn-Sham states (occupied + empty):       85
------------------------------------------------------------

------------------------------------------------------------
          Preparing all fixed parts of the calculation.
------------------------------------------------------------
  Determining machine precision:
    2.225073858507201E-308
  Setting up grids for atomic and cluster calculations.

  Creating wave function, potential, and density for free atoms.

  Species: H

  List of occupied orbitals and eigenvalues:
    n    l              occ      energy [Ha]    energy [eV]
    1    0           1.0000        -0.241408        -6.5691


  Species: O

  List of occupied orbitals and eigenvalues:
    n    l              occ      energy [Ha]    energy [eV]
    1    0           2.0000       -18.944147      -515.4965
    2    0           2.0000        -0.883529       -24.0421
    2    1           4.0000        -0.330176        -8.9845

  Creating fixed part of basis set: Ionic, confined, hydrogenic.
 
  H                    hydrogenic:
 
  List of hydrogenic basis orbitals: 
    n    l      effective z      eigenvalue [eV]  inner max. [A]     outer max. [A]     outer radius [A]   
    2    0         2.100000       -14.9965           0.193241           1.317192           5.372934
    2    1         3.500000       -41.6672           0.602363           0.602363           4.056010
    1    0         0.850000        -9.8292           0.624864           0.624864           5.372934
    2    1         3.700000       -46.5653           0.573616           0.573616           3.909951
    2    0         1.200000        -4.5995           0.334977           2.228160           5.505921
    3    2         7.000000       -74.0753           0.680692           0.680692           3.769152
 
 
  O                    hydrogenic:
 
  List of hydrogenic basis orbitals: 
    n    l      effective z      eigenvalue [eV]  inner max. [A]     outer max. [A]     outer radius [A]   
    2    1         1.800000       -11.0118           1.178546           1.178546           5.432516
    3    2         7.600000       -87.3182           0.624117           0.624117           3.541422
    3    0         6.400000       -61.9209           0.061166           1.081887           4.306510
    4    3        11.600000      -114.4238           0.731621           0.731621           3.584982
    3    1         6.200000       -58.1113           0.255677           1.030255           4.306510
    3    2         5.600000       -47.4081           0.847222           0.847222           4.413102
    5    4        17.600000      -168.5799           0.749730           0.749730           3.372413
    1    0         0.750000        -7.6499           0.705275           0.705275           5.366508
 

  Adding cutoff potential to free-atom effective potential.
  Creating atomic-like basis functions for current effective potential.

  Species H                   :

  List of atomic basis orbitals and eigenvalues:
    n    l      energy [Ha]    energy [eV]    outer radius [A]
    1    0        -0.241374        -6.5681       5.372934


  Species O                   :

  List of atomic basis orbitals and eigenvalues:
    n    l      energy [Ha]    energy [eV]    outer radius [A]
    1    0       -18.944147      -515.4965       1.415745
    2    0        -0.883529       -24.0421       5.048305
    2    1        -0.330173        -8.9845       5.301302

  Assembling full basis from fixed parts.
  | Species H :   atomic orbital   1 s accepted.
  | Species H :    hydro orbital   2 s accepted.
  | Species H :    hydro orbital   1 s accepted.
  | Species H :    hydro orbital   2 s accepted.
  | Species H :    hydro orbital   2 p accepted.
  | Species H :    hydro orbital   2 p accepted.
  | Species H :    hydro orbital   3 d accepted.
  | Species O :   atomic orbital   1 s accepted.
  | Species O :    hydro orbital   3 s accepted.
  | Species O :   atomic orbital   2 s accepted.
  | Species O :    hydro orbital   1 s accepted.
  | Species O :    hydro orbital   3 p accepted.
  | Species O :   atomic orbital   2 p accepted.
  | Species O :    hydro orbital   2 p accepted.
  | Species O :    hydro orbital   3 d accepted.
  | Species O :    hydro orbital   3 d accepted.
  | Species O :    hydro orbital   4 f accepted.
  | Species O :    hydro orbital   5 g accepted.
 
  Basis size parameters after reduction:
  | Total number of radial functions:       18
  | Total number of basis functions :      345
 
  Testing on-site integration grid accuracy.
  |  Species  Function  <phi|h_atom|phi> (log., in eV)  <phi|h_atom|phi> (rad., in eV)
           1        1                 -6.5683835025                 -6.5684759159
           1        2                 13.3711789951                 13.3708738703
           1        3                 23.6590910787                 23.6532055418
           1        4                 16.2963827186                 16.1870710655 ***
           1        5                 28.7627214838                 28.7627215090
           1        6                 59.5965249172                 59.5965950857
           1        7                 60.2220506392                 60.2220503827
           2        8               -515.4964576505               -515.4964530710
           2        9                 15.3030791347                 15.3030722972
           2       10                -21.7296094581                -21.7296135470
           2       11                 14.2969371730                 14.2969701621
           2       12                 21.0679693190                 21.0679697493
           2       13                 -2.3833606469                 -2.3833613176
           2       14                 13.7067136422                 13.7066766629
           2       15                 45.8013116808                 45.8013116965
           2       16                 52.2309815402                 52.2309831494
           2       17                 85.4120732416                 85.4120732763
           2       18                142.1019167745                142.1019167817
 * Note: Onsite integrals marked "***" above are less accurate than
 * onsite_accuracy_threshold =    0.03000 eV. Usually, this is harmless.
 * When in doubt, tighten the "radial" and/or "radial_multiplier" flags to check.

  Preparing densities etc. for the partition functions (integrals / Hartree potential).

  Preparations completed.
  max(cpu_time)          :      0.170 s.
  Wall clock time (cpu1) :      0.498 s.
------------------------------------------------------------

------------------------------------------------------------
          Begin self-consistency loop: Initialization.

          Date     :  20150727, Time     :  123353.578
------------------------------------------------------------

  Initializing index lists of integration centers etc. from given atomic structure:
  | Number of centers in hartree potential         :        15
  | Number of centers in hartree multipole         :        15
  | Number of centers in electron density summation:        15
  | Number of centers in basis integrals           :        15
  | Number of centers in integrals                 :        15
  Partitioning the integration grid into batches with parallel hashing+maxmin method.
  | Number of batches:     1859
  | Maximal batch size:     186
  | Minimal batch size:      54
  | Average batch size:     105.815
  | Standard deviation of batch sizes:      33.046

  Integration load balanced across     8 MPI tasks.
  Work distribution over tasks is as follows:
  Task     0 has      24536 integration points.
  Task     1 has      24540 integration points.
  Task     2 has      24579 integration points.
  Task     3 has      24533 integration points.
  Task     4 has      24555 integration points.
  Task     5 has      24676 integration points.
  Task     6 has      24707 integration points.
  Task     7 has      24584 integration points.
  Initializing partition tables, free-atom densities, potentials, etc. across the integration grid (initialize_grid_storage).
  | Net number of integration points:   196710
  | of which are non-zero points    :   196141
  Obtaining max. number of non-zero basis functions in each batch (get_n_compute_maxes).
  | Maximal number of non-zero basis functions:      341 in task     0
  | Maximal number of non-zero basis functions:      341 in task     1
  | Maximal number of non-zero basis functions:      341 in task     2
  | Maximal number of non-zero basis functions:      341 in task     3
  | Maximal number of non-zero basis functions:      341 in task     4
  | Maximal number of non-zero basis functions:      341 in task     5
  | Maximal number of non-zero basis functions:      341 in task     6
  | Maximal number of non-zero basis functions:      341 in task     7
  Integrating Hamiltonian matrix: batch-based integration.
  Time summed over all CPUs for integration: real work        6.603 s, elapsed        6.728 s
  Integrating overlap matrix.
  Time summed over all CPUs for integration: real work        3.513 s, elapsed        3.593 s

  Updating Kohn-Sham eigenvalues, eigenvectors, occupation numbers, and Fermi level.
  Solving generalized eigenproblem
  Updating Kohn-Sham eigenvalues and eigenfunctions.
  Transforming overlap matrix and checking for singularities.
  Overlap matrix is nonsingular:
  | Lowest eigenvalue:  0.313438E-03
  Solving real generalised eigenvalue problem by standard LAPACK (fast)
  Determining occupation numbers for Kohn-Sham eigenstates.
  | Chemical potential (Fermi level) in eV                 : -.43278841E+01
  | Error in electron count due to remaining E_F inaccuracy: 0.00000000E+00
  | Maximum occupation number of highest empty state:  0.00E+00

  Writing Kohn-Sham eigenvalues.

  State    Occupation    Eigenvalue [Ha]    Eigenvalue [eV]
      1       2.00000         -19.050616         -518.39364
      2       2.00000         -19.042522         -518.17338
      3       2.00000         -19.042424         -518.17073
      4       2.00000         -19.028895         -517.80259
      5       2.00000         -19.019451         -517.54558
      6       2.00000          -1.100402          -29.94346
      7       2.00000          -1.086748          -29.57191
      8       2.00000          -1.085682          -29.54290
      9       2.00000          -1.059661          -28.83485
     10       2.00000          -1.041668          -28.34524
     11       2.00000          -0.631744          -17.19064
     12       2.00000          -0.605800          -16.48466
     13       2.00000          -0.604262          -16.44281
     14       2.00000          -0.601053          -16.35550
     15       2.00000          -0.588834          -16.02298
     16       2.00000          -0.522479          -14.21739
     17       2.00000          -0.516281          -14.04871
     18       2.00000          -0.507058          -13.79775
     19       2.00000          -0.483134          -13.14675
     20       2.00000          -0.471525          -12.83086
     21       2.00000          -0.438800          -11.94036
     22       2.00000          -0.432317          -11.76394
     23       2.00000          -0.431485          -11.74130
     24       2.00000          -0.417300          -11.35532
     25       2.00000          -0.409324          -11.13826
     26       0.00000          -0.101691           -2.76716
     27       0.00000          -0.072240           -1.96574
     28       0.00000          -0.061734           -1.67987
     29       0.00000          -0.057008           -1.55126
     30       0.00000          -0.037767           -1.02769
     31       0.00000          -0.017822           -0.48495
     32       0.00000           0.023576            0.64154
     33       0.00000           0.034082            0.92743
     34       0.00000           0.039545            1.07606
     35       0.00000           0.051493            1.40120
     36       0.00000           0.065815            1.79091
     37       0.00000           0.070322            1.91355
     38       0.00000           0.082127            2.23479
     39       0.00000           0.092403            2.51441
     40       0.00000           0.095526            2.59939
     41       0.00000           0.097966            2.66579
     42       0.00000           0.103138            2.80652
     43       0.00000           0.113822            3.09725
     44       0.00000           0.123310            3.35544
     45       0.00000           0.129684            3.52887
     46       0.00000           0.141054            3.83827
     47       0.00000           0.145531            3.96009
     48       0.00000           0.156725            4.26471
     49       0.00000           0.161428            4.39267
     50       0.00000           0.168225            4.57763
     51       0.00000           0.184395            5.01766
     52       0.00000           0.207459            5.64524
     53       0.00000           0.211697            5.76056
     54       0.00000           0.244814            6.66172
     55       0.00000           0.256203            6.97163
     56       0.00000           0.266324            7.24704
     57       0.00000           0.281801            7.66820
     58       0.00000           0.302824            8.24026
     59       0.00000           0.308145            8.38506
     60       0.00000           0.320365            8.71757
     61       0.00000           0.338814            9.21958
     62       0.00000           0.341241            9.28564
     63       0.00000           0.352259            9.58545
     64       0.00000           0.370639           10.08559
     65       0.00000           0.374774           10.19812
     66       0.00000           0.380106           10.34321
     67       0.00000           0.391211           10.64539
     68       0.00000           0.395574           10.76411
     69       0.00000           0.409556           11.14458
     70       0.00000           0.418139           11.37814
     71       0.00000           0.440125           11.97642
     72       0.00000           0.452010           12.29982
     73       0.00000           0.473667           12.88914
     74       0.00000           0.491038           13.36184
     75       0.00000           0.495210           13.47534
     76       0.00000           0.515637           14.03120
     77       0.00000           0.519936           14.14817
     78       0.00000           0.537481           14.62559
     79       0.00000           0.545313           14.83873
     80       0.00000           0.579792           15.77694
     81       0.00000           0.613795           16.70220
     82       0.00000           0.641368           17.45250
     83       0.00000           0.664229           18.07460
     84       0.00000           0.690626           18.79289
     85       0.00000           0.716040           19.48443

  Highest occupied state (VBM) at    -11.13826470 eV
  | Occupation number:      2.00000000

  Lowest unoccupied state (CBM) at    -2.76716156 eV
  | Occupation number:      0.00000000

  Overall HOMO-LUMO gap:      8.37110314 eV.
  Calculating total energy contributions from superposition of free atom densities.

  Total energy components:
  | Sum of eigenvalues            :        -216.43893185 Ha       -5889.60299534 eV
  | XC energy correction          :         -45.52180223 Ha       -1238.71126366 eV
  | XC potential correction       :          58.16362436 Ha        1582.71274638 eV
  | Free-atom electrostatic energy:        -179.26897584 Ha       -4878.15703058 eV
  | Hartree energy correction     :           0.00000000 Ha           0.00000000 eV
  | van der Waals energy corr.    :           0.00000000 Ha           0.00000000 eV
  | Entropy correction            :           0.00000000 Ha           0.00000000 eV
  | ---------------------------
  | Total energy                  :        -383.06608556 Ha      -10423.75854320 eV
  | Total energy, T -> 0          :        -383.06608556 Ha      -10423.75854320 eV  <-- do not rely on this value for anything but (periodic) metals
  | Electronic free energy        :        -383.06608556 Ha      -10423.75854320 eV

  Derived energy quantities:
  | Kinetic energy                :         379.08877240 Ha       10315.53034529 eV
  | Electrostatic energy          :        -716.63305573 Ha      -19500.57762483 eV
  | Energy correction for multipole
  | error in Hartree potential    :           0.00000000 Ha           0.00000000 eV
  | Sum of eigenvalues per atom                           :        -392.64019969 eV
  | Total energy (T->0) per atom                          :        -694.91723621 eV  <-- do not rely on this value for anything but (periodic) metals
  | Electronic free energy per atom                       :        -694.91723621 eV
  Initialize hartree_potential_storage
  Max. number of atoms included in rho_multipole:           15

  End scf initialization - timings             :  max(cpu_time)    wall_clock(cpu1)
  | Time for scf. initialization               :        1.869 s           1.869 s
  | Boundary condition initialization          :        0.000 s           0.001 s
  | Integration                                :        1.294 s           1.294 s
  | Solution of K.-S. eqns.                    :        0.198 s           0.198 s
  | Grid partitioning                          :        0.159 s           0.159 s
  | Preloading free-atom quantities on grid    :        0.014 s           0.013 s
  | Free-atom superposition energy             :        0.066 s           0.066 s
  | Total energy evaluation                    :        0.000 s           0.001 s
------------------------------------------------------------

------------------------------------------------------------
          Begin self-consistency iteration #    1

  Date     :  20150727, Time     :  123355.447
------------------------------------------------------------
  Evaluating new KS density.
  Integration grid: deviation in total charge (<rho> - N_e) =   7.105427E-15
  Pulay mixing of updated and previous charge densities.

  Evaluating partitioned Hartree potential by multipole expansion.
  | Analytical far-field extrapolation by fixed multipoles:
  | Hartree multipole sum: apparent total charge =  -0.167650E-05
  Summing up the Hartree potential.
  Time summed over all CPUs for potential: real work        2.563 s, elapsed        2.570 s
  | RMS charge density error from multipole expansion :   0.155366E-02

  Integrating Hamiltonian matrix: batch-based integration.
  Time summed over all CPUs for integration: real work        6.602 s, elapsed        6.717 s

  Updating Kohn-Sham eigenvalues, eigenvectors, occupation numbers, and Fermi level.
  Solving generalized eigenproblem
  Updating Kohn-Sham eigenvalues and eigenfunctions.
  Solving real generalised eigenvalue problem by standard LAPACK (fast)
  Determining occupation numbers for Kohn-Sham eigenstates.
  | Chemical potential (Fermi level) in eV                 : -.39135274E+01
  | Error in electron count due to remaining E_F inaccuracy: 0.00000000E+00
  | Maximum occupation number of highest empty state:  0.00E+00

  Writing Kohn-Sham eigenvalues.

  State    Occupation    Eigenvalue [Ha]    Eigenvalue [eV]
      1       2.00000         -18.978453         -516.42999
      2       2.00000         -18.977671         -516.40870
      3       2.00000         -18.975036         -516.33700
      4       2.00000         -18.945552         -515.53470
      5       2.00000         -18.933059         -515.19475
      6       2.00000          -1.065198          -28.98553
      7       2.00000          -1.055243          -28.71461
      8       2.00000          -1.053777          -28.67472
      9       2.00000          -1.015658          -27.63745
     10       2.00000          -0.994610          -27.06471
     11       2.00000          -0.600977          -16.35342
     12       2.00000          -0.579413          -15.76663
     13       2.00000          -0.577565          -15.71633
     14       2.00000          -0.564986          -15.37405
     15       2.00000          -0.552342          -15.02998
     16       2.00000          -0.487113          -13.25503
     17       2.00000          -0.480677          -13.07987
     18       2.00000          -0.473061          -12.87265
     19       2.00000          -0.441541          -12.01496
     20       2.00000          -0.429431          -11.68542
     21       2.00000          -0.400855          -10.90781
     22       2.00000          -0.397804          -10.82479
     23       2.00000          -0.394603          -10.73768
     24       2.00000          -0.371765          -10.11625
     25       2.00000          -0.360424           -9.80764
     26       0.00000          -0.093624           -2.54763
     27       0.00000          -0.064263           -1.74870
     28       0.00000          -0.050447           -1.37274
     29       0.00000          -0.048205           -1.31171
     30       0.00000          -0.030385           -0.82682
     31       0.00000          -0.011544           -0.31414
     32       0.00000           0.031367            0.85353
     33       0.00000           0.042915            1.16778
     34       0.00000           0.048915            1.33104
     35       0.00000           0.061053            1.66134
     36       0.00000           0.074456            2.02604
     37       0.00000           0.080811            2.19898
     38       0.00000           0.092000            2.50345
     39       0.00000           0.099529            2.70832
     40       0.00000           0.102867            2.79915
     41       0.00000           0.109306            2.97436
     42       0.00000           0.111820            3.04277
     43       0.00000           0.122944            3.34547
     44       0.00000           0.131763            3.58545
     45       0.00000           0.140450            3.82185
     46       0.00000           0.151038            4.10996
     47       0.00000           0.155428            4.22941
     48       0.00000           0.165789            4.51136
     49       0.00000           0.176771            4.81019
     50       0.00000           0.181667            4.94341
     51       0.00000           0.197105            5.36350
     52       0.00000           0.216462            5.89023
     53       0.00000           0.221638            6.03108
     54       0.00000           0.256582            6.98195
     55       0.00000           0.262923            7.15451
     56       0.00000           0.275441            7.49514
     57       0.00000           0.291136            7.92223
     58       0.00000           0.311017            8.46319
     59       0.00000           0.316515            8.61282
     60       0.00000           0.328261            8.93245
     61       0.00000           0.349728            9.51659
     62       0.00000           0.352012            9.57874
     63       0.00000           0.361064            9.82506
     64       0.00000           0.379539           10.32779
     65       0.00000           0.383061           10.42363
     66       0.00000           0.389966           10.61151
     67       0.00000           0.400047           10.88582
     68       0.00000           0.403736           10.98620
     69       0.00000           0.418983           11.40110
     70       0.00000           0.428751           11.66690
     71       0.00000           0.447491           12.17684
     72       0.00000           0.461877           12.56831
     73       0.00000           0.482253           13.12277
     74       0.00000           0.502189           13.66525
     75       0.00000           0.506147           13.77295
     76       0.00000           0.527387           14.35094
     77       0.00000           0.533064           14.50541
     78       0.00000           0.548109           14.91481
     79       0.00000           0.555987           15.12918
     80       0.00000           0.590638           16.07209
     81       0.00000           0.625482           17.02024
     82       0.00000           0.653570           17.78454
     83       0.00000           0.674866           18.36403
     84       0.00000           0.704776           19.17792
     85       0.00000           0.728644           19.82740

  Highest occupied state (VBM) at     -9.80764469 eV
  | Occupation number:      2.00000000

  Lowest unoccupied state (CBM) at    -2.54763188 eV
  | Occupation number:      0.00000000

  Overall HOMO-LUMO gap:      7.26001281 eV.

  Total energy components:
  | Sum of eigenvalues            :        -214.21362822 Ha       -5829.04940255 eV
  | XC energy correction          :         -45.75735548 Ha       -1245.12099356 eV
  | XC potential correction       :          58.47213520 Ha        1591.10775353 eV
  | Free-atom electrostatic energy:        -179.26897584 Ha       -4878.15703058 eV
  | Hartree energy correction     :          -2.15746012 Ha         -58.70747688 eV
  | van der Waals energy corr.    :           0.00000000 Ha           0.00000000 eV
  | Entropy correction            :           0.00000000 Ha           0.00000000 eV
  | ---------------------------
  | Total energy                  :        -382.92528445 Ha      -10419.92715004 eV
  | Total energy, T -> 0          :        -382.92528445 Ha      -10419.92715004 eV  <-- do not rely on this value for anything but (periodic) metals
  | Electronic free energy        :        -382.92528445 Ha      -10419.92715004 eV

  Derived energy quantities:
  | Kinetic energy                :         380.47355498 Ha       10353.21219677 eV
  | Electrostatic energy          :        -717.64148396 Ha      -19528.01835325 eV
  | Energy correction for multipole
  | error in Hartree potential    :          -0.00019722 Ha          -0.00536664 eV
  | Sum of eigenvalues per atom                           :        -388.60329350 eV
  | Total energy (T->0) per atom                          :        -694.66181000 eV  <-- do not rely on this value for anything but (periodic) metals
  | Electronic free energy per atom                       :        -694.66181000 eV

  Self-consistency convergence accuracy:
  | Change of charge density      : 0.6481E+00
  | Change of sum of eigenvalues  : 0.6055E+02 eV
  | Change of total energy        : 0.3831E+01 eV

  End self-consistency iteration #     1       :  max(cpu_time)    wall_clock(cpu1)
  | Time for this iteration                    :        1.841 s           1.840 s
  | Charge density update                      :        0.610 s           0.610 s
  | Density mixing                             :        0.003 s           0.003 s
  | Hartree multipole update                   :        0.005 s           0.006 s
  | Hartree multipole summation                :        0.322 s           0.322 s
  | Integration                                :        0.842 s           0.841 s
  | Solution of K.-S. eqns.                    :        0.054 s           0.054 s
  | Total energy evaluation                    :        0.000 s           0.001 s
------------------------------------------------------------

------------------------------------------------------------
          Begin self-consistency iteration #    2

  Date     :  20150727, Time     :  123357.288
------------------------------------------------------------
  Evaluating new KS density.
  Integration grid: deviation in total charge (<rho> - N_e) =   0.000000E+00
  Pulay mixing of updated and previous charge densities.

  Evaluating partitioned Hartree potential by multipole expansion.
  | Analytical far-field extrapolation by fixed multipoles:
  | Hartree multipole sum: apparent total charge =  -0.443851E-05
  Summing up the Hartree potential.
  Time summed over all CPUs for potential: real work        2.562 s, elapsed        2.570 s
  | RMS charge density error from multipole expansion :   0.612355E-02

  Integrating Hamiltonian matrix: batch-based integration.
  Time summed over all CPUs for integration: real work        6.569 s, elapsed        6.709 s

  Updating Kohn-Sham eigenvalues, eigenvectors, occupation numbers, and Fermi level.
  Solving generalized eigenproblem
  Updating Kohn-Sham eigenvalues and eigenfunctions.
  Solving real generalised eigenvalue problem by standard LAPACK (fast)
  Determining occupation numbers for Kohn-Sham eigenstates.
  | Chemical potential (Fermi level) in eV                 : -.29301991E+01
  | Error in electron count due to remaining E_F inaccuracy: 0.00000000E+00
  | Maximum occupation number of highest empty state:  0.00E+00

  Highest occupied state (VBM) at     -6.73106908 eV
  | Occupation number:      2.00000000

  Lowest unoccupied state (CBM) at    -2.09708325 eV
  | Occupation number:      0.00000000

  Overall HOMO-LUMO gap:      4.63398583 eV.

  Total energy components:
  | Sum of eigenvalues            :        -209.10908428 Ha       -5690.14769484 eV
  | XC energy correction          :         -46.32083083 Ha       -1260.45393803 eV
  | XC potential correction       :          59.20945891 Ha        1611.17135249 eV
  | Free-atom electrostatic energy:        -179.26897584 Ha       -4878.15703058 eV
  | Hartree energy correction     :          -7.27700025 Ha        -198.01725179 eV
  | van der Waals energy corr.    :           0.00000000 Ha           0.00000000 eV
  | Entropy correction            :           0.00000000 Ha           0.00000000 eV
  | ---------------------------
  | Total energy                  :        -382.76643229 Ha      -10415.60456275 eV
  | Total energy, T -> 0          :        -382.76643229 Ha      -10415.60456275 eV  <-- do not rely on this value for anything but (periodic) metals
  | Electronic free energy        :        -382.76643229 Ha      -10415.60456275 eV

  Derived energy quantities:
  | Kinetic energy                :         383.16177869 Ha       10426.36248552 eV
  | Electrostatic energy          :        -719.60738015 Ha      -19581.51311024 eV
  | Energy correction for multipole
  | error in Hartree potential    :          -0.00151400 Ha          -0.04119813 eV
  | Sum of eigenvalues per atom                           :        -379.34317966 eV
  | Total energy (T->0) per atom                          :        -694.37363752 eV  <-- do not rely on this value for anything but (periodic) metals
  | Electronic free energy per atom                       :        -694.37363752 eV

  Self-consistency convergence accuracy:
  | Change of charge density      : 0.4885E+00
  | Change of sum of eigenvalues  : 0.1389E+03 eV
  | Change of total energy        : 0.4323E+01 eV

  End self-consistency iteration #     2       :  max(cpu_time)    wall_clock(cpu1)
  | Time for this iteration                    :        1.834 s           1.833 s
  | Charge density update                      :        0.605 s           0.605 s
  | Density mixing                             :        0.006 s           0.005 s
  | Hartree multipole update                   :        0.005 s           0.005 s
  | Hartree multipole summation                :        0.322 s           0.322 s
  | Integration                                :        0.841 s           0.841 s
  | Solution of K.-S. eqns.                    :        0.053 s           0.054 s
  | Total energy evaluation                    :        0.000 s           0.001 s
------------------------------------------------------------

------------------------------------------------------------
          Begin self-consistency iteration #    3

  Date     :  20150727, Time     :  123359.122
------------------------------------------------------------
  Evaluating new KS density.
  Integration grid: deviation in total charge (<rho> - N_e) =  -1.421085E-14
  Pulay mixing of updated and previous charge densities.

  Evaluating partitioned Hartree potential by multipole expansion.
  | Analytical far-field extrapolation by fixed multipoles:
  | Hartree multipole sum: apparent total charge =  -0.332619E-05
  Summing up the Hartree potential.
  Time summed over all CPUs for potential: real work        2.562 s, elapsed        2.569 s
  | RMS charge density error from multipole expansion :   0.129164E-01

  Integrating Hamiltonian matrix: batch-based integration.
  Time summed over all CPUs for integration: real work        6.572 s, elapsed        6.710 s

  Updating Kohn-Sham eigenvalues, eigenvectors, occupation numbers, and Fermi level.
  Solving generalized eigenproblem
  Updating Kohn-Sham eigenvalues and eigenfunctions.
  Solving real generalised eigenvalue problem by standard LAPACK (fast)
  Determining occupation numbers for Kohn-Sham eigenstates.
  | Chemical potential (Fermi level) in eV                 : -.26670763E+01
  | Error in electron count due to remaining E_F inaccuracy: 0.00000000E+00
  | Maximum occupation number of highest empty state:  0.00E+00

  Highest occupied state (VBM) at     -6.52131810 eV
  | Occupation number:      2.00000000

  Lowest unoccupied state (CBM) at    -2.05144299 eV
  | Occupation number:      0.00000000

  Overall HOMO-LUMO gap:      4.46987511 eV.

  Total energy components:
  | Sum of eigenvalues            :        -209.24388100 Ha       -5693.81570012 eV
  | XC energy correction          :         -46.30422177 Ha       -1260.00198261 eV
  | XC potential correction       :          59.18263490 Ha        1610.44143407 eV
  | Free-atom electrostatic energy:        -179.26897584 Ha       -4878.15703058 eV
  | Hartree energy correction     :          -7.12542005 Ha        -193.89254476 eV
  | van der Waals energy corr.    :           0.00000000 Ha           0.00000000 eV
  | Entropy correction            :           0.00000000 Ha           0.00000000 eV
  | ---------------------------
  | Total energy                  :        -382.75986376 Ha      -10415.42582400 eV
  | Total energy, T -> 0          :        -382.75986376 Ha      -10415.42582400 eV  <-- do not rely on this value for anything but (periodic) metals
  | Electronic free energy        :        -382.75986376 Ha      -10415.42582400 eV

  Derived energy quantities:
  | Kinetic energy                :         381.10398623 Ha       10370.36710367 eV
  | Electrostatic energy          :        -717.55962822 Ha      -19525.79094505 eV
  | Energy correction for multipole
  | error in Hartree potential    :          -0.00665796 Ha          -0.18117227 eV
  | Sum of eigenvalues per atom                           :        -379.58771334 eV
  | Total energy (T->0) per atom                          :        -694.36172160 eV  <-- do not rely on this value for anything but (periodic) metals
  | Electronic free energy per atom                       :        -694.36172160 eV

  Self-consistency convergence accuracy:
  | Change of charge density      : 0.2508E+00
  | Change of sum of eigenvalues  : -.3668E+01 eV
  | Change of total energy        : 0.1787E+00 eV

  End self-consistency iteration #     3       :  max(cpu_time)    wall_clock(cpu1)
  | Time for this iteration                    :        1.832 s           1.831 s
  | Charge density update                      :        0.603 s           0.602 s
  | Density mixing                             :        0.007 s           0.007 s
  | Hartree multipole update                   :        0.005 s           0.005 s
  | Hartree multipole summation                :        0.322 s           0.322 s
  | Integration                                :        0.840 s           0.840 s
  | Solution of K.-S. eqns.                    :        0.054 s           0.054 s
  | Total energy evaluation                    :        0.000 s           0.001 s
------------------------------------------------------------

------------------------------------------------------------
          Begin self-consistency iteration #    4

  Date     :  20150727, Time     :  123400.954
------------------------------------------------------------
  Evaluating new KS density.
  Integration grid: deviation in total charge (<rho> - N_e) =   0.000000E+00
  Pulay mixing of updated and previous charge densities.

  Evaluating partitioned Hartree potential by multipole expansion.
  | Analytical far-field extrapolation by fixed multipoles:
  | Hartree multipole sum: apparent total charge =  -0.379385E-05
  Summing up the Hartree potential.
  Time summed over all CPUs for potential: real work        2.572 s, elapsed        2.597 s
  | RMS charge density error from multipole expansion :   0.163907E-01

  Integrating Hamiltonian matrix: batch-based integration.
  Time summed over all CPUs for integration: real work        6.573 s, elapsed        6.693 s

  Updating Kohn-Sham eigenvalues, eigenvectors, occupation numbers, and Fermi level.
  Solving generalized eigenproblem
  Updating Kohn-Sham eigenvalues and eigenfunctions.
  Solving real generalised eigenvalue problem by standard LAPACK (fast)
  Determining occupation numbers for Kohn-Sham eigenstates.
  | Chemical potential (Fermi level) in eV                 : -.23030632E+01
  | Error in electron count due to remaining E_F inaccuracy: 0.00000000E+00
  | Maximum occupation number of highest empty state:  0.00E+00

  Highest occupied state (VBM) at     -5.46723853 eV
  | Occupation number:      2.00000000

  Lowest unoccupied state (CBM) at    -1.93164228 eV
  | Occupation number:      0.00000000

  Overall HOMO-LUMO gap:      3.53559626 eV.

  Total energy components:
  | Sum of eigenvalues            :        -207.70824454 Ha       -5652.02890590 eV
  | XC energy correction          :         -46.49205015 Ha       -1265.11305274 eV
  | XC potential correction       :          59.42761137 Ha        1617.10758284 eV
  | Free-atom electrostatic energy:        -179.26897584 Ha       -4878.15703058 eV
  | Hartree energy correction     :          -8.70741167 Ha        -236.94072707 eV
  | van der Waals energy corr.    :           0.00000000 Ha           0.00000000 eV
  | Entropy correction            :           0.00000000 Ha           0.00000000 eV
  | ---------------------------
  | Total energy                  :        -382.74907083 Ha      -10415.13213345 eV
  | Total energy, T -> 0          :        -382.74907083 Ha      -10415.13213345 eV  <-- do not rely on this value for anything but (periodic) metals
  | Electronic free energy        :        -382.74907083 Ha      -10415.13213345 eV

  Derived energy quantities:
  | Kinetic energy                :         381.29340117 Ha       10375.52134661 eV
  | Electrostatic energy          :        -717.55042186 Ha      -19525.54042732 eV
  | Energy correction for multipole
  | error in Hartree potential    :          -0.00868083 Ha          -0.23621734 eV
  | Sum of eigenvalues per atom                           :        -376.80192706 eV
  | Total energy (T->0) per atom                          :        -694.34214223 eV  <-- do not rely on this value for anything but (periodic) metals
  | Electronic free energy per atom                       :        -694.34214223 eV

  Self-consistency convergence accuracy:
  | Change of charge density      : 0.1315E+00
  | Change of sum of eigenvalues  : 0.4179E+02 eV
  | Change of total energy        : 0.2937E+00 eV

  End self-consistency iteration #     4       :  max(cpu_time)    wall_clock(cpu1)
  | Time for this iteration                    :        1.845 s           1.845 s
  | Charge density update                      :        0.613 s           0.612 s
  | Density mixing                             :        0.008 s           0.009 s
  | Hartree multipole update                   :        0.005 s           0.005 s
  | Hartree multipole summation                :        0.325 s           0.325 s
  | Integration                                :        0.838 s           0.839 s
  | Solution of K.-S. eqns.                    :        0.054 s           0.054 s
  | Total energy evaluation                    :        0.001 s           0.001 s
------------------------------------------------------------

------------------------------------------------------------
          Begin self-consistency iteration #    5

  Date     :  20150727, Time     :  123402.800
------------------------------------------------------------
  Evaluating new KS density.
  Integration grid: deviation in total charge (<rho> - N_e) =   2.131628E-14
  Pulay mixing of updated and previous charge densities.

  Evaluating partitioned Hartree potential by multipole expansion.
  | Analytical far-field extrapolation by fixed multipoles:
  | Hartree multipole sum: apparent total charge =  -0.369968E-05
  Summing up the Hartree potential.
  Time summed over all CPUs for potential: real work        2.561 s, elapsed        2.569 s
  | RMS charge density error from multipole expansion :   0.169231E-01

  Integrating Hamiltonian matrix: batch-based integration.
  Time summed over all CPUs for integration: real work        6.572 s, elapsed        6.685 s

  Updating Kohn-Sham eigenvalues, eigenvectors, occupation numbers, and Fermi level.
  Solving generalized eigenproblem
  Updating Kohn-Sham eigenvalues and eigenfunctions.
  Solving real generalised eigenvalue problem by standard LAPACK (fast)
  Determining occupation numbers for Kohn-Sham eigenstates.
  | Chemical potential (Fermi level) in eV                 : -.22945374E+01
  | Error in electron count due to remaining E_F inaccuracy: 0.00000000E+00
  | Maximum occupation number of highest empty state:  0.00E+00

  Highest occupied state (VBM) at     -5.26855625 eV
  | Occupation number:      2.00000000

  Lowest unoccupied state (CBM) at    -1.92176636 eV
  | Occupation number:      0.00000000

  Overall HOMO-LUMO gap:      3.34678989 eV.

  Total energy components:
  | Sum of eigenvalues            :        -207.60832198 Ha       -5649.30987477 eV
  | XC energy correction          :         -46.50783487 Ha       -1265.54257698 eV
  | XC potential correction       :          59.44776819 Ha        1617.65607780 eV
  | Free-atom electrostatic energy:        -179.26897584 Ha       -4878.15703058 eV
  | Hartree energy correction     :          -8.81153274 Ha        -239.77400552 eV
  | van der Waals energy corr.    :           0.00000000 Ha           0.00000000 eV
  | Entropy correction            :           0.00000000 Ha           0.00000000 eV
  | ---------------------------
  | Total energy                  :        -382.74889725 Ha      -10415.12741003 eV
  | Total energy, T -> 0          :        -382.74889725 Ha      -10415.12741003 eV  <-- do not rely on this value for anything but (periodic) metals
  | Electronic free energy        :        -382.74889725 Ha      -10415.12741003 eV

  Derived energy quantities:
  | Kinetic energy                :         381.34101326 Ha       10376.81693747 eV
  | Electrostatic energy          :        -717.58207564 Ha      -19526.40177053 eV
  | Energy correction for multipole
  | error in Hartree potential    :          -0.00891783 Ha          -0.24266646 eV
  | Sum of eigenvalues per atom                           :        -376.62065832 eV
  | Total energy (T->0) per atom                          :        -694.34182734 eV  <-- do not rely on this value for anything but (periodic) metals
  | Electronic free energy per atom                       :        -694.34182734 eV

  Self-consistency convergence accuracy:
  | Change of charge density      : 0.2806E-01
  | Change of sum of eigenvalues  : 0.2719E+01 eV
  | Change of total energy        : 0.4723E-02 eV

  End self-consistency iteration #     5       :  max(cpu_time)    wall_clock(cpu1)
  | Time for this iteration                    :        1.831 s           1.831 s
  | Charge density update                      :        0.602 s           0.602 s
  | Density mixing                             :        0.009 s           0.010 s
  | Hartree multipole update                   :        0.005 s           0.005 s
  | Hartree multipole summation                :        0.322 s           0.321 s
  | Integration                                :        0.838 s           0.837 s
  | Solution of K.-S. eqns.                    :        0.053 s           0.053 s
  | Total energy evaluation                    :        0.000 s           0.000 s
------------------------------------------------------------

------------------------------------------------------------
          Begin self-consistency iteration #    6

  Date     :  20150727, Time     :  123404.631
------------------------------------------------------------
  Evaluating new KS density.
  Integration grid: deviation in total charge (<rho> - N_e) =  -1.421085E-14
  Pulay mixing of updated and previous charge densities.

  Evaluating partitioned Hartree potential by multipole expansion.
  | Analytical far-field extrapolation by fixed multipoles:
  | Hartree multipole sum: apparent total charge =  -0.366229E-05
  Summing up the Hartree potential.
  Time summed over all CPUs for potential: real work        2.561 s, elapsed        2.569 s
  | RMS charge density error from multipole expansion :   0.172077E-01

  Integrating Hamiltonian matrix: batch-based integration.
  Time summed over all CPUs for integration: real work        6.567 s, elapsed        6.709 s

  Updating Kohn-Sham eigenvalues, eigenvectors, occupation numbers, and Fermi level.
  Solving generalized eigenproblem
  Updating Kohn-Sham eigenvalues and eigenfunctions.
  Solving real generalised eigenvalue problem by standard LAPACK (fast)
  Determining occupation numbers for Kohn-Sham eigenstates.
  | Chemical potential (Fermi level) in eV                 : -.22803008E+01
  | Error in electron count due to remaining E_F inaccuracy: 0.00000000E+00
  | Maximum occupation number of highest empty state:  0.00E+00

  Highest occupied state (VBM) at     -5.22296367 eV
  | Occupation number:      2.00000000

  Lowest unoccupied state (CBM) at    -1.91466091 eV
  | Occupation number:      0.00000000

  Overall HOMO-LUMO gap:      3.30830276 eV.

  Total energy components:
  | Sum of eigenvalues            :        -207.54599636 Ha       -5647.61390842 eV
  | XC energy correction          :         -46.51670380 Ha       -1265.78391282 eV
  | XC potential correction       :          59.45916916 Ha        1617.96631417 eV
  | Free-atom electrostatic energy:        -179.26897584 Ha       -4878.15703058 eV
  | Hartree energy correction     :          -8.87647957 Ha        -241.54129852 eV
  | van der Waals energy corr.    :           0.00000000 Ha           0.00000000 eV
  | Entropy correction            :           0.00000000 Ha           0.00000000 eV
  | ---------------------------
  | Total energy                  :        -382.74898641 Ha      -10415.12983616 eV
  | Total energy, T -> 0          :        -382.74898641 Ha      -10415.12983616 eV  <-- do not rely on this value for anything but (periodic) metals
  | Electronic free energy        :        -382.74898641 Ha      -10415.12983616 eV

  Derived energy quantities:
  | Kinetic energy                :         381.34962469 Ha       10377.05126650 eV
  | Electrostatic energy          :        -717.58190730 Ha      -19526.39718984 eV
  | Energy correction for multipole
  | error in Hartree potential    :          -0.00905754 Ha          -0.24646823 eV
  | Sum of eigenvalues per atom                           :        -376.50759389 eV
  | Total energy (T->0) per atom                          :        -694.34198908 eV  <-- do not rely on this value for anything but (periodic) metals
  | Electronic free energy per atom                       :        -694.34198908 eV

  Self-consistency convergence accuracy:
  | Change of charge density      : 0.1033E-01
  | Change of sum of eigenvalues  : 0.1696E+01 eV
  | Change of total energy        : -.2426E-02 eV

  End self-consistency iteration #     6       :  max(cpu_time)    wall_clock(cpu1)
  | Time for this iteration                    :        1.836 s           1.835 s
  | Charge density update                      :        0.603 s           0.602 s
  | Density mixing                             :        0.011 s           0.011 s
  | Hartree multipole update                   :        0.005 s           0.005 s
  | Hartree multipole summation                :        0.322 s           0.322 s
  | Integration                                :        0.840 s           0.840 s
  | Solution of K.-S. eqns.                    :        0.054 s           0.054 s
  | Total energy evaluation                    :        0.001 s           0.001 s
------------------------------------------------------------

------------------------------------------------------------
          Begin self-consistency iteration #    7

  Date     :  20150727, Time     :  123406.467
------------------------------------------------------------
  Evaluating new KS density.
  Integration grid: deviation in total charge (<rho> - N_e) =   2.842171E-14
  Pulay mixing of updated and previous charge densities.

  Evaluating partitioned Hartree potential by multipole expansion.
  | Analytical far-field extrapolation by fixed multipoles:
  | Hartree multipole sum: apparent total charge =  -0.343922E-05
  Summing up the Hartree potential.
  Time summed over all CPUs for potential: real work        2.561 s, elapsed        2.569 s
  | RMS charge density error from multipole expansion :   0.171449E-01

  Integrating Hamiltonian matrix: batch-based integration.
  Time summed over all CPUs for integration: real work        6.567 s, elapsed        6.734 s

  Updating Kohn-Sham eigenvalues, eigenvectors, occupation numbers, and Fermi level.
  Solving generalized eigenproblem
  Updating Kohn-Sham eigenvalues and eigenfunctions.
  Solving real generalised eigenvalue problem by standard LAPACK (fast)
  Determining occupation numbers for Kohn-Sham eigenstates.
  | Chemical potential (Fermi level) in eV                 : -.23233801E+01
  | Error in electron count due to remaining E_F inaccuracy: 0.00000000E+00
  | Maximum occupation number of highest empty state:  0.00E+00

  Highest occupied state (VBM) at     -5.36759506 eV
  | Occupation number:      2.00000000

  Lowest unoccupied state (CBM) at    -1.92456685 eV
  | Occupation number:      0.00000000

  Overall HOMO-LUMO gap:      3.44302820 eV.

  Total energy components:
  | Sum of eigenvalues            :        -207.70435114 Ha       -5651.92296124 eV
  | XC energy correction          :         -46.49931596 Ha       -1265.31076554 eV
  | XC potential correction       :          59.43588150 Ha        1617.33262456 eV
  | Free-atom electrostatic energy:        -179.26897584 Ha       -4878.15703058 eV
  | Hartree energy correction     :          -8.71208533 Ha        -237.06790382 eV
  | van der Waals energy corr.    :           0.00000000 Ha           0.00000000 eV
  | Entropy correction            :           0.00000000 Ha           0.00000000 eV
  | ---------------------------
  | Total energy                  :        -382.74884678 Ha      -10415.12603661 eV
  | Total energy, T -> 0          :        -382.74884678 Ha      -10415.12603661 eV  <-- do not rely on this value for anything but (periodic) metals
  | Electronic free energy        :        -382.74884678 Ha      -10415.12603661 eV

  Derived energy quantities:
  | Kinetic energy                :         381.39874681 Ha       10378.38794729 eV
  | Electrostatic energy          :        -717.64827763 Ha      -19528.20321836 eV
  | Energy correction for multipole
  | error in Hartree potential    :          -0.00887675 Ha          -0.24154871 eV
  | Sum of eigenvalues per atom                           :        -376.79486408 eV
  | Total energy (T->0) per atom                          :        -694.34173577 eV  <-- do not rely on this value for anything but (periodic) metals
  | Electronic free energy per atom                       :        -694.34173577 eV

  Self-consistency convergence accuracy:
  | Change of charge density      : 0.1166E-01
  | Change of sum of eigenvalues  : -.4309E+01 eV
  | Change of total energy        : 0.3800E-02 eV

  End self-consistency iteration #     7       :  max(cpu_time)    wall_clock(cpu1)
  | Time for this iteration                    :        1.842 s           1.841 s
  | Charge density update                      :        0.604 s           0.603 s
  | Density mixing                             :        0.012 s           0.012 s
  | Hartree multipole update                   :        0.005 s           0.005 s
  | Hartree multipole summation                :        0.322 s           0.322 s
  | Integration                                :        0.844 s           0.843 s
  | Solution of K.-S. eqns.                    :        0.054 s           0.053 s
  | Total energy evaluation                    :        0.000 s           0.001 s
------------------------------------------------------------

------------------------------------------------------------
          Begin self-consistency iteration #    8

  Date     :  20150727, Time     :  123408.308
------------------------------------------------------------
  Evaluating new KS density.
  Integration grid: deviation in total charge (<rho> - N_e) =   2.131628E-14
  Pulay mixing of updated and previous charge densities.

  Evaluating partitioned Hartree potential by multipole expansion.
  | Analytical far-field extrapolation by fixed multipoles:
  | Hartree multipole sum: apparent total charge =  -0.343221E-05
  Summing up the Hartree potential.
  Time summed over all CPUs for potential: real work        2.561 s, elapsed        2.569 s
  | RMS charge density error from multipole expansion :   0.171822E-01

  Integrating Hamiltonian matrix: batch-based integration.
  Time summed over all CPUs for integration: real work        6.568 s, elapsed        6.705 s

  Updating Kohn-Sham eigenvalues, eigenvectors, occupation numbers, and Fermi level.
  Solving generalized eigenproblem
  Updating Kohn-Sham eigenvalues and eigenfunctions.
  Solving real generalised eigenvalue problem by standard LAPACK (fast)
  Determining occupation numbers for Kohn-Sham eigenstates.
  | Chemical potential (Fermi level) in eV                 : -.23213453E+01
  | Error in electron count due to remaining E_F inaccuracy: 0.00000000E+00
  | Maximum occupation number of highest empty state:  0.00E+00

  Highest occupied state (VBM) at     -5.35324421 eV
  | Occupation number:      2.00000000

  Lowest unoccupied state (CBM) at    -1.92506969 eV
  | Occupation number:      0.00000000

  Overall HOMO-LUMO gap:      3.42817453 eV.

  Total energy components:
  | Sum of eigenvalues            :        -207.69538712 Ha       -5651.67903791 eV
  | XC energy correction          :         -46.50045588 Ha       -1265.34178426 eV
  | XC potential correction       :          59.43734553 Ha        1617.37246291 eV
  | Free-atom electrostatic energy:        -179.26897584 Ha       -4878.15703058 eV
  | Hartree energy correction     :          -8.72137302 Ha        -237.32063468 eV
  | van der Waals energy corr.    :           0.00000000 Ha           0.00000000 eV
  | Entropy correction            :           0.00000000 Ha           0.00000000 eV
  | ---------------------------
  | Total energy                  :        -382.74884633 Ha      -10415.12602452 eV
  | Total energy, T -> 0          :        -382.74884633 Ha      -10415.12602452 eV  <-- do not rely on this value for anything but (periodic) metals
  | Electronic free energy        :        -382.74884633 Ha      -10415.12602452 eV

  Derived energy quantities:
  | Kinetic energy                :         381.40119583 Ha       10378.45458846 eV
  | Electrostatic energy          :        -717.64958629 Ha      -19528.23882872 eV
  | Energy correction for multipole
  | error in Hartree potential    :          -0.00890237 Ha          -0.24224591 eV
  | Sum of eigenvalues per atom                           :        -376.77860253 eV
  | Total energy (T->0) per atom                          :        -694.34173497 eV  <-- do not rely on this value for anything but (periodic) metals
  | Electronic free energy per atom                       :        -694.34173497 eV

  Self-consistency convergence accuracy:
  | Change of charge density      : 0.1803E-02
  | Change of sum of eigenvalues  : 0.2439E+00 eV
  | Change of total energy        : 0.1210E-04 eV

  End self-consistency iteration #     8       :  max(cpu_time)    wall_clock(cpu1)
  | Time for this iteration                    :        1.839 s           1.839 s
  | Charge density update                      :        0.603 s           0.603 s
  | Density mixing                             :        0.014 s           0.014 s
  | Hartree multipole update                   :        0.005 s           0.005 s
  | Hartree multipole summation                :        0.322 s           0.322 s
  | Integration                                :        0.840 s           0.839 s
  | Solution of K.-S. eqns.                    :        0.054 s           0.054 s
  | Total energy evaluation                    :        0.000 s           0.001 s
------------------------------------------------------------

------------------------------------------------------------
          Begin self-consistency iteration #    9

  Date     :  20150727, Time     :  123410.147
------------------------------------------------------------
  Evaluating new KS density.
  Integration grid: deviation in total charge (<rho> - N_e) =  -7.105427E-15
  Pulay mixing of updated and previous charge densities.

  Evaluating partitioned Hartree potential by multipole expansion.
  | Analytical far-field extrapolation by fixed multipoles:
  | Hartree multipole sum: apparent total charge =  -0.342545E-05
  Summing up the Hartree potential.
  Time summed over all CPUs for potential: real work        2.562 s, elapsed        2.570 s
  | RMS charge density error from multipole expansion :   0.171852E-01

  Integrating Hamiltonian matrix: batch-based integration.
  Time summed over all CPUs for integration: real work        6.570 s, elapsed        6.701 s

  Updating Kohn-Sham eigenvalues, eigenvectors, occupation numbers, and Fermi level.
  Solving generalized eigenproblem
  Updating Kohn-Sham eigenvalues and eigenfunctions.
  Solving real generalised eigenvalue problem by standard LAPACK (fast)
  Determining occupation numbers for Kohn-Sham eigenstates.
  | Chemical potential (Fermi level) in eV                 : -.23214019E+01
  | Error in electron count due to remaining E_F inaccuracy: 0.00000000E+00
  | Maximum occupation number of highest empty state:  0.00E+00

  Highest occupied state (VBM) at     -5.35729291 eV
  | Occupation number:      2.00000000

  Lowest unoccupied state (CBM) at    -1.92544008 eV
  | Occupation number:      0.00000000

  Overall HOMO-LUMO gap:      3.43185283 eV.

  Total energy components:
  | Sum of eigenvalues            :        -207.69587657 Ha       -5651.69235628 eV
  | XC energy correction          :         -46.50037083 Ha       -1265.33947013 eV
  | XC potential correction       :          59.43721797 Ha        1617.36899169 eV
  | Free-atom electrostatic energy:        -179.26897584 Ha       -4878.15703058 eV
  | Hartree energy correction     :          -8.72084042 Ha        -237.30614175 eV
  | van der Waals energy corr.    :           0.00000000 Ha           0.00000000 eV
  | Entropy correction            :           0.00000000 Ha           0.00000000 eV
  | ---------------------------
  | Total energy                  :        -382.74884569 Ha      -10415.12600705 eV
  | Total energy, T -> 0          :        -382.74884569 Ha      -10415.12600705 eV  <-- do not rely on this value for anything but (periodic) metals
  | Electronic free energy        :        -382.74884569 Ha      -10415.12600705 eV

  Derived energy quantities:
  | Kinetic energy                :         381.40485444 Ha       10378.55414436 eV
  | Electrostatic energy          :        -717.65332930 Ha      -19528.34068127 eV
  | Energy correction for multipole
[...]
   ----------------------------------------------------------------
   Total forces(   4)            : 0.284575E+01 0.378331E+00 0.148113E+01
  atom #    5
   Hellmann-Feynman + Multipole  : -.210012E+00 -.108372E+01 -.113822E+01
   Pulay + GGA                   : 0.420517E-01 0.101534E+00 0.859333E-01
   Van der Waals               : -.152113E-02 0.382964E-02 0.256108E-02
   ----------------------------------------------------------------
   Total forces(   5)            : -.169481E+00 -.978361E+00 -.104972E+01
  atom #    6
   Hellmann-Feynman + Multipole  : -.166092E+01 0.103088E+01 -.307054E+00
   Pulay + GGA                   : 0.125749E+00 -.551407E-01 0.174889E-01
   Van der Waals               : -.170414E-02 0.500596E-03 0.177438E-03
   ----------------------------------------------------------------
   Total forces(   6)            : -.153688E+01 0.976237E+00 -.289388E+00
  atom #    7
   Hellmann-Feynman + Multipole  : 0.532133E+01 -.787258E+01 -.100929E+02
   Pulay + GGA                   : -.566521E+01 0.863528E+01 0.121254E+02
   Van der Waals               : 0.363101E-02 -.172898E-02 -.918652E-02
   ----------------------------------------------------------------
   Total forces(   7)            : -.340245E+00 0.760970E+00 0.202330E+01
  atom #    8
   Hellmann-Feynman + Multipole  : -.379394E+00 0.209349E+00 -.238001E+01
   Pulay + GGA                   : 0.230156E-01 0.173186E-01 0.133092E+00
   Van der Waals               : -.932742E-03 0.151324E-02 -.279967E-02
   ----------------------------------------------------------------
   Total forces(   8)            : -.357311E+00 0.228181E+00 -.224972E+01
  atom #    9
   Hellmann-Feynman + Multipole  : 0.121850E+01 -.141678E+01 0.386267E+00
   Pulay + GGA                   : -.427779E-01 0.766412E-01 0.594563E-02
   Van der Waals               : 0.218422E-02 -.646724E-03 -.415073E-02
   ----------------------------------------------------------------
   Total forces(   9)            : 0.117791E+01 -.134078E+01 0.388061E+00
  atom #   10
   Hellmann-Feynman + Multipole  : -.127159E+02 -.537657E+01 -.154552E+01
   Pulay + GGA                   : 0.139301E+02 0.683760E+01 0.958889E+00
   Van der Waals               : 0.309242E-02 -.100357E-01 0.148995E-02
   ----------------------------------------------------------------
   Total forces(  10)            : 0.121726E+01 0.145099E+01 -.585146E+00
  atom #   11
   Hellmann-Feynman + Multipole  : -.608692E+00 0.208046E-01 -.768505E-01
   Pulay + GGA                   : 0.131096E+00 -.560741E-01 0.198520E-01
   Van der Waals               : 0.202067E-03 -.758998E-02 0.693812E-03
   ----------------------------------------------------------------
   Total forces(  11)            : -.477394E+00 -.428596E-01 -.563046E-01
  atom #   12
   Hellmann-Feynman + Multipole  : -.762534E+00 -.146783E+01 0.698752E+00
   Pulay + GGA                   : 0.462407E-01 0.100850E+00 -.694429E-01
   Van der Waals               : 0.571986E-03 -.147944E-02 0.846107E-04
   ----------------------------------------------------------------
   Total forces(  12)            : -.715721E+00 -.136846E+01 0.629393E+00
  atom #   13
   Hellmann-Feynman + Multipole  : -.152062E+01 -.128905E+02 -.401309E+00
   Pulay + GGA                   : 0.207370E+01 0.134942E+02 -.110936E+01
   Van der Waals               : -.182050E-02 -.412893E-03 0.572941E-03
   ----------------------------------------------------------------
   Total forces(  13)            : 0.551254E+00 0.603276E+00 -.151009E+01
  atom #   14
   Hellmann-Feynman + Multipole  : -.280499E+00 0.424233E+00 0.341192E+00
   Pulay + GGA                   : -.798762E-01 0.896708E-01 0.697015E-01
   Van der Waals               : 0.372868E-02 -.176256E-02 -.240238E-02
   ----------------------------------------------------------------
   Total forces(  14)            : -.356647E+00 0.512141E+00 0.408491E+00
  atom #   15
   Hellmann-Feynman + Multipole  : -.682407E+00 -.828535E+00 0.989202E+00
   Pulay + GGA                   : 0.280207E-01 0.732962E-01 -.665960E-01
   Van der Waals               : -.349414E-02 0.284701E-03 0.574858E-03
   ----------------------------------------------------------------
   Total forces(  15)            : -.657881E+00 -.754954E+00 0.923181E+00
  Timings for vdw_correction_hirshfeld (Tkatchenko-Scheffler 2009):
  | CPU time:        5.001 s, Wall clock time:        5.004 s.
  Removing unitary transformations (pure translations, rotations) from forces on atoms.
  Atomic forces before filtering:
  | Net force on center of mass :  0.715197E-02 0.546816E-02 0.489427E-02 eV/A
  | Net torque on center of mass:  -.209463E-01 0.972445E-02 -.803150E-02 eV
  Atomic forces after filtering:
  | Net force on center of mass :  0.178406E-15 0.115964E-14 0.178406E-15 eV/A
  | Net torque on center of mass:  -.103849E-14 -.415397E-14 0.490924E-14 eV
 
  Energy and forces in a compact form:
  | Total energy uncorrected      :         -0.104151851510661E+05 eV
  | Total energy corrected        :         -0.104151851510661E+05 eV  <-- do not rely on this value for anything but (periodic) metals
  | Electronic free energy        :         -0.104151851510661E+05 eV
  Total atomic forces (unitary forces cleaned) [eV/Ang]:
  |   1         -0.159962913522227E+01          0.340896858776055E+01         -0.143498180309980E+01
  |   2          0.217241511925603E+01         -0.353838087843550E+01          0.154914037947373E+01
  |   3         -0.174660632555105E+01         -0.289392673586926E+00         -0.225397110197273E+00
  |   4          0.284560375127670E+01          0.378418727584957E+00          0.148079125584733E+01
  |   5         -0.169801429659605E+00         -0.978518420958021E+00         -0.104984804035354E+01
  |   6         -0.153705854375995E+01          0.976279376441533E+00         -0.289725519754349E+00
  |   7         -0.341223756535829E+00          0.759922956898302E+00          0.202282474010857E+01
  |   8         -0.358520800846118E+00          0.226816358370847E+00         -0.225018499169598E+01
  |   9          0.117696666372480E+01         -0.134177758996817E+01          0.387647380333255E+00
  |  10          0.121700182336730E+01          0.145091291573389E+01         -0.584979749798546E+00
  |  11         -0.477729214242869E+00         -0.430505111663095E-01         -0.560660894202627E-01
  |  12         -0.715875346274224E+00         -0.136840836231609E+01          0.629902105680447E+00
  |  13          0.550471731709684E+00          0.602493755586091E+00         -0.151044813913895E+01
  |  14         -0.357531153306915E+00          0.511215107464132E+00          0.408245551787195E+00
  |  15         -0.658483383935667E+00         -0.755499349409279E+00          0.923080030228168E+00
 
  ------------------------------------ 
  Start decomposition of the XC Energy 
  ------------------------------------ 
  Hartree-Fock part   :          0.000000000 Ha              0.000000000 eV
  ------------------------------------ 
  X Energy            :        -44.869820246 Ha          -1220.969931154 eV
  C Energy GGA        :         -1.630439791 Ha            -44.366524070 eV
  Total XC Energy     :        -46.500260037 Ha          -1265.336455224 eV
  LDA X and C from self-consistent density 
  X Energy LDA        :        -40.423582688 Ha          -1099.981651404 eV
  C Energy LDA        :         -3.294418334 Ha            -89.645684004 eV
  ------------------------------------ 
  End decomposition of the XC Energy 
  ------------------------------------ 
  Performing Hirshfeld analysis of fragment charges and moments.
  ----------------------------------------------------------------------
  | Atom     1: O
  |   Hirshfeld charge        :     -0.35129678
  |   Free atom volume        :     23.95238533
  |   Hirshfeld volume        :     23.97338461
  |   Hirshfeld dipole vector :      0.03927073       0.05570895      -0.00720984
  |   Hirshfeld dipole moment :      0.06853947
  |   Hirshfeld second moments:      0.00432088      -0.03548123       0.02773652
  |                                 -0.03548123      -0.03749219      -0.02895671
  |                                  0.02773652      -0.02895671      -0.09399783
  ----------------------------------------------------------------------
  | Atom     2: H
  |   Hirshfeld charge        :      0.11838039
  |   Free atom volume        :     10.44207651
  |   Hirshfeld volume        :      7.59917245
  |   Hirshfeld dipole vector :     -0.05949481       0.09008697      -0.03843591
  |   Hirshfeld dipole moment :      0.11459761
  |   Hirshfeld second moments:      0.10814888       0.00227666       0.00624277
  |                                  0.00227666       0.06563690      -0.00287132
  |                                  0.00624277      -0.00287132       0.07547021
  ----------------------------------------------------------------------
  | Atom     3: H
  |   Hirshfeld charge        :      0.05978949
  |   Free atom volume        :     10.44207651
  |   Hirshfeld volume        :      8.47606481
  |   Hirshfeld dipole vector :      0.04869474       0.00673201       0.00848114
  |   Hirshfeld dipole moment :      0.04988414
  |   Hirshfeld second moments:      0.02255314      -0.02939697       0.00480399
  |                                 -0.02939697       0.07811223      -0.00574000
  |                                  0.00480399      -0.00574000       0.05692082
  ----------------------------------------------------------------------
  | Atom     4: O
  |   Hirshfeld charge        :     -0.18264101
  |   Free atom volume        :     23.95238533
  |   Hirshfeld volume        :     20.41388313
  |   Hirshfeld dipole vector :     -0.01695757      -0.02840597       0.03084980
  |   Hirshfeld dipole moment :      0.04523459
  |   Hirshfeld second moments:      0.07417741      -0.02640139       0.00741948
  |                                 -0.02640139       0.08176010       0.03780798
  |                                  0.00741948       0.03780798       0.04983007
  ----------------------------------------------------------------------
  | Atom     5: H
  |   Hirshfeld charge        :      0.16789665
  |   Free atom volume        :     10.44207651
  |   Hirshfeld volume        :      6.36117631
  |   Hirshfeld dipole vector :      0.00717630       0.06882634       0.08614621
  |   Hirshfeld dipole moment :      0.11049766
  |   Hirshfeld second moments:      0.12657026      -0.00765162       0.01198162
  |                                 -0.00765162       0.12608676      -0.00250911
  |                                  0.01198162      -0.00250911       0.09930237
  ----------------------------------------------------------------------
  | Atom     6: H
  |   Hirshfeld charge        :      0.17752537
  |   Free atom volume        :     10.44207651
  |   Hirshfeld volume        :      5.63606012
  |   Hirshfeld dipole vector :      0.09177546      -0.07919049       0.01299530
  |   Hirshfeld dipole moment :      0.12191287
  |   Hirshfeld second moments:      0.12793768       0.00262100       0.00087308
  |                                  0.00262100       0.13316669       0.01509035
  |                                  0.00087308       0.01509035       0.13523632
  ----------------------------------------------------------------------
  | Atom     7: O
  |   Hirshfeld charge        :     -0.34684359
  |   Free atom volume        :     23.95238533
  |   Hirshfeld volume        :     23.24570909
  |   Hirshfeld dipole vector :     -0.04368452       0.02921750       0.03698057
  |   Hirshfeld dipole moment :      0.06426167
  |   Hirshfeld second moments:     -0.04758746      -0.04128161       0.02375352
  |                                 -0.04128161      -0.05224378      -0.02488922
  |                                  0.02375352      -0.02488922       0.02435113
  ----------------------------------------------------------------------
  | Atom     8: H
  |   Hirshfeld charge        :      0.11798686
  |   Free atom volume        :     10.44207651
  |   Hirshfeld volume        :      6.93943942
  |   Hirshfeld dipole vector :      0.01240493      -0.01280444       0.12224448
  |   Hirshfeld dipole moment :      0.12353764
  |   Hirshfeld second moments:      0.09673425      -0.01875154       0.00569651
  |                                 -0.01875154       0.09471829      -0.00503377
  |                                  0.00569651      -0.00503377       0.09575153
  ----------------------------------------------------------------------
  | Atom     9: H
  |   Hirshfeld charge        :      0.07222528
  |   Free atom volume        :     10.44207651
  |   Hirshfeld volume        :      8.21331069
  |   Hirshfeld dipole vector :     -0.03534576       0.03192837       0.00409377
  |   Hirshfeld dipole moment :      0.04780693
  |   Hirshfeld second moments:      0.03958089       0.01850394      -0.01652139
  |                                  0.01850394       0.03981715       0.00903040
  |                                 -0.01652139       0.00903040       0.09431021
  ----------------------------------------------------------------------
  | Atom    10: O
  |   Hirshfeld charge        :     -0.21556060
  |   Free atom volume        :     23.95238533
  |   Hirshfeld volume        :     20.40667985
  |   Hirshfeld dipole vector :      0.01525527       0.00832712       0.02272378
  |   Hirshfeld dipole moment :      0.02860830
  |   Hirshfeld second moments:      0.06905754      -0.01345914      -0.00227437
  |                                 -0.01345914       0.07913271      -0.04156393
  |                                 -0.00227437      -0.04156393       0.03968895
  ----------------------------------------------------------------------
  | Atom    11: H
  |   Hirshfeld charge        :      0.16083115
  |   Free atom volume        :     10.44207651
  |   Hirshfeld volume        :      6.39509556
  |   Hirshfeld dipole vector :      0.09476978      -0.04233354       0.03580007
  |   Hirshfeld dipole moment :      0.10979565
  |   Hirshfeld second moments:      0.11998633       0.00890810      -0.00698051
  |                                  0.00890810       0.12304263      -0.00315179
  |                                 -0.00698051      -0.00315179       0.10442725
  ----------------------------------------------------------------------
  | Atom    12: H
  |   Hirshfeld charge        :      0.16756479
  |   Free atom volume        :     10.44207651
  |   Hirshfeld volume        :      5.60201319
  |   Hirshfeld dipole vector :      0.03424311       0.10446558      -0.05135095
  |   Hirshfeld dipole moment :      0.12133659
  |   Hirshfeld second moments:      0.14158765      -0.01004578       0.00404428
  |                                 -0.01004578       0.12499193      -0.00689933
  |                                  0.00404428      -0.00689933       0.12485360
  ----------------------------------------------------------------------
  | Atom    13: O
  |   Hirshfeld charge        :     -0.21877662
  |   Free atom volume        :     23.95238533
  |   Hirshfeld volume        :     20.74946949
  |   Hirshfeld dipole vector :      0.02310382       0.01304536       0.01331541
  |   Hirshfeld dipole moment :      0.02968615
  |   Hirshfeld second moments:      0.04248901      -0.02723318      -0.03455077
  |                                 -0.02723318       0.05945974      -0.00272222
  |                                 -0.03455077      -0.00272222       0.07235079
  ----------------------------------------------------------------------
  | Atom    14: H
  |   Hirshfeld charge        :      0.15508652
  |   Free atom volume        :     10.44207651
  |   Hirshfeld volume        :      5.87354529
  |   Hirshfeld dipole vector :     -0.05954842       0.08229693       0.06633255
  |   Hirshfeld dipole moment :      0.12132109
  |   Hirshfeld second moments:      0.12020685      -0.00149350      -0.00887580
  |                                 -0.00149350       0.12361455      -0.01123210
  |                                 -0.00887580      -0.01123210       0.13043779
  ----------------------------------------------------------------------
  | Atom    15: H
  |   Hirshfeld charge        :      0.11775776
  |   Free atom volume        :     10.44207651
  |   Hirshfeld volume        :      7.31023925
  |   Hirshfeld dipole vector :      0.01841565       0.03824845      -0.03550268
  |   Hirshfeld dipole moment :      0.05534004
  |   Hirshfeld second moments:      0.08019213      -0.01839764       0.01986344
  |                                 -0.01839764       0.10858743       0.01215144
  |                                  0.01986344       0.01215144       0.06394280
  ----------------------------------------------------------------------


------------------------------------------------------------------------------
  Final output of selected total energy values:

  The following output summarizes some interesting total energy values
  at the end of a run (AFTER all relaxation, molecular dynamics, etc.).

  | Total energy of the DFT / Hartree-Fock s.c.f. calculation      :         -10415.185151066 eV
  | Final zero-broadening corrected energy (caution - metals only) :         -10415.185151066 eV
  | For reference only, the value of 1 Hartree used in FHI-aims is :             27.211384500 eV

  Before relying on these values, please be sure to understand exactly which
  total energy value is referred to by a given number. Different objects may
  all carry the same name 'total energy'. Definitions:

  Total energy of the DFT / Hartree-Fock s.c.f. calculation:
  | Note that this energy does not include ANY quantities calculated after the
  | s.c.f. cycle, in particular not ANY RPA, MP2, etc. many-body perturbation terms.

  Final zero-broadening corrected energy:
  | For metallic systems only, a broadening of the occupation numbers at the Fermi
  | level can be extrapolated back to zero broadening by an electron-gas inspired
  | formula. For all systems that are not real metals, this value can be
  | meaningless and should be avoided.

------------------------------------------------------------------------------

------------------------------------------------------------
          Leaving FHI-aims.
          Date     :  20150727, Time     :  123428.728

          Computational steps:
          | Number of self-consistency cycles          :           16

          Detailed time accounting                     :  max(cpu_time)    wall_clock(cpu1)
          | Total time                                 :       35.653 s          35.686 s
          | Preparation time                           :        0.170 s           0.498 s
          | Grid partitioning                          :        0.159 s           0.159 s
          | Preloading free-atom quantities on grid    :        0.014 s           0.013 s
          | Free-atom superposition energy             :        0.066 s           0.066 s
          | Total time for integrations                :       14.746 s          14.744 s
          | Total time for solution of K.-S. equations :        1.057 s           1.056 s
          | Total time for density & force components  :       12.259 s          12.255 s
          | Total time for mixing                      :        0.210 s           0.210 s
          | Total time for Hartree multipole update    :        0.080 s           0.081 s
          | Total time for Hartree multipole sum       :        6.230 s           6.229 s
          | Total time for total energy evaluation     :        0.005 s           0.022 s
          | Total time for scaled ZORA corrections     :        0.000 s           0.000 s
          | Total time for TS (2009) vdW correction    :        0.056 s           0.059 s

          Have a nice day.
------------------------------------------------------------
