  MPI-parallelism will be employed.
------------------------------------------------------------
          Invoking FHI-aims ...
          Version 081213
          Compiled on 2013/08/29 at 17:41:06 on host generoso.

          When using FHI-aims, please cite the following reference:

          Volker Blum, Ralf Gehrke, Felix Hanke, Paula Havu,
          Ville Havu, Xinguo Ren, Karsten Reuter, and Matthias Scheffler,
          'Ab Initio Molecular Simulations with Numeric Atom-Centered Orbitals: FHI-aims',
          Computer Physics Communications 180, 2175-2196 (2009)

          For any questions about FHI-aims, please visit the aimsclub website
          with its forums and wiki. Contributions to both the forums and the
          wiki are warmly encouraged - they are for you, and everyone is welcome there.

------------------------------------------------------------

  Date     :  20150727, Time     :  120021.437
  Time zero on CPU 1             :   0.399930000000000E-01  s.
  Internal wall clock time zero  :           207230421.437  s.

  Using        8 parallel tasks.
  Task        0 on host gen60 reporting.
  Task        1 on host gen60 reporting.
  Task        2 on host gen60 reporting.
  Task        3 on host gen60 reporting.
  Task        4 on host gen60 reporting.
  Task        5 on host gen60 reporting.
  Task        6 on host gen60 reporting.
  Task        7 on host gen60 reporting.

  Performing system and environment tests:
  | Environment variable OMP_NUM_THREADS correctly set to 1.
  | Checking for scalapack...
  | No scalapack compiled in.

  Obtaining array dimensions for all initial allocations:
  
  -----------------------------------------------------------------------
  Parsing control.in (first pass over file, find array dimensions only).
  The contents of control.in will be repeated verbatim below
  unless switched off by setting 'verbatim_writeout .false.' .
  in the first line of control.in .
  -----------------------------------------------------------------------
  
  #########################################################################################
  #
  #  Volker Blum, FHI 2008 : Test run input file control.in
  #
  #########################################################################################
  #
  #  Physical model
  #
    xc                 rpbe
    spin               none
    relativistic       atomic_zora scalar
    charge             0.
   vdw_correction_hirshfeld
  #
  #  SCF convergence
  #
    occupation_type    gaussian 0.01
    mixer              pulay
      n_max_pulay        10
      charge_mix_param   0.1
    sc_accuracy_rho    5E-5
    sc_accuracy_eev    5E-3
    sc_accuracy_etot   5E-6
    sc_iter_limit      3000
  #
  #  Eigenvalue solver
  #
    KS_method          lapack
      empty_states       8
      basis_threshold    0.e-5
  #
  #  Efficiency
  #
  #   all previous settings are now default, except stratmann still
  #   undecided. Continue to handle stratmann with care, if at all.
  #
  #  partition_type stratmann
    partition_type rho_r2
  #  hartree_partition_type stratmann
  #
  #  Oprions for large clusters (100's of atoms: memory saving / better scaling)
  #
  # for periodic systems:
  #
    density_update_method orbital
    packed_matrix_format none
  #  k_grid 6 6 6
  #  output k_eigenvalue 1
  #  distributed_spline_storage .true.
  #
  #  Relaxation
  #
  #  relax_geometry   bfgs 5.e-3
    sc_accuracy_forces 5.E-4
    final_forces_cleaned .true.
  #
  #  Output options
  #
  #  output mulliken
    output Hirshfeld
  #  output dipole
  
  #harmonic_length_scale 0.001
  
  ################################################################################
  #
  #  FHI-aims code project
  #  VB, Fritz-Haber Institut, 2007
  #
  #  Suggested "safe" defaults for H atom (to be pasted into control.in file)
  #  Basis constructed for a non-relativistic H2 molecule using the
  #  PW-LDA functional.
  #
  ################################################################################
    species        H
  #     global species definitions
      nucleus             1
      cut_pot             4.0  2.0  1.0
      cut_free_atom       finite 8.0
      logarithmic         0.00010000 100.00  1.0123
      basis_dep_cutoff    1d-4  # 1d-4 is safe default - please check 5d-4 if you wish!
      radial_base         24 7.0
      radial_multiplier   2
      angular_grids       specified
        division   0.2783  110
        division   0.3822  194
        division   0.5626  302
  #      division   0.5922  434
  #      division   0.6227  590
  #      division   0.7206  770
        outer_grid  302
      l_hartree           4
  ################################################################################
  #
  #  Definition of "minimal" basis
  #
  ################################################################################
  #     valence basis states
      valence      1  s   1.
  #     ion occupancy
      ion_occ      1  s   0.5
  ################################################################################
  #
  #  Suggested additional basis functions. For production calculations,
  #  uncomment them one after another (the most important basis functions are
  #  listed first).
  #
  ################################################################################
  #  "First tier" - improvements: -1014.90 meV to -62.69 meV
       hydro 2 s 2.1
       hydro 2 p 3.5
  #  "Second tier" - improvements: -12.89 meV to -1.83 meV
       hydro 1 s 0.85
       hydro 2 p 3.7
       hydro 2 s 1.2
       hydro 3 d 7
  #  "Third tier" - improvements: -0.25 meV to -0.12 meV
  #     hydro 4 f 11.2
  #     hydro 3 p 4.8
  #     hydro 4 d 9
  #     hydro 3 s 3.2
  
  ################################################################################
  #
  #  FHI-aims code project
  #  VB, Fritz-Haber Institut, 2007
  #
  #  Suggested "safe" defaults for O atom (to be pasted into control.in file)
  #  All values have been tested for a non-relativistic, non-spinpolarized O2
  #  molecule using the PW-LDA functional. Validity for PBE is expected.
  #
  #  Constructed for dimers: 1.0 A, 1.208 A, 1.5 A, 2.0 A, 3.0 A
  #
  ################################################################################
    species        O
  #     global species definitions
      nucleus             8
      mass                15.9994
      l_hartree           4
      cut_pot             4.0  2.0  1.0
      cut_free_atom       finite 8.0
      basis_dep_cutoff    1d-4  # 1d-4 is safe default - please check 5d-4 if you wish!
      logarithmic         0.00010000 100.00  1.0123
      radial_base         36 7.0
      radial_multiplier   2
       angular_grids specified
        division   0.4087  110
        division   0.5181  194
        division   0.6184  302
  #      division   0.7315  434
  #      division   0.7934  590
  #      division   0.9656  770
  #      division   1.4041  974
  #      outer_grid 974
        outer_grid 302
  ################################################################################
  #
  #  Definition of "minimal" basis
  #
  ################################################################################
  #     valence basis states
      valence      2  s   2.
      valence      2  p   4.
  #     ion occupancy
      ion_occ      2  s   1.
      ion_occ      2  p   3.
  ################################################################################
  #
  #  Suggested additional basis functions. For production calculations,
  #  uncomment them one after another (the most important basis functions are
  #  listed first).
  #
  ################################################################################
  #  "First tier" - improvements: -699.05 meV to -159.38 meV
       hydro 2 p 1.8
       hydro 3 d 7.6
       hydro 3 s 6.4
  #  "Second tier" - improvements: -49.91 meV to -5.39 meV
       hydro 4 f 11.6
       hydro 3 p 6.2
       hydro 3 d 5.6
       hydro 5 g 17.6
       hydro 1 s 0.75
  #  "Third tier" - improvements: -2.83 meV to -0.50 meV
  #     ionic 2 p auto
  #     hydro 4 f 10.8
  #     hydro 4 d 4.7
  #     hydro 2 s 6.8
  #  "Fourth tier" - improvements: -0.40 meV to -0.12 meV
  #     hydro 3 p 5
  #     hydro 3 s 3.3
  #     hydro 5 g 15.6
  #     hydro 4 f 17.6
  #     hydro 4 d 14
  # Further basis functions - -0.08 meV and below
  #     hydro 3 s 2.1
  #     hydro 4 d 11.6
  #     hydro 3 p 16
  #     hydro 2 s 17.2
  
  
  -----------------------------------------------------------------------
  Completed first pass over input file control.in .
  -----------------------------------------------------------------------
  
  
  -----------------------------------------------------------------------
  Parsing geometry.in (first pass over file, find array dimensions only).
  The contents of geometry.in will be repeated verbatim below
  unless switched off by setting 'verbatim_writeout .false.' .
  in the first line of geometry.in .
  -----------------------------------------------------------------------
  
  atom      -4.053030000      0.065001000     -1.525160000  O
  atom      -4.566710000      0.974813000     -1.912820000  H
  atom      -3.067820000      0.330172000     -1.477310000  H
  atom      -4.581760000     -0.256435000      0.939478000  O
  atom      -4.349860000      0.471090000      1.504340000  H
  atom      -5.393870000     -0.726611000      1.228070000  H
  atom      -1.645860000      0.870179000     -1.502250000  O
  atom      -1.568890000      1.501730000     -0.721051000  H
  atom      -0.824432000      0.282220000     -1.377720000  H
  atom      -3.818880000      2.024990000      2.187990000  O
  atom      -3.690880000      1.961360000      3.202150000  H
  atom      -4.546490000      2.751300000      2.045370000  H
  atom      -4.066610000      4.258280000     -0.900064000  O
  atom      -3.224110000      3.876870000     -0.569443000  H
  atom      -3.737450000      5.116530000     -1.322720000  H
  atom      -5.628340000      3.730740000      1.385610000  O
  atom      -6.090650000      4.418470000      1.860350000  H
  atom      -5.158540000      4.200260000      0.615875000  H
  
  -----------------------------------------------------------------------
  Completed first pass over input file geometry.in .
  -----------------------------------------------------------------------
  
 
  Basic array size parameters: 
  | Number of species                 :        2
  | Number of atoms                   :       18
  | Max. basis fn. angular momentum   :        4
  | Max. atomic/ionic basis occupied n:        2
  | Max. number of basis fn. types    :        2
  | Max. radial fns per species/type  :        8
  | Max. logarithmic grid size        :     1301
  | Max. radial integration grid size :       73
  | Max. angular integration grid size:      302
  | Max. angular grid division number :        8
  | Radial grid for Hartree potential :     1301
  | Number of spin channels           :        1

------------------------------------------------------------
          Reading file control.in.
------------------------------------------------------------
  XC: Using RPBE gradient-corrected functionals.
  Spin treatment: No spin polarisation.
  Scalar relativistic treatment of kinetic energy: on-site free-atom approximation to ZORA.
  Charge =   0.000000E+00: Neutral system requested explicitly.
  Using non-empirical van der Waals correction (Hirshfeld partitioning):
  Occupation type: Gaussian broadening, width =   0.100000E-01 eV.
  Using pulay charge density mixing.
  Pulay mixing - number of memorized iterations:   10
  Charge density mixing - mixing parameter:     0.1000
  Convergence accuracy of self-consistent charge density: 0.5000E-04
  Convergence accuracy of sum of eigenvalues: 0.5000E-02
  Convergence accuracy of total energy: 0.5000E-05
  Maximum number of s.-c. iterations  :  3000
  Kohn-Sham eigenvalues and eigenfunctions calculated by lapack diagonalisation (D&C).
  Number of empty states per atom:        8
  Threshold for basis singularities: 0.0000E+00
  Partition function in integrals calculations: rho / r^2
 Using packed matrix format           0
  Convergence accuracy of forces: 0.5000E-03
  Cleaning forces before final output.
  Hirshfeld charge analysis will be performed.
 
  Reading configuration options for species H                   .
  | Found nuclear charge :   1.0000
  | Found cutoff potl. onset [A], width [A], scale factor :    4.00000    2.00000    1.00000
  | Found cutoff specification for free atom: Cutoff potential begins at    8.00000 A.
  | Found logarithmic grid data [bohr] : 0.1000E-03 0.1000E+03 0.1012E+01
  | Threshold for basis-dependent cutoff potential is   0.100000E-03
  | Found data for basic radial integration grid :    24 points, outermost radius =    7.000 A
  | Found multiplier for basic radial grid :   2
  | Found angular grid specification: user-specified.
  | Specified grid contains     4 separate shells.
  | Check grid settings after all constraints further below.
  | Found l_max for Hartree potential  :   4
  | Found free-atom valence shell :  1 s   1.000
  | No ionic wave fns used. Skipping ion_occ.
  | Found hydrogenic basis function :  2 s   2.100
  | Found hydrogenic basis function :  2 p   3.500
  | Found hydrogenic basis function :  1 s   0.850
  | Found hydrogenic basis function :  2 p   3.700
  | Found hydrogenic basis function :  2 s   1.200
  | Found hydrogenic basis function :  3 d   7.000
  Species H                   : Missing cutoff potential type.
  Defaulting to exp(1/x)/(1-x)^2 type cutoff potential.
  Species H : On-site basis accuracy parameter (for Gram-Schmidt orthonormalisation) not specified.
  Using default value basis_acc =  0.1000000E-03.
  Species H                   : Using default innermost maximum threshold i_radial=  2 for radial functions.
  Species H                   : Basic radial grid will be enhanced according to radial_multiplier =   2, to contain    49 grid points.
 
  Reading configuration options for species O                   .
  | Found nuclear charge :   8.0000
  | Found atomic mass :    15.9994000000000      amu
  | Found l_max for Hartree potential  :   4
  | Found cutoff potl. onset [A], width [A], scale factor :    4.00000    2.00000    1.00000
  | Found cutoff specification for free atom: Cutoff potential begins at    8.00000 A.
  | Threshold for basis-dependent cutoff potential is   0.100000E-03
  | Found logarithmic grid data [bohr] : 0.1000E-03 0.1000E+03 0.1012E+01
  | Found data for basic radial integration grid :    36 points, outermost radius =    7.000 A
  | Found multiplier for basic radial grid :   2
  | Found angular grid specification: user-specified.
  | Specified grid contains     4 separate shells.
  | Check grid settings after all constraints further below.
  | Found free-atom valence shell :  2 s   2.000
  | Found free-atom valence shell :  2 p   4.000
  | No ionic wave fns used. Skipping ion_occ.
  | No ionic wave fns used. Skipping ion_occ.
  | Found hydrogenic basis function :  2 p   1.800
  | Found hydrogenic basis function :  3 d   7.600
  | Found hydrogenic basis function :  3 s   6.400
  | Found hydrogenic basis function :  4 f  11.600
  | Found hydrogenic basis function :  3 p   6.200
  | Found hydrogenic basis function :  3 d   5.600
  | Found hydrogenic basis function :  5 g  17.600
  | Found hydrogenic basis function :  1 s   0.750
  Species O                   : Missing cutoff potential type.
  Defaulting to exp(1/x)/(1-x)^2 type cutoff potential.
  Species O : On-site basis accuracy parameter (for Gram-Schmidt orthonormalisation) not specified.
  Using default value basis_acc =  0.1000000E-03.
  Species O                   : Using default innermost maximum threshold i_radial=  2 for radial functions.
  Species O                   : Basic radial grid will be enhanced according to radial_multiplier =   2, to contain    73 grid points.
 
  Finished reading input file 'control.in'. Consistency checks are next.
 
  Target number of points in a grid batch is not set. Defaulting to  100
  Method for grid partitioning is not set. Defaulting to parallel hash+maxmin partitioning.
  Batch size limit is not set. Defaulting to    200
  By default, will store active basis functions for each batch.
  If in need of memory, prune_basis_once .false. can be used to disable this option.
  communication_type for Hartree potential was not specified.
  Defaulting to calc_hartree .
  Pulay mixer: Number of initial linear mixing iterations not set.
  Defaulting to    0 iterations.
  Work space size for distributed Hartree potential not set.
  Defaulting to   0.200000E+03 MB.
  Algorithm-dependent basis array size parameters:
  | n_max_pulay                         :       10
  Geometry relaxation not requested: no relaxation will be performed.
  Handling of forces: Unphysical translation and rotation will be removed from forces.
  No accuracy limit for integral partition fn. given. Defaulting to 0.1000E-14.
  No threshold value for u(r) in integrations given. Defaulting to 0.1000E-05.
  No accuracy for occupation numbers given. Defaulting to 0.1000E-07.
  No threshold value for occupation numbers given. Defaulting to 0.0000E+00.
  No accuracy for fermi level given. Defaulting to 0.1000E-19.
  Maximum # of iterations to find E_F not set. Defaulting to  200.
  Will not use alltoall communication since running on < 1024 CPUs.
  Partitioning for Hartree potential was not defined. Using partition_type for integrals.
  | Reporting present value of keyword multip_moments_threshold  :       0.10000000E-09
  | This value may affect high angular momentum components of the Hartree potential in periodic systems.
  No q(lm)/r^(l+1) cutoff set for long-range Hartree potential.
  | Using default value of  0.100000E-09 .
  | Verify using the multipole_threshold keyword.
  Defaulting to new monopole extrapolation.
  Density update method: Loop over occupied states selected for charge density update.
------------------------------------------------------------


------------------------------------------------------------
          Reading geometry description geometry.in.
------------------------------------------------------------
  Input structure read successfully.
  The structure contains       18 atoms,  and a total of         60.000 electrons.

  Input geometry:
  | No unit cell requested.
  | Atomic structure:
  |       Atom                x [A]            y [A]            z [A]
  |    1: Species O             -4.053030         0.065001        -1.525160
  |    2: Species H             -4.566710         0.974813        -1.912820
  |    3: Species H             -3.067820         0.330172        -1.477310
  |    4: Species O             -4.581760        -0.256435         0.939478
  |    5: Species H             -4.349860         0.471090         1.504340
  |    6: Species H             -5.393870        -0.726611         1.228070
  |    7: Species O             -1.645860         0.870179        -1.502250
  |    8: Species H             -1.568890         1.501730        -0.721051
  |    9: Species H             -0.824432         0.282220        -1.377720
  |   10: Species O             -3.818880         2.024990         2.187990
  |   11: Species H             -3.690880         1.961360         3.202150
  |   12: Species H             -4.546490         2.751300         2.045370
  |   13: Species O             -4.066610         4.258280        -0.900064
  |   14: Species H             -3.224110         3.876870        -0.569443
  |   15: Species H             -3.737450         5.116530        -1.322720
  |   16: Species O             -5.628340         3.730740         1.385610
  |   17: Species H             -6.090650         4.418470         1.860350
  |   18: Species H             -5.158540         4.200260         0.615875
  |

  | The smallest distance between any two atoms is         0.94981015 AA.
  |
  | The first atom of this pair is atom number                      4 .
  | The second atom of this pair is atom number                     5 .

  Structure-dependent array size parameters: 
  | Maximum number of distinct radial functions  :       18
  | Maximum number of basis functions            :      414
  | Number of Kohn-Sham states (occupied + empty):      102
------------------------------------------------------------

------------------------------------------------------------
          Preparing all fixed parts of the calculation.
------------------------------------------------------------
  Determining machine precision:
    2.225073858507201E-308
  Setting up grids for atomic and cluster calculations.

  Creating wave function, potential, and density for free atoms.

  Species: H

  List of occupied orbitals and eigenvalues:
    n    l              occ      energy [Ha]    energy [eV]
    1    0           1.0000        -0.241408        -6.5691


  Species: O

  List of occupied orbitals and eigenvalues:
    n    l              occ      energy [Ha]    energy [eV]
    1    0           2.0000       -18.944147      -515.4965
    2    0           2.0000        -0.883529       -24.0421
    2    1           4.0000        -0.330176        -8.9845

  Creating fixed part of basis set: Ionic, confined, hydrogenic.
 
  H                    hydrogenic:
 
  List of hydrogenic basis orbitals: 
    n    l      effective z      eigenvalue [eV]  inner max. [A]     outer max. [A]     outer radius [A]   
    2    0         2.100000       -14.9965           0.193241           1.317192           5.372934
    2    1         3.500000       -41.6672           0.602363           0.602363           4.056010
    1    0         0.850000        -9.8292           0.624864           0.624864           5.372934
    2    1         3.700000       -46.5653           0.573616           0.573616           3.909951
    2    0         1.200000        -4.5995           0.334977           2.228160           5.505921
    3    2         7.000000       -74.0753           0.680692           0.680692           3.769152
 
 
  O                    hydrogenic:
 
  List of hydrogenic basis orbitals: 
    n    l      effective z      eigenvalue [eV]  inner max. [A]     outer max. [A]     outer radius [A]   
    2    1         1.800000       -11.0118           1.178546           1.178546           5.432516
    3    2         7.600000       -87.3182           0.624117           0.624117           3.541422
    3    0         6.400000       -61.9209           0.061166           1.081887           4.306510
    4    3        11.600000      -114.4238           0.731621           0.731621           3.584982
    3    1         6.200000       -58.1113           0.255677           1.030255           4.306510
    3    2         5.600000       -47.4081           0.847222           0.847222           4.413102
    5    4        17.600000      -168.5799           0.749730           0.749730           3.372413
    1    0         0.750000        -7.6499           0.705275           0.705275           5.366508
 

  Adding cutoff potential to free-atom effective potential.
  Creating atomic-like basis functions for current effective potential.

  Species H                   :

  List of atomic basis orbitals and eigenvalues:
    n    l      energy [Ha]    energy [eV]    outer radius [A]
    1    0        -0.241374        -6.5681       5.372934


  Species O                   :

  List of atomic basis orbitals and eigenvalues:
    n    l      energy [Ha]    energy [eV]    outer radius [A]
    1    0       -18.944147      -515.4965       1.415745
    2    0        -0.883529       -24.0421       5.048305
    2    1        -0.330173        -8.9845       5.301302

  Assembling full basis from fixed parts.
  | Species H :   atomic orbital   1 s accepted.
  | Species H :    hydro orbital   2 s accepted.
  | Species H :    hydro orbital   1 s accepted.
  | Species H :    hydro orbital   2 s accepted.
  | Species H :    hydro orbital   2 p accepted.
  | Species H :    hydro orbital   2 p accepted.
  | Species H :    hydro orbital   3 d accepted.
  | Species O :   atomic orbital   1 s accepted.
  | Species O :    hydro orbital   3 s accepted.
  | Species O :   atomic orbital   2 s accepted.
  | Species O :    hydro orbital   1 s accepted.
  | Species O :    hydro orbital   3 p accepted.
  | Species O :   atomic orbital   2 p accepted.
  | Species O :    hydro orbital   2 p accepted.
  | Species O :    hydro orbital   3 d accepted.
  | Species O :    hydro orbital   3 d accepted.
  | Species O :    hydro orbital   4 f accepted.
  | Species O :    hydro orbital   5 g accepted.
 
  Basis size parameters after reduction:
  | Total number of radial functions:       18
  | Total number of basis functions :      414
 
  Testing on-site integration grid accuracy.
  |  Species  Function  <phi|h_atom|phi> (log., in eV)  <phi|h_atom|phi> (rad., in eV)
           1        1                 -6.5683835025                 -6.5684759159
           1        2                 13.3711789951                 13.3708738703
           1        3                 23.6590910787                 23.6532055418
           1        4                 16.2963827186                 16.1870710655 ***
           1        5                 28.7627214838                 28.7627215090
           1        6                 59.5965249172                 59.5965950857
           1        7                 60.2220506392                 60.2220503827
           2        8               -515.4964576505               -515.4964530710
           2        9                 15.3030791347                 15.3030722972
           2       10                -21.7296094581                -21.7296135470
           2       11                 14.2969371730                 14.2969701621
           2       12                 21.0679693190                 21.0679697493
           2       13                 -2.3833606469                 -2.3833613176
           2       14                 13.7067136422                 13.7066766629
           2       15                 45.8013116808                 45.8013116965
           2       16                 52.2309815402                 52.2309831494
           2       17                 85.4120732416                 85.4120732763
           2       18                142.1019167745                142.1019167817
 * Note: Onsite integrals marked "***" above are less accurate than
 * onsite_accuracy_threshold =    0.03000 eV. Usually, this is harmless.
 * When in doubt, tighten the "radial" and/or "radial_multiplier" flags to check.

  Preparing densities etc. for the partition functions (integrals / Hartree potential).

  Preparations completed.
  max(cpu_time)          :      0.173 s.
  Wall clock time (cpu1) :      0.572 s.
------------------------------------------------------------

------------------------------------------------------------
          Begin self-consistency loop: Initialization.

          Date     :  20150727, Time     :  120022.013
------------------------------------------------------------

  Initializing index lists of integration centers etc. from given atomic structure:
  | Number of centers in hartree potential         :        18
  | Number of centers in hartree multipole         :        18
  | Number of centers in electron density summation:        18
  | Number of centers in basis integrals           :        18
  | Number of centers in integrals                 :        18
  Partitioning the integration grid into batches with parallel hashing+maxmin method.
  | Number of batches:     2309
  | Maximal batch size:     179
  | Minimal batch size:      60
  | Average batch size:     102.231
  | Standard deviation of batch sizes:      34.509

  Integration load balanced across     8 MPI tasks.
  Work distribution over tasks is as follows:
  Task     0 has      29576 integration points.
  Task     1 has      29479 integration points.
  Task     2 has      29491 integration points.
  Task     3 has      29551 integration points.
  Task     4 has      29491 integration points.
  Task     5 has      29450 integration points.
  Task     6 has      29535 integration points.
  Task     7 has      29479 integration points.
  Initializing partition tables, free-atom densities, potentials, etc. across the integration grid (initialize_grid_storage).
  | Net number of integration points:   236052
  | of which are non-zero points    :   235475
  Obtaining max. number of non-zero basis functions in each batch (get_n_compute_maxes).
  | Maximal number of non-zero basis functions:      409 in task     0
  | Maximal number of non-zero basis functions:      409 in task     1
  | Maximal number of non-zero basis functions:      410 in task     2
  | Maximal number of non-zero basis functions:      409 in task     3
  | Maximal number of non-zero basis functions:      409 in task     4
  | Maximal number of non-zero basis functions:      410 in task     5
  | Maximal number of non-zero basis functions:      409 in task     6
  | Maximal number of non-zero basis functions:      409 in task     7
  Integrating Hamiltonian matrix: batch-based integration.
  Time summed over all CPUs for integration: real work       10.309 s, elapsed       10.601 s
  Integrating overlap matrix.
  Time summed over all CPUs for integration: real work        5.640 s, elapsed        5.758 s

  Updating Kohn-Sham eigenvalues, eigenvectors, occupation numbers, and Fermi level.
  Solving generalized eigenproblem
  Updating Kohn-Sham eigenvalues and eigenfunctions.
  Transforming overlap matrix and checking for singularities.
  Overlap matrix is nonsingular:
  | Lowest eigenvalue:  0.289645E-03
  Solving real generalised eigenvalue problem by standard LAPACK (fast)
  Determining occupation numbers for Kohn-Sham eigenstates.
  | Chemical potential (Fermi level) in eV                 : -.36988483E+01
  | Error in electron count due to remaining E_F inaccuracy: 0.00000000E+00
  | Maximum occupation number of highest empty state:  0.00E+00

  Writing Kohn-Sham eigenvalues.

  State    Occupation    Eigenvalue [Ha]    Eigenvalue [eV]
      1       2.00000         -19.052086         -518.43363
      2       2.00000         -19.050631         -518.39404
      3       2.00000         -19.042522         -518.17340
      4       2.00000         -19.042428         -518.17082
      5       2.00000         -19.032262         -517.89420
      6       2.00000         -19.019704         -517.55247
      7       2.00000          -1.101603          -29.97613
      8       2.00000          -1.099239          -29.91180
      9       2.00000          -1.086743          -29.57178
     10       2.00000          -1.085693          -29.54322
     11       2.00000          -1.063682          -28.94425
     12       2.00000          -1.042010          -28.35454
     13       2.00000          -0.648492          -17.64638
     14       2.00000          -0.632069          -17.19946
     15       2.00000          -0.605933          -16.48827
     16       2.00000          -0.604548          -16.45059
     17       2.00000          -0.603275          -16.41596
     18       2.00000          -0.589106          -16.03039
     19       2.00000          -0.524429          -14.27043
     20       2.00000          -0.519057          -14.12426
     21       2.00000          -0.508706          -13.84260
     22       2.00000          -0.502726          -13.67988
     23       2.00000          -0.486269          -13.23204
     24       2.00000          -0.469899          -12.78659
     25       2.00000          -0.440606          -11.98950
     26       2.00000          -0.439073          -11.94779
     27       2.00000          -0.432298          -11.76343
     28       2.00000          -0.430542          -11.71563
     29       2.00000          -0.424371          -11.54773
     30       2.00000          -0.402426          -10.95057
     31       0.00000          -0.102924           -2.80070
     32       0.00000          -0.072811           -1.98130
     33       0.00000          -0.064705           -1.76072
     34       0.00000          -0.061947           -1.68568
     35       0.00000          -0.041175           -1.12042
     36       0.00000          -0.035959           -0.97848
     37       0.00000          -0.018096           -0.49241
     38       0.00000           0.023293            0.63385
     39       0.00000           0.032964            0.89699
     40       0.00000           0.043310            1.17854
     41       0.00000           0.047857            1.30225
     42       0.00000           0.054021            1.46998
     43       0.00000           0.068183            1.85536
     44       0.00000           0.071863            1.95548
     45       0.00000           0.084751            2.30618
     46       0.00000           0.091670            2.49448
     47       0.00000           0.092232            2.50976
     48       0.00000           0.100203            2.72666
     49       0.00000           0.108210            2.94454
     50       0.00000           0.111537            3.03507
     51       0.00000           0.120138            3.26911
     52       0.00000           0.122118            3.32301
     53       0.00000           0.132529            3.60630
     54       0.00000           0.139139            3.78618
     55       0.00000           0.143419            3.90264
     56       0.00000           0.147148            4.00410
     57       0.00000           0.160835            4.37655
     58       0.00000           0.167392            4.55497
     59       0.00000           0.185566            5.04951
     60       0.00000           0.196053            5.33487
     61       0.00000           0.201500            5.48308
     62       0.00000           0.211773            5.76264
     63       0.00000           0.231530            6.30025
     64       0.00000           0.249288            6.78347
     65       0.00000           0.251435            6.84190
     66       0.00000           0.269585            7.33577
     67       0.00000           0.281791            7.66791
     68       0.00000           0.290877            7.91517
     69       0.00000           0.302567            8.23328
     70       0.00000           0.310937            8.46102
     71       0.00000           0.330125            8.98315
     72       0.00000           0.333205            9.06696
     73       0.00000           0.339223            9.23072
     74       0.00000           0.343571            9.34904
     75       0.00000           0.362077            9.85262
     76       0.00000           0.376789           10.25294
     77       0.00000           0.381754           10.38805
     78       0.00000           0.388194           10.56328
     79       0.00000           0.399339           10.86657
     80       0.00000           0.403674           10.98452
     81       0.00000           0.414694           11.28438
     82       0.00000           0.421549           11.47092
     83       0.00000           0.446397           12.14709
     84       0.00000           0.450301           12.25332
     85       0.00000           0.461483           12.55758
     86       0.00000           0.466305           12.68881
     87       0.00000           0.489591           13.32246
     88       0.00000           0.491835           13.38352
     89       0.00000           0.515071           14.01581
     90       0.00000           0.532587           14.49243
     91       0.00000           0.538551           14.65471
     92       0.00000           0.568964           15.48230
     93       0.00000           0.577251           15.70780
     94       0.00000           0.581895           15.83417
     95       0.00000           0.592364           16.11906
     96       0.00000           0.611382           16.63655
     97       0.00000           0.651815           17.73679
     98       0.00000           0.672544           18.30085
     99       0.00000           0.695024           18.91256
    100       0.00000           0.712097           19.37715
    101       0.00000           0.725087           19.73061
    102       0.00000           0.739761           20.12992

  Highest occupied state (VBM) at    -10.95057375 eV
  | Occupation number:      2.00000000

  Lowest unoccupied state (CBM) at    -2.80070121 eV
  | Occupation number:      0.00000000

  Overall HOMO-LUMO gap:      8.14987254 eV.
  Calculating total energy contributions from superposition of free atom densities.

  Total energy components:
  | Sum of eigenvalues            :        -259.96485299 Ha       -7074.00357128 eV
  | XC energy correction          :         -54.65711980 Ha       -1487.29590247 eV
  | XC potential correction       :          69.84036746 Ha        1900.45309263 eV
  | Free-atom electrostatic energy:        -214.90422206 Ha       -5847.84141706 eV
  | Hartree energy correction     :           0.00000000 Ha           0.00000000 eV
  | van der Waals energy corr.    :           0.00000000 Ha           0.00000000 eV
  | Entropy correction            :           0.00000000 Ha           0.00000000 eV
  | ---------------------------
  | Total energy                  :        -459.68582739 Ha      -12508.68779818 eV
  | Total energy, T -> 0          :        -459.68582739 Ha      -12508.68779818 eV  <-- do not rely on this value for anything but (periodic) metals
  | Electronic free energy        :        -459.68582739 Ha      -12508.68779818 eV

  Derived energy quantities:
  | Kinetic energy                :         454.95545248 Ha       12379.96774771 eV
  | Electrostatic energy          :        -859.98416006 Ha      -23401.35964342 eV
  | Energy correction for multipole
  | error in Hartree potential    :           0.00000000 Ha           0.00000000 eV
  | Sum of eigenvalues per atom                           :        -393.00019840 eV
  | Total energy (T->0) per atom                          :        -694.92709990 eV  <-- do not rely on this value for anything but (periodic) metals
  | Electronic free energy per atom                       :        -694.92709990 eV
  Initialize hartree_potential_storage
  Max. number of atoms included in rho_multipole:           18

  End scf initialization - timings             :  max(cpu_time)    wall_clock(cpu1)
  | Time for scf. initialization               :        2.819 s           2.819 s
  | Boundary condition initialization          :        0.000 s           0.000 s
  | Integration                                :        2.051 s           2.050 s
  | Solution of K.-S. eqns.                    :        0.297 s           0.298 s
  | Grid partitioning                          :        0.176 s           0.176 s
  | Preloading free-atom quantities on grid    :        0.014 s           0.014 s
  | Free-atom superposition energy             :        0.089 s           0.088 s
  | Total energy evaluation                    :        0.000 s           0.001 s
------------------------------------------------------------

------------------------------------------------------------
          Begin self-consistency iteration #    1

  Date     :  20150727, Time     :  120024.832
------------------------------------------------------------
  Evaluating new KS density.
  Integration grid: deviation in total charge (<rho> - N_e) =   7.105427E-15
  Pulay mixing of updated and previous charge densities.

  Evaluating partitioned Hartree potential by multipole expansion.
  | Analytical far-field extrapolation by fixed multipoles:
  | Hartree multipole sum: apparent total charge =  -0.195624E-05
  Summing up the Hartree potential.
  Time summed over all CPUs for potential: real work        3.785 s, elapsed        3.805 s
  | RMS charge density error from multipole expansion :   0.174201E-02

  Integrating Hamiltonian matrix: batch-based integration.
  Time summed over all CPUs for integration: real work       10.289 s, elapsed       10.558 s

  Updating Kohn-Sham eigenvalues, eigenvectors, occupation numbers, and Fermi level.
  Solving generalized eigenproblem
  Updating Kohn-Sham eigenvalues and eigenfunctions.
  Solving real generalised eigenvalue problem by standard LAPACK (fast)
  Determining occupation numbers for Kohn-Sham eigenstates.
  | Chemical potential (Fermi level) in eV                 : -.32634729E+01
  | Error in electron count due to remaining E_F inaccuracy: 0.00000000E+00
  | Maximum occupation number of highest empty state:  0.00E+00

  Writing Kohn-Sham eigenvalues.

  State    Occupation    Eigenvalue [Ha]    Eigenvalue [eV]
      1       2.00000         -18.979566         -516.46028
      2       2.00000         -18.976215         -516.36909
      3       2.00000         -18.974978         -516.33542
      4       2.00000         -18.957884         -515.87027
      5       2.00000         -18.956498         -515.83257
      6       2.00000         -18.928252         -515.06395
      7       2.00000          -1.066377          -29.01759
      8       2.00000          -1.053986          -28.68041
      9       2.00000          -1.053815          -28.67577
     10       2.00000          -1.048828          -28.54006
     11       2.00000          -1.024015          -27.86486
     12       2.00000          -0.990747          -26.95961
     13       2.00000          -0.603138          -16.41223
     14       2.00000          -0.602260          -16.38833
     15       2.00000          -0.579008          -15.75561
     16       2.00000          -0.576636          -15.69105
     17       2.00000          -0.571202          -15.54321
     18       2.00000          -0.549464          -14.95167
     19       2.00000          -0.489865          -13.32990
     20       2.00000          -0.479471          -13.04707
     21       2.00000          -0.475088          -12.92780
     22       2.00000          -0.456878          -12.43228
     23       2.00000          -0.444782          -12.10313
     24       2.00000          -0.423945          -11.53612
     25       2.00000          -0.402805          -10.96087
     26       2.00000          -0.398377          -10.84039
     27       2.00000          -0.393284          -10.70179
     28       2.00000          -0.385953          -10.50232
     29       2.00000          -0.381823          -10.38994
     30       2.00000          -0.347805           -9.46425
     31       0.00000          -0.093978           -2.55727
     32       0.00000          -0.064367           -1.75152
     33       0.00000          -0.055986           -1.52345
     34       0.00000          -0.048198           -1.31154
     35       0.00000          -0.033428           -0.90963
     36       0.00000          -0.024659           -0.67102
     37       0.00000          -0.011528           -0.31369
     38       0.00000           0.031154            0.84776
     39       0.00000           0.041119            1.11889
     40       0.00000           0.054120            1.47268
     41       0.00000           0.059270            1.61282
     42       0.00000           0.062641            1.70456
     43       0.00000           0.077926            2.12048
     44       0.00000           0.081913            2.22896
     45       0.00000           0.096273            2.61971
     46       0.00000           0.098976            2.69327
     47       0.00000           0.102273            2.78298
     48       0.00000           0.108939            2.96438
     49       0.00000           0.118151            3.21506
     50       0.00000           0.122743            3.34000
     51       0.00000           0.131143            3.56859
     52       0.00000           0.132221            3.59791
     53       0.00000           0.143318            3.89987
     54       0.00000           0.153935            4.18878
     55       0.00000           0.155612            4.23443
     56       0.00000           0.163429            4.44714
     57       0.00000           0.172086            4.68270
     58       0.00000           0.182646            4.97005
     59       0.00000           0.198952            5.41376
     60       0.00000           0.210504            5.72812
     61       0.00000           0.211997            5.76874
     62       0.00000           0.224223            6.10142
     63       0.00000           0.243789            6.63383
     64       0.00000           0.259439            7.05970
     65       0.00000           0.263236            7.16303
     66       0.00000           0.279950            7.61782
     67       0.00000           0.291996            7.94563
     68       0.00000           0.302987            8.24469
     69       0.00000           0.312370            8.50002
     70       0.00000           0.318600            8.66955
     71       0.00000           0.340297            9.25996
     72       0.00000           0.346497            9.42866
     73       0.00000           0.351216            9.55709
     74       0.00000           0.354560            9.64807
     75       0.00000           0.371045           10.09665
     76       0.00000           0.385400           10.48728
     77       0.00000           0.391939           10.66520
     78       0.00000           0.398277           10.83768
     79       0.00000           0.410855           11.17994
     80       0.00000           0.413045           11.23952
     81       0.00000           0.426760           11.61274
     82       0.00000           0.432035           11.75627
     83       0.00000           0.457065           12.43736
     84       0.00000           0.462508           12.58549
     85       0.00000           0.471044           12.81775
     86       0.00000           0.477852           13.00303
     87       0.00000           0.501371           13.64299
     88       0.00000           0.502522           13.67432
     89       0.00000           0.528384           14.37807
     90       0.00000           0.545057           14.83175
     91       0.00000           0.551218           14.99941
     92       0.00000           0.584116           15.89460
     93       0.00000           0.592841           16.13202
     94       0.00000           0.595708           16.21004
     95       0.00000           0.605147           16.46688
     96       0.00000           0.625855           17.03037
     97       0.00000           0.664224           18.07447
     98       0.00000           0.685057           18.64134
     99       0.00000           0.709401           19.30377
    100       0.00000           0.726850           19.77860
    101       0.00000           0.743226           20.22422
    102       0.00000           0.753144           20.49410

  Highest occupied state (VBM) at     -9.46424691 eV
  | Occupation number:      2.00000000

  Lowest unoccupied state (CBM) at    -2.55727377 eV
  | Occupation number:      0.00000000

  Overall HOMO-LUMO gap:      6.90697314 eV.

  Total energy components:
  | Sum of eigenvalues            :        -257.14589028 Ha       -6997.29569296 eV
  | XC energy correction          :         -54.94323469 Ha       -1495.08148475 eV
  | XC potential correction       :          70.21474256 Ha        1910.64035745 eV
  | Free-atom electrostatic energy:        -214.90422206 Ha       -5847.84141706 eV
  | Hartree energy correction     :          -2.73255887 Ha         -74.35670999 eV
  | van der Waals energy corr.    :           0.00000000 Ha           0.00000000 eV
  | Entropy correction            :           0.00000000 Ha           0.00000000 eV
  | ---------------------------
  | Total energy                  :        -459.51116333 Ha      -12503.93494731 eV
  | Total energy, T -> 0          :        -459.51116333 Ha      -12503.93494731 eV  <-- do not rely on this value for anything but (periodic) metals
  | Electronic free energy        :        -459.51116333 Ha      -12503.93494731 eV

  Derived energy quantities:
  | Kinetic energy                :         456.65058731 Ha       12426.09471340 eV
  | Electrostatic energy          :        -861.21851595 Ha      -23434.94817597 eV
  | Energy correction for multipole
  | error in Hartree potential    :          -0.00008208 Ha          -0.00223354 eV
  | Sum of eigenvalues per atom                           :        -388.73864961 eV
  | Total energy (T->0) per atom                          :        -694.66305263 eV  <-- do not rely on this value for anything but (periodic) metals
  | Electronic free energy per atom                       :        -694.66305263 eV

  Self-consistency convergence accuracy:
  | Change of charge density      : 0.7189E+00
  | Change of sum of eigenvalues  : 0.7671E+02 eV
  | Change of total energy        : 0.4753E+01 eV

  End self-consistency iteration #     1       :  max(cpu_time)    wall_clock(cpu1)
  | Time for this iteration                    :        2.774 s           2.773 s
  | Charge density update                      :        0.882 s           0.881 s
  | Density mixing                             :        0.004 s           0.004 s
  | Hartree multipole update                   :        0.006 s           0.007 s
  | Hartree multipole summation                :        0.477 s           0.476 s
  | Integration                                :        1.323 s           1.323 s
  | Solution of K.-S. eqns.                    :        0.080 s           0.081 s
  | Total energy evaluation                    :        0.000 s           0.001 s
------------------------------------------------------------

------------------------------------------------------------
          Begin self-consistency iteration #    2

  Date     :  20150727, Time     :  120027.605
------------------------------------------------------------
  Evaluating new KS density.
  Integration grid: deviation in total charge (<rho> - N_e) =   4.263256E-14
  Pulay mixing of updated and previous charge densities.

  Evaluating partitioned Hartree potential by multipole expansion.
  | Analytical far-field extrapolation by fixed multipoles:
  | Hartree multipole sum: apparent total charge =  -0.520976E-05
  Summing up the Hartree potential.
  Time summed over all CPUs for potential: real work        3.780 s, elapsed        3.793 s
  | RMS charge density error from multipole expansion :   0.691425E-02

  Integrating Hamiltonian matrix: batch-based integration.
  Time summed over all CPUs for integration: real work       10.269 s, elapsed       10.530 s

  Updating Kohn-Sham eigenvalues, eigenvectors, occupation numbers, and Fermi level.
  Solving generalized eigenproblem
  Updating Kohn-Sham eigenvalues and eigenfunctions.
  Solving real generalised eigenvalue problem by standard LAPACK (fast)
  Determining occupation numbers for Kohn-Sham eigenstates.
  | Chemical potential (Fermi level) in eV                 : -.21247470E+01
  | Error in electron count due to remaining E_F inaccuracy: 0.48459015E-11
  | Maximum occupation number of highest empty state:  0.00E+00

  Highest occupied state (VBM) at     -5.95168240 eV
  | Occupation number:      2.00000000

  Lowest unoccupied state (CBM) at    -2.07588580 eV
  | Occupation number:      0.00000000

  Overall HOMO-LUMO gap:      3.87579660 eV.

  Total energy components:
  | Sum of eigenvalues            :        -250.56645269 Ha       -6818.26008706 eV
  | XC energy correction          :         -55.63779274 Ha       -1513.98137092 eV
  | XC potential correction       :          71.12274152 Ha        1935.34826607 eV
  | Free-atom electrostatic energy:        -214.90422206 Ha       -5847.84141706 eV
  | Hartree energy correction     :          -9.32516253 Ha        -253.75058307 eV
  | van der Waals energy corr.    :           0.00000000 Ha           0.00000000 eV
  | Entropy correction            :           0.00000000 Ha           0.00000000 eV
  | ---------------------------
  | Total energy                  :        -459.31088850 Ha      -12498.48519204 eV
  | Total energy, T -> 0          :        -459.31088850 Ha      -12498.48519204 eV  <-- do not rely on this value for anything but (periodic) metals
  | Electronic free energy        :        -459.31088850 Ha      -12498.48519204 eV

  Derived energy quantities:
  | Kinetic energy                :         459.99347632 Ha       12517.05935175 eV
  | Electrostatic energy          :        -863.66657209 Ha      -23501.56317287 eV
  | Energy correction for multipole
  | error in Hartree potential    :          -0.00128882 Ha          -0.03507058 eV
  | Sum of eigenvalues per atom                           :        -378.79222706 eV
  | Total energy (T->0) per atom                          :        -694.36028845 eV  <-- do not rely on this value for anything but (periodic) metals
  | Electronic free energy per atom                       :        -694.36028845 eV

  Self-consistency convergence accuracy:
  | Change of charge density      : 0.5429E+00
  | Change of sum of eigenvalues  : 0.1790E+03 eV
  | Change of total energy        : 0.5450E+01 eV

  End self-consistency iteration #     2       :  max(cpu_time)    wall_clock(cpu1)
  | Time for this iteration                    :        2.767 s           2.767 s
  | Charge density update                      :        0.879 s           0.879 s
  | Density mixing                             :        0.006 s           0.007 s
  | Hartree multipole update                   :        0.006 s           0.006 s
  | Hartree multipole summation                :        0.475 s           0.475 s
  | Integration                                :        1.319 s           1.319 s
  | Solution of K.-S. eqns.                    :        0.081 s           0.081 s
  | Total energy evaluation                    :        0.000 s           0.000 s
------------------------------------------------------------

------------------------------------------------------------
          Begin self-consistency iteration #    3

  Date     :  20150727, Time     :  120030.372
------------------------------------------------------------
  Evaluating new KS density.
  Integration grid: deviation in total charge (<rho> - N_e) =   4.888534E-12
  Pulay mixing of updated and previous charge densities.

  Evaluating partitioned Hartree potential by multipole expansion.
  | Analytical far-field extrapolation by fixed multipoles:
  | Hartree multipole sum: apparent total charge =  -0.366672E-05
  Summing up the Hartree potential.
  Time summed over all CPUs for potential: real work        3.780 s, elapsed        3.794 s
  | RMS charge density error from multipole expansion :   0.141773E-01

  Integrating Hamiltonian matrix: batch-based integration.
  Time summed over all CPUs for integration: real work       10.265 s, elapsed       10.547 s

  Updating Kohn-Sham eigenvalues, eigenvectors, occupation numbers, and Fermi level.
  Solving generalized eigenproblem
  Updating Kohn-Sham eigenvalues and eigenfunctions.
  Solving real generalised eigenvalue problem by standard LAPACK (fast)
  Determining occupation numbers for Kohn-Sham eigenstates.
  | Chemical potential (Fermi level) in eV                 : -.28927934E+01
  | Error in electron count due to remaining E_F inaccuracy: 0.00000000E+00
  | Maximum occupation number of highest empty state:  0.00E+00

  Highest occupied state (VBM) at     -5.69615665 eV
  | Occupation number:      2.00000000

  Lowest unoccupied state (CBM) at    -2.05550297 eV
  | Occupation number:      0.00000000

  Overall HOMO-LUMO gap:      3.64065368 eV.

  Total energy components:
  | Sum of eigenvalues            :        -250.72149482 Ha       -6822.47899785 eV
  | XC energy correction          :         -55.61014936 Ha       -1513.22915642 eV
  | XC potential correction       :          71.08042557 Ha        1934.19679055 eV
  | Free-atom electrostatic energy:        -214.90422206 Ha       -5847.84141706 eV
  | Hartree energy correction     :          -9.14830911 Ha        -248.93815669 eV
  | van der Waals energy corr.    :           0.00000000 Ha           0.00000000 eV
  | Entropy correction            :           0.00000000 Ha           0.00000000 eV
  | ---------------------------
  | Total energy                  :        -459.30374978 Ha      -12498.29093747 eV
  | Total energy, T -> 0          :        -459.30374978 Ha      -12498.29093747 eV  <-- do not rely on this value for anything but (periodic) metals
  | Electronic free energy        :        -459.30374978 Ha      -12498.29093747 eV

  Derived energy quantities:
  | Kinetic energy                :         457.55661380 Ha       12450.74894860 eV
  | Electrostatic energy          :        -861.25021421 Ha      -23435.81072965 eV
  | Energy correction for multipole
  | error in Hartree potential    :          -0.00700126 Ha          -0.19051405 eV
  | Sum of eigenvalues per atom                           :        -379.02661099 eV
  | Total energy (T->0) per atom                          :        -694.34949653 eV  <-- do not rely on this value for anything but (periodic) metals
  | Electronic free energy per atom                       :        -694.34949653 eV

  Self-consistency convergence accuracy:
  | Change of charge density      : 0.2759E+00
  | Change of sum of eigenvalues  : -.4219E+01 eV
  | Change of total energy        : 0.1943E+00 eV

  End self-consistency iteration #     3       :  max(cpu_time)    wall_clock(cpu1)
  | Time for this iteration                    :        2.825 s           2.825 s
  | Charge density update                      :        0.931 s           0.932 s
  | Density mixing                             :        0.009 s           0.008 s
  | Hartree multipole update                   :        0.006 s           0.007 s
  | Hartree multipole summation                :        0.475 s           0.475 s
  | Integration                                :        1.321 s           1.321 s
  | Solution of K.-S. eqns.                    :        0.082 s           0.081 s
  | Total energy evaluation                    :        0.001 s           0.000 s
------------------------------------------------------------

------------------------------------------------------------
          Begin self-consistency iteration #    4

  Date     :  20150727, Time     :  120033.197
------------------------------------------------------------
  Evaluating new KS density.
  Integration grid: deviation in total charge (<rho> - N_e) =   1.421085E-14
  Pulay mixing of updated and previous charge densities.

  Evaluating partitioned Hartree potential by multipole expansion.
  | Analytical far-field extrapolation by fixed multipoles:
  | Hartree multipole sum: apparent total charge =  -0.415229E-05
  Summing up the Hartree potential.
  Time summed over all CPUs for potential: real work        3.779 s, elapsed        3.792 s
  | RMS charge density error from multipole expansion :   0.183738E-01

  Integrating Hamiltonian matrix: batch-based integration.
  Time summed over all CPUs for integration: real work       10.272 s, elapsed       10.540 s

  Updating Kohn-Sham eigenvalues, eigenvectors, occupation numbers, and Fermi level.
  Solving generalized eigenproblem
  Updating Kohn-Sham eigenvalues and eigenfunctions.
  Solving real generalised eigenvalue problem by standard LAPACK (fast)
  Determining occupation numbers for Kohn-Sham eigenstates.
  | Chemical potential (Fermi level) in eV                 : -.23614154E+01
  | Error in electron count due to remaining E_F inaccuracy: 0.00000000E+00
  | Maximum occupation number of highest empty state:  0.00E+00

  Highest occupied state (VBM) at     -4.41316146 eV
  | Occupation number:      2.00000000

  Lowest unoccupied state (CBM) at    -1.93321089 eV
  | Occupation number:      0.00000000

  Overall HOMO-LUMO gap:      2.47995057 eV.

  Total energy components:
  | Sum of eigenvalues            :        -248.61920197 Ha       -6765.27269894 eV
  | XC energy correction          :         -55.85233545 Ha       -1519.81937527 eV
  | XC potential correction       :          71.39584170 Ha        1942.77970019 eV
  | Free-atom electrostatic energy:        -214.90422206 Ha       -5847.84141706 eV
  | Hartree energy correction     :         -11.30976806 Ha        -307.75444734 eV
  | van der Waals energy corr.    :           0.00000000 Ha           0.00000000 eV
  | Entropy correction            :           0.00000000 Ha           0.00000000 eV
  | ---------------------------
  | Total energy                  :        -459.28968585 Ha      -12497.90823843 eV
  | Total energy, T -> 0          :        -459.28968585 Ha      -12497.90823843 eV  <-- do not rely on this value for anything but (periodic) metals
  | Electronic free energy        :        -459.28968585 Ha      -12497.90823843 eV

  Derived energy quantities:
  | Kinetic energy                :         457.78878880 Ha       12457.06675185 eV
  | Electrostatic energy          :        -861.22613919 Ha      -23435.15561501 eV
  | Energy correction for multipole
  | error in Hartree potential    :          -0.00944354 Ha          -0.25697172 eV
  | Sum of eigenvalues per atom                           :        -375.84848327 eV
  | Total energy (T->0) per atom                          :        -694.32823547 eV  <-- do not rely on this value for anything but (periodic) metals
  | Electronic free energy per atom                       :        -694.32823547 eV

  Self-consistency convergence accuracy:
  | Change of charge density      : 0.1500E+00
  | Change of sum of eigenvalues  : 0.5721E+02 eV
  | Change of total energy        : 0.3827E+00 eV

  End self-consistency iteration #     4       :  max(cpu_time)    wall_clock(cpu1)
  | Time for this iteration                    :        2.765 s           2.765 s
  | Charge density update                      :        0.873 s           0.873 s
  | Density mixing                             :        0.010 s           0.010 s
  | Hartree multipole update                   :        0.006 s           0.007 s
  | Hartree multipole summation                :        0.475 s           0.474 s
  | Integration                                :        1.321 s           1.321 s
  | Solution of K.-S. eqns.                    :        0.080 s           0.080 s
  | Total energy evaluation                    :        0.000 s           0.000 s
------------------------------------------------------------

------------------------------------------------------------
          Begin self-consistency iteration #    5

  Date     :  20150727, Time     :  120035.962
------------------------------------------------------------
  Evaluating new KS density.
  Integration grid: deviation in total charge (<rho> - N_e) =   2.131628E-14
  Pulay mixing of updated and previous charge densities.

  Evaluating partitioned Hartree potential by multipole expansion.
  | Analytical far-field extrapolation by fixed multipoles:
  | Hartree multipole sum: apparent total charge =  -0.394541E-05
  Summing up the Hartree potential.
  Time summed over all CPUs for potential: real work        3.779 s, elapsed        3.792 s
  | RMS charge density error from multipole expansion :   0.189088E-01

  Integrating Hamiltonian matrix: batch-based integration.
  Time summed over all CPUs for integration: real work       10.264 s, elapsed       10.525 s

  Updating Kohn-Sham eigenvalues, eigenvectors, occupation numbers, and Fermi level.
  Solving generalized eigenproblem
  Updating Kohn-Sham eigenvalues and eigenfunctions.
  Solving real generalised eigenvalue problem by standard LAPACK (fast)
  Determining occupation numbers for Kohn-Sham eigenstates.
  | Chemical potential (Fermi level) in eV                 : -.23310610E+01
  | Error in electron count due to remaining E_F inaccuracy: 0.00000000E+00
  | Maximum occupation number of highest empty state:  0.00E+00

  Highest occupied state (VBM) at     -4.27499641 eV
  | Occupation number:      2.00000000

  Lowest unoccupied state (CBM) at    -1.92683557 eV
  | Occupation number:      0.00000000

  Overall HOMO-LUMO gap:      2.34816084 eV.

  Total energy components:
  | Sum of eigenvalues            :        -248.54657835 Ha       -6763.29650966 eV
  | XC energy correction          :         -55.86555159 Ha       -1520.17900455 eV
  | XC potential correction       :          71.41249179 Ha        1943.23277221 eV
  | Free-atom electrostatic energy:        -214.90422206 Ha       -5847.84141706 eV
  | Hartree energy correction     :         -11.38557280 Ha        -309.81719922 eV
  | van der Waals energy corr.    :           0.00000000 Ha           0.00000000 eV
  | Entropy correction            :           0.00000000 Ha           0.00000000 eV
  | ---------------------------
  | Total energy                  :        -459.28943300 Ha      -12497.90135828 eV
  | Total energy, T -> 0          :        -459.28943300 Ha      -12497.90135828 eV  <-- do not rely on this value for anything but (periodic) metals
  | Electronic free energy        :        -459.28943300 Ha      -12497.90135828 eV

  Derived energy quantities:
  | Kinetic energy                :         457.82959062 Ha       12458.17702578 eV
  | Electrostatic energy          :        -861.25347204 Ha      -23435.89937951 eV
  | Energy correction for multipole
  | error in Hartree potential    :          -0.00967420 Ha          -0.26324844 eV
  | Sum of eigenvalues per atom                           :        -375.73869498 eV
  | Total energy (T->0) per atom                          :        -694.32785324 eV  <-- do not rely on this value for anything but (periodic) metals
  | Electronic free energy per atom                       :        -694.32785324 eV

  Self-consistency convergence accuracy:
  | Change of charge density      : 0.3243E-01
  | Change of sum of eigenvalues  : 0.1976E+01 eV
  | Change of total energy        : 0.6880E-02 eV

  End self-consistency iteration #     5       :  max(cpu_time)    wall_clock(cpu1)
  | Time for this iteration                    :        2.766 s           2.767 s
  | Charge density update                      :        0.873 s           0.874 s
  | Density mixing                             :        0.012 s           0.011 s
  | Hartree multipole update                   :        0.006 s           0.007 s
  | Hartree multipole summation                :        0.475 s           0.474 s
  | Integration                                :        1.318 s           1.319 s
  | Solution of K.-S. eqns.                    :        0.082 s           0.081 s
  | Total energy evaluation                    :        0.000 s           0.000 s
------------------------------------------------------------

------------------------------------------------------------
          Begin self-consistency iteration #    6

  Date     :  20150727, Time     :  120038.729
------------------------------------------------------------
  Evaluating new KS density.
  Integration grid: deviation in total charge (<rho> - N_e) =   1.421085E-14
  Pulay mixing of updated and previous charge densities.

  Evaluating partitioned Hartree potential by multipole expansion.
  | Analytical far-field extrapolation by fixed multipoles:
  | Hartree multipole sum: apparent total charge =  -0.390417E-05
  Summing up the Hartree potential.
  Time summed over all CPUs for potential: real work        3.778 s, elapsed        3.792 s
  | RMS charge density error from multipole expansion :   0.191574E-01

  Integrating Hamiltonian matrix: batch-based integration.
  Time summed over all CPUs for integration: real work       10.260 s, elapsed       10.522 s

  Updating Kohn-Sham eigenvalues, eigenvectors, occupation numbers, and Fermi level.
  Solving generalized eigenproblem
  Updating Kohn-Sham eigenvalues and eigenfunctions.
  Solving real generalised eigenvalue problem by standard LAPACK (fast)
  Determining occupation numbers for Kohn-Sham eigenstates.
  | Chemical potential (Fermi level) in eV                 : -.23157664E+01
  | Error in electron count due to remaining E_F inaccuracy: 0.00000000E+00
  | Maximum occupation number of highest empty state:  0.00E+00

  Highest occupied state (VBM) at     -4.24352593 eV
  | Occupation number:      2.00000000

  Lowest unoccupied state (CBM) at    -1.92185190 eV
  | Occupation number:      0.00000000

  Overall HOMO-LUMO gap:      2.32167402 eV.

  Total energy components:
  | Sum of eigenvalues            :        -248.48787137 Ha       -6761.69901138 eV
  | XC energy correction          :         -55.87361101 Ha       -1520.39831255 eV
  | XC potential correction       :          71.42283011 Ha        1943.51409220 eV
  | Free-atom electrostatic energy:        -214.90422206 Ha       -5847.84141706 eV
  | Hartree energy correction     :         -11.44663483 Ha        -311.47878152 eV
  | van der Waals energy corr.    :           0.00000000 Ha           0.00000000 eV
  | Entropy correction            :           0.00000000 Ha           0.00000000 eV
  | ---------------------------
  | Total energy                  :        -459.28950915 Ha      -12497.90343032 eV
  | Total energy, T -> 0          :        -459.28950915 Ha      -12497.90343032 eV  <-- do not rely on this value for anything but (periodic) metals
  | Electronic free energy        :        -459.28950915 Ha      -12497.90343032 eV

  Derived energy quantities:
  | Kinetic energy                :         457.83446458 Ha       12458.30965312 eV
  | Electrostatic energy          :        -861.25036273 Ha      -23435.81477089 eV
  | Energy correction for multipole
  | error in Hartree potential    :          -0.00980204 Ha          -0.26672698 eV
  | Sum of eigenvalues per atom                           :        -375.64994508 eV
  | Total energy (T->0) per atom                          :        -694.32796835 eV  <-- do not rely on this value for anything but (periodic) metals
  | Electronic free energy per atom                       :        -694.32796835 eV

  Self-consistency convergence accuracy:
  | Change of charge density      : 0.1177E-01
  | Change of sum of eigenvalues  : 0.1597E+01 eV
  | Change of total energy        : -.2072E-02 eV

  End self-consistency iteration #     6       :  max(cpu_time)    wall_clock(cpu1)
  | Time for this iteration                    :        2.767 s           2.766 s
  | Charge density update                      :        0.874 s           0.873 s
  | Density mixing                             :        0.013 s           0.013 s
  | Hartree multipole update                   :        0.006 s           0.006 s
  | Hartree multipole summation                :        0.475 s           0.475 s
  | Integration                                :        1.318 s           1.318 s
  | Solution of K.-S. eqns.                    :        0.081 s           0.081 s
  | Total energy evaluation                    :        0.000 s           0.000 s
------------------------------------------------------------

------------------------------------------------------------
          Begin self-consistency iteration #    7

  Date     :  20150727, Time     :  120041.495
------------------------------------------------------------
  Evaluating new KS density.
  Integration grid: deviation in total charge (<rho> - N_e) =   7.105427E-15
  Pulay mixing of updated and previous charge densities.

  Evaluating partitioned Hartree potential by multipole expansion.
  | Analytical far-field extrapolation by fixed multipoles:
  | Hartree multipole sum: apparent total charge =  -0.358258E-05
  Summing up the Hartree potential.
  Time summed over all CPUs for potential: real work        3.778 s, elapsed        3.792 s
  | RMS charge density error from multipole expansion :   0.191443E-01

  Integrating Hamiltonian matrix: batch-based integration.
  Time summed over all CPUs for integration: real work       10.263 s, elapsed       10.533 s

  Updating Kohn-Sham eigenvalues, eigenvectors, occupation numbers, and Fermi level.
  Solving generalized eigenproblem
  Updating Kohn-Sham eigenvalues and eigenfunctions.
  Solving real generalised eigenvalue problem by standard LAPACK (fast)
  Determining occupation numbers for Kohn-Sham eigenstates.
  | Chemical potential (Fermi level) in eV                 : -.23715749E+01
  | Error in electron count due to remaining E_F inaccuracy: 0.00000000E+00
  | Maximum occupation number of highest empty state:  0.00E+00

  Highest occupied state (VBM) at     -4.40261740 eV
  | Occupation number:      2.00000000

  Lowest unoccupied state (CBM) at    -1.93071869 eV
  | Occupation number:      0.00000000

  Overall HOMO-LUMO gap:      2.47189871 eV.

  Total energy components:
  | Sum of eigenvalues            :        -248.68866512 Ha       -6767.16288728 eV
  | XC energy correction          :         -55.85458280 Ha       -1519.88052859 eV
  | XC potential correction       :          71.39726210 Ha        1942.81835122 eV
  | Free-atom electrostatic energy:        -214.90422206 Ha       -5847.84141706 eV
  | Hartree energy correction     :         -11.23916163 Ha        -305.83314866 eV
  | van der Waals energy corr.    :           0.00000000 Ha           0.00000000 eV
  | Entropy correction            :           0.00000000 Ha           0.00000000 eV
  | ---------------------------
  | Total energy                  :        -459.28936951 Ha      -12497.89963038 eV
  | Total energy, T -> 0          :        -459.28936951 Ha      -12497.89963038 eV  <-- do not rely on this value for anything but (periodic) metals
  | Electronic free energy        :        -459.28936951 Ha      -12497.89963038 eV

  Derived energy quantities:
  | Kinetic energy                :         457.90268434 Ha       12460.16600712 eV
  | Electrostatic energy          :        -861.33747105 Ha      -23438.18510891 eV
  | Energy correction for multipole
  | error in Hartree potential    :          -0.00963699 Ha          -0.26223582 eV
  | Sum of eigenvalues per atom                           :        -375.95349374 eV
  | Total energy (T->0) per atom                          :        -694.32775724 eV  <-- do not rely on this value for anything but (periodic) metals
  | Electronic free energy per atom                       :        -694.32775724 eV

  Self-consistency convergence accuracy:
  | Change of charge density      : 0.1191E-01
  | Change of sum of eigenvalues  : -.5464E+01 eV
  | Change of total energy        : 0.3800E-02 eV

  End self-consistency iteration #     7       :  max(cpu_time)    wall_clock(cpu1)
  | Time for this iteration                    :        2.772 s           2.771 s
  | Charge density update                      :        0.875 s           0.874 s
  | Density mixing                             :        0.014 s           0.015 s
  | Hartree multipole update                   :        0.007 s           0.007 s
  | Hartree multipole summation                :        0.475 s           0.474 s
  | Integration                                :        1.319 s           1.320 s
  | Solution of K.-S. eqns.                    :        0.081 s           0.081 s
  | Total energy evaluation                    :        0.000 s           0.000 s
------------------------------------------------------------

------------------------------------------------------------
          Begin self-consistency iteration #    8

  Date     :  20150727, Time     :  120044.266
------------------------------------------------------------
  Evaluating new KS density.
  Integration grid: deviation in total charge (<rho> - N_e) =   2.842171E-14
  Pulay mixing of updated and previous charge densities.

  Evaluating partitioned Hartree potential by multipole expansion.
  | Analytical far-field extrapolation by fixed multipoles:
  | Hartree multipole sum: apparent total charge =  -0.358447E-05
  Summing up the Hartree potential.
  Time summed over all CPUs for potential: real work        3.779 s, elapsed        3.792 s
  | RMS charge density error from multipole expansion :   0.192057E-01

  Integrating Hamiltonian matrix: batch-based integration.
  Time summed over all CPUs for integration: real work       10.258 s, elapsed       10.517 s

  Updating Kohn-Sham eigenvalues, eigenvectors, occupation numbers, and Fermi level.
  Solving generalized eigenproblem
  Updating Kohn-Sham eigenvalues and eigenfunctions.
  Solving real generalised eigenvalue problem by standard LAPACK (fast)
  Determining occupation numbers for Kohn-Sham eigenstates.
  | Chemical potential (Fermi level) in eV                 : -.23647001E+01
  | Error in electron count due to remaining E_F inaccuracy: 0.00000000E+00
  | Maximum occupation number of highest empty state:  0.00E+00

  Highest occupied state (VBM) at     -4.37577528 eV
  | Occupation number:      2.00000000

  Lowest unoccupied state (CBM) at    -1.93057122 eV
  | Occupation number:      0.00000000

  Overall HOMO-LUMO gap:      2.44520406 eV.

  Total energy components:
  | Sum of eigenvalues            :        -248.66231881 Ha       -6766.44596779 eV
  | XC energy correction          :         -55.85746139 Ha       -1519.95885896 eV
  | XC potential correction       :          71.40100403 Ha        1942.92017443 eV
  | Free-atom electrostatic energy:        -214.90422206 Ha       -5847.84141706 eV
  | Hartree energy correction     :         -11.26637020 Ha        -306.57353143 eV
  | van der Waals energy corr.    :           0.00000000 Ha           0.00000000 eV
  | Entropy correction            :           0.00000000 Ha           0.00000000 eV
  | ---------------------------
  | Total energy                  :        -459.28936842 Ha      -12497.89960081 eV
  | Total energy, T -> 0          :        -459.28936842 Ha      -12497.89960081 eV  <-- do not rely on this value for anything but (periodic) metals
  | Electronic free energy        :        -459.28936842 Ha      -12497.89960081 eV

  Derived energy quantities:
  | Kinetic energy                :         457.90489147 Ha       12460.22606625 eV
  | Electrostatic energy          :        -861.33679850 Ha      -23438.16680810 eV
  | Energy correction for multipole
  | error in Hartree potential    :          -0.00968467 Ha          -0.26353320 eV
  | Sum of eigenvalues per atom                           :        -375.91366488 eV
  | Total energy (T->0) per atom                          :        -694.32775560 eV  <-- do not rely on this value for anything but (periodic) metals
  | Electronic free energy per atom                       :        -694.32775560 eV

  Self-consistency convergence accuracy:
  | Change of charge density      : 0.2593E-02
  | Change of sum of eigenvalues  : 0.7169E+00 eV
  | Change of total energy        : 0.2957E-04 eV

  End self-consistency iteration #     8       :  max(cpu_time)    wall_clock(cpu1)
  | Time for this iteration                    :        2.770 s           2.771 s
  | Charge density update                      :        0.874 s           0.874 s
  | Density mixing                             :        0.016 s           0.016 s
  | Hartree multipole update                   :        0.006 s           0.007 s
  | Hartree multipole summation                :        0.475 s           0.475 s
  | Integration                                :        1.318 s           1.317 s
  | Solution of K.-S. eqns.                    :        0.081 s           0.081 s
  | Total energy evaluation                    :        0.000 s           0.000 s
------------------------------------------------------------

------------------------------------------------------------
          Begin self-consistency iteration #    9

  Date     :  20150727, Time     :  120047.037
------------------------------------------------------------
  Evaluating new KS density.
  Integration grid: deviation in total charge (<rho> - N_e) =   0.000000E+00
  Pulay mixing of updated and previous charge densities.

[...]
   Pulay + GGA                   : 0.138837E+02 0.694139E+01 0.120044E+01
   Van der Waals               : 0.292596E-02 -.113288E-01 0.231159E-02
   ----------------------------------------------------------------
   Total forces(  13)            : 0.119913E+01 0.146278E+01 -.529786E+00
  atom #   14
   Hellmann-Feynman + Multipole  : -.599350E+00 0.118945E-01 -.123307E+00
   Pulay + GGA                   : 0.129265E+00 -.550058E-01 0.246154E-01
   Van der Waals               : -.300894E-03 -.881371E-02 0.166116E-02
   ----------------------------------------------------------------
   Total forces(  14)            : -.470385E+00 -.519250E-01 -.970309E-01
  atom #   15
   Hellmann-Feynman + Multipole  : -.760577E+00 -.146894E+01 0.692599E+00
   Pulay + GGA                   : 0.451015E-01 0.101511E+00 -.673750E-01
   Van der Waals               : 0.585954E-03 -.155920E-02 0.628488E-04
   ----------------------------------------------------------------
   Total forces(  15)            : -.714890E+00 -.136899E+01 0.625287E+00
  atom #   16
   Hellmann-Feynman + Multipole  : -.168967E+01 -.127595E+02 -.630409E+00
   Pulay + GGA                   : 0.232448E+01 0.132881E+02 -.788173E+00
   Van der Waals               : -.174733E-04 -.545504E-02 0.706395E-03
   ----------------------------------------------------------------
   Total forces(  16)            : 0.634787E+00 0.523140E+00 -.141788E+01
  atom #   17
   Hellmann-Feynman + Multipole  : -.283671E+00 0.422158E+00 0.344706E+00
   Pulay + GGA                   : -.781247E-01 0.881107E-01 0.708854E-01
   Van der Waals               : 0.401618E-02 -.247354E-02 -.246824E-02
   ----------------------------------------------------------------
   Total forces(  17)            : -.357779E+00 0.507796E+00 0.413123E+00
  atom #   18
   Hellmann-Feynman + Multipole  : -.662138E+00 -.821504E+00 0.926474E+00
   Pulay + GGA                   : 0.302809E-01 0.708391E-01 -.648347E-01
   Van der Waals               : -.325666E-02 -.136449E-02 0.903103E-03
   ----------------------------------------------------------------
   Total forces(  18)            : -.635113E+00 -.752029E+00 0.862543E+00
  Timings for vdw_correction_hirshfeld (Tkatchenko-Scheffler 2009):
  | CPU time:        7.369 s, Wall clock time:        7.368 s.
  Removing unitary transformations (pure translations, rotations) from forces on atoms.
  Atomic forces before filtering:
  | Net force on center of mass :  0.937135E-02 0.558752E-02 0.674403E-02 eV/A
  | Net torque on center of mass:  -.660072E-02 0.643846E-02 -.108999E-01 eV
  Atomic forces after filtering:
  | Net force on center of mass :  0.267609E-15 -.535218E-15 -.356812E-15 eV/A
  | Net torque on center of mass:  0.302107E-14 0.755268E-15 0.000000E+00 eV
 
  Energy and forces in a compact form:
  | Total energy uncorrected      :         -0.124979916827630E+05 eV
  | Total energy corrected        :         -0.124979916827630E+05 eV  <-- do not rely on this value for anything but (periodic) metals
  | Electronic free energy        :         -0.124979916827630E+05 eV
  Total atomic forces (unitary forces cleaned) [eV/Ang]:
  |   1         -0.137229554288031E+01          0.356036442870066E+01         -0.227440847550927E+01
  |   2          0.218890128621676E+01         -0.351635893676593E+01          0.147547845859328E+01
  |   3         -0.188634999174635E+01         -0.349150134457110E+00         -0.246996351354647E+00
  |   4         -0.717137978749220E+00         -0.213049467446364E+01         -0.574621620370754E+00
  |   5         -0.220905139152377E+00          0.959208926985142E+00          0.111164401543356E+01
  |   6          0.651144827290026E+00          0.735152368956272E+00          0.192854988235298E+00
  |   7          0.291763714338880E+01          0.432323495217526E+00          0.147113289069671E+01
  |   8         -0.158278646573039E+00         -0.999579823872043E+00         -0.106390802330635E+01
  |   9         -0.153331785731902E+01          0.965332243737542E+00         -0.277137039660911E+00
  |  10         -0.222132383856504E+00          0.954195406332901E+00          0.228475328241666E+01
  |  11         -0.309699573186342E+00          0.225000315554374E+00         -0.222584859942291E+01
  |  12          0.101114079719701E+01         -0.115445800702194E+01          0.272675134575863E+00
  |  13          0.119847682016744E+01          0.146250839144628E+01         -0.530051544187973E+00
  |  14         -0.471027850705986E+00         -0.521276645105040E-01         -0.972477115078451E-01
  |  15         -0.715592184771018E+00         -0.136920081701302E+01          0.625095447055870E+00
  |  16          0.633997246256898E+00          0.522593970551014E+00         -0.141829848469741E+01
  |  17         -0.358675564797368E+00          0.507177898528210E+00          0.412699685098111E+00
  |  18         -0.635885406779396E+00         -0.752487387905742E+00          0.862183947912726E+00
 
  ------------------------------------ 
  Start decomposition of the XC Energy 
  ------------------------------------ 
  Hartree-Fock part   :          0.000000000 Ha              0.000000000 eV
  ------------------------------------ 
  X Energy            :        -53.894357205 Ha          -1466.540076298 eV
  C Energy GGA        :         -1.962669329 Ha            -53.406949767 eV
  Total XC Energy     :        -55.857026535 Ha          -1519.947026065 eV
  LDA X and C from self-consistent density 
  X Energy LDA        :        -48.569214043 Ha          -1321.635558197 eV
  C Energy LDA        :         -3.957557917 Ha           -107.690630170 eV
  ------------------------------------ 
  End decomposition of the XC Energy 
  ------------------------------------ 
  Performing Hirshfeld analysis of fragment charges and moments.
  ----------------------------------------------------------------------
  | Atom     1: O
  |   Hirshfeld charge        :     -0.32993112
  |   Free atom volume        :     23.95238533
  |   Hirshfeld volume        :     23.58614987
  |   Hirshfeld dipole vector :      0.02786391       0.04659059       0.03161881
  |   Hirshfeld dipole moment :      0.06282380
  |   Hirshfeld second moments:      0.01258824      -0.02850749       0.01821371
  |                                 -0.02850749      -0.02930193      -0.03608799
  |                                  0.01821371      -0.03608799      -0.07224827
  ----------------------------------------------------------------------
  | Atom     2: H
  |   Hirshfeld charge        :      0.10626469
  |   Free atom volume        :     10.44207651
  |   Hirshfeld volume        :      7.72057961
  |   Hirshfeld dipole vector :     -0.05954773       0.08603447      -0.02685058
  |   Hirshfeld dipole moment :      0.10802229
  |   Hirshfeld second moments:      0.10210588       0.00372734       0.00757282
  |                                  0.00372734       0.06259742      -0.00758004
  |                                  0.00757282      -0.00758004       0.07159478
  ----------------------------------------------------------------------
  | Atom     3: H
  |   Hirshfeld charge        :      0.05847749
  |   Free atom volume        :     10.44207651
  |   Hirshfeld volume        :      8.50282330
  |   Hirshfeld dipole vector :      0.04631779       0.00716124       0.01765314
  |   Hirshfeld dipole moment :      0.05008247
  |   Hirshfeld second moments:      0.02554254      -0.02747434      -0.00104273
  |                                 -0.02747434       0.07515952      -0.00491141
  |                                 -0.00104273      -0.00491141       0.05599118
  ----------------------------------------------------------------------
  | Atom     4: O
  |   Hirshfeld charge        :     -0.31770322
  |   Free atom volume        :     23.95238533
  |   Hirshfeld volume        :     22.55877972
  |   Hirshfeld dipole vector :     -0.03247327       0.02772989       0.01685740
  |   Hirshfeld dipole moment :      0.04590895
  |   Hirshfeld second moments:      0.01266868       0.05496999      -0.01270413
  |                                  0.05496999       0.00446949       0.01769383
  |                                 -0.01270413       0.01769383      -0.01473778
  ----------------------------------------------------------------------
  | Atom     5: H
  |   Hirshfeld charge        :      0.06865006
  |   Free atom volume        :     10.44207651
  |   Hirshfeld volume        :      8.26050340
  |   Hirshfeld dipole vector :      0.01049230       0.03913809       0.02957623
  |   Hirshfeld dipole moment :      0.05016605
  |   Hirshfeld second moments:      0.07787111      -0.00060826      -0.01260048
  |                                 -0.00060826       0.03030227      -0.01944315
  |                                 -0.01260048      -0.01944315       0.06608082
  ----------------------------------------------------------------------
  | Atom     6: H
  |   Hirshfeld charge        :      0.12088825
  |   Free atom volume        :     10.44207651
  |   Hirshfeld volume        :      6.98273441
  |   Hirshfeld dipole vector :     -0.10268580      -0.05898901       0.02089976
  |   Hirshfeld dipole moment :      0.12025339
  |   Hirshfeld second moments:      0.09035213       0.01432492      -0.00052383
  |                                  0.01432492       0.10428893       0.01235910
  |                                 -0.00052383       0.01235910       0.09512026
  ----------------------------------------------------------------------
  | Atom     7: O
  |   Hirshfeld charge        :     -0.18282512
  |   Free atom volume        :     23.95238533
  |   Hirshfeld volume        :     20.49643940
  |   Hirshfeld dipole vector :     -0.01875434      -0.03084466       0.03207077
  |   Hirshfeld dipole moment :      0.04828719
  |   Hirshfeld second moments:      0.07219492      -0.02692392       0.00597101
  |                                 -0.02692392       0.07990458       0.03799531
  |                                  0.00597101       0.03799531       0.04820614
  ----------------------------------------------------------------------
  | Atom     8: H
  |   Hirshfeld charge        :      0.16490041
  |   Free atom volume        :     10.44207651
  |   Hirshfeld volume        :      6.33538986
  |   Hirshfeld dipole vector :      0.00422134       0.06758701       0.08802293
  |   Hirshfeld dipole moment :      0.11105792
  |   Hirshfeld second moments:      0.12698087      -0.00759678       0.00956208
  |                                 -0.00759678       0.12464885      -0.00191756
  |                                  0.00956208      -0.00191756       0.10098005
  ----------------------------------------------------------------------
  | Atom     9: H
  |   Hirshfeld charge        :      0.17509941
  |   Free atom volume        :     10.44207651
  |   Hirshfeld volume        :      5.74837402
  |   Hirshfeld dipole vector :      0.09048523      -0.07961719       0.01293242
  |   Hirshfeld dipole moment :      0.12121766
  |   Hirshfeld second moments:      0.12612611       0.00164996       0.00065560
  |                                  0.00164996       0.13067386       0.01575036
  |                                  0.00065560       0.01575036       0.13265869
  ----------------------------------------------------------------------
  | Atom    10: O
  |   Hirshfeld charge        :     -0.26805614
  |   Free atom volume        :     23.95238533
  |   Hirshfeld volume        :     21.59235515
  |   Hirshfeld dipole vector :     -0.04936552      -0.02119087       0.01007563
  |   Hirshfeld dipole moment :      0.05465827
  |   Hirshfeld second moments:     -0.00568942      -0.02610504       0.02333065
  |                                 -0.02610504       0.02515826      -0.00371558
  |                                  0.02333065      -0.00371558       0.06449699
  ----------------------------------------------------------------------
  | Atom    11: H
  |   Hirshfeld charge        :      0.13956349
  |   Free atom volume        :     10.44207651
  |   Hirshfeld volume        :      6.39675700
  |   Hirshfeld dipole vector :      0.01129433      -0.01825927       0.11711959
  |   Hirshfeld dipole moment :      0.11907124
  |   Hirshfeld second moments:      0.11020100      -0.01275136       0.00668544
  |                                 -0.01275136       0.11267502       0.00239241
  |                                  0.00668544       0.00239241       0.10935451
  ----------------------------------------------------------------------
  | Atom    12: H
  |   Hirshfeld charge        :      0.08796092
  |   Free atom volume        :     10.44207651
  |   Hirshfeld volume        :      7.73192061
  |   Hirshfeld dipole vector :     -0.03290444       0.02249325       0.00312038
  |   Hirshfeld dipole moment :      0.03997980
  |   Hirshfeld second moments:      0.04895041       0.02195870      -0.01718516
  |                                  0.02195870       0.05972703       0.01265844
  |                                 -0.01718516       0.01265844       0.10169937
  ----------------------------------------------------------------------
  | Atom    13: O
  |   Hirshfeld charge        :     -0.21442658
  |   Free atom volume        :     23.95238533
  |   Hirshfeld volume        :     20.37452492
  |   Hirshfeld dipole vector :      0.01523345       0.00716694       0.02024408
  |   Hirshfeld dipole moment :      0.02632956
  |   Hirshfeld second moments:      0.06998427      -0.01349059      -0.00226921
  |                                 -0.01349059       0.07976160      -0.04164517
  |                                 -0.00226921      -0.04164517       0.04074475
  ----------------------------------------------------------------------
  | Atom    14: H
  |   Hirshfeld charge        :      0.16158229
  |   Free atom volume        :     10.44207651
  |   Hirshfeld volume        :      6.33135445
  |   Hirshfeld dipole vector :      0.09505448      -0.04335571       0.03623242
  |   Hirshfeld dipole moment :      0.11057965
  |   Hirshfeld second moments:      0.12043400       0.00904667      -0.00637189
  |                                  0.00904667       0.12426264      -0.00449782
  |                                 -0.00637189      -0.00449782       0.10675297
  ----------------------------------------------------------------------
  | Atom    15: H
  |   Hirshfeld charge        :      0.16842012
  |   Free atom volume        :     10.44207651
  |   Hirshfeld volume        :      5.58654178
  |   Hirshfeld dipole vector :      0.03432913       0.10410825      -0.05222983
  |   Hirshfeld dipole moment :      0.12142888
  |   Hirshfeld second moments:      0.14204883      -0.01005228       0.00405162
  |                                 -0.01005228       0.12540298      -0.00684725
  |                                  0.00405162      -0.00684725       0.12527457
  ----------------------------------------------------------------------
  | Atom    16: O
  |   Hirshfeld charge        :     -0.21674479
  |   Free atom volume        :     23.95238533
  |   Hirshfeld volume        :     20.62474339
  |   Hirshfeld dipole vector :      0.02133328       0.01268408       0.01101202
  |   Hirshfeld dipole moment :      0.02715252
  |   Hirshfeld second moments:      0.04555564      -0.02774903      -0.03343157
  |                                 -0.02774903       0.06357552      -0.00280032
  |                                 -0.03343157      -0.00280032       0.07409309
  ----------------------------------------------------------------------
  | Atom    17: H
  |   Hirshfeld charge        :      0.15762531
  |   Free atom volume        :     10.44207651
  |   Hirshfeld volume        :      5.80457489
  |   Hirshfeld dipole vector :     -0.06047636       0.08282782       0.06542875
  |   Hirshfeld dipole moment :      0.12165015
  |   Hirshfeld second moments:      0.12192642      -0.00157617      -0.00837351
  |                                 -0.00157617       0.12539523      -0.01118746
  |                                 -0.00837351      -0.01118746       0.13185095
  ----------------------------------------------------------------------
  | Atom    18: H
  |   Hirshfeld charge        :      0.12018664
  |   Free atom volume        :     10.44207651
  |   Hirshfeld volume        :      7.23777579
  |   Hirshfeld dipole vector :      0.01737862       0.03798973      -0.03554450
  |   Hirshfeld dipole moment :      0.05485114
  |   Hirshfeld second moments:      0.08225327      -0.01898303       0.02064810
  |                                 -0.01898303       0.11043695       0.01205392
  |                                  0.02064810       0.01205392       0.06481391
  ----------------------------------------------------------------------


------------------------------------------------------------------------------
  Final output of selected total energy values:

  The following output summarizes some interesting total energy values
  at the end of a run (AFTER all relaxation, molecular dynamics, etc.).

  | Total energy of the DFT / Hartree-Fock s.c.f. calculation      :         -12497.991682763 eV
  | Final zero-broadening corrected energy (caution - metals only) :         -12497.991682763 eV
  | For reference only, the value of 1 Hartree used in FHI-aims is :             27.211384500 eV

  Before relying on these values, please be sure to understand exactly which
  total energy value is referred to by a given number. Different objects may
  all carry the same name 'total energy'. Definitions:

  Total energy of the DFT / Hartree-Fock s.c.f. calculation:
  | Note that this energy does not include ANY quantities calculated after the
  | s.c.f. cycle, in particular not ANY RPA, MP2, etc. many-body perturbation terms.

  Final zero-broadening corrected energy:
  | For metallic systems only, a broadening of the occupation numbers at the Fermi
  | level can be extrapolated back to zero broadening by an electron-gas inspired
  | formula. For all systems that are not real metals, this value can be
  | meaningless and should be avoided.

------------------------------------------------------------------------------

------------------------------------------------------------
          Leaving FHI-aims.
          Date     :  20150727, Time     :  120112.043

          Computational steps:
          | Number of self-consistency cycles          :           15

          Detailed time accounting                     :  max(cpu_time)    wall_clock(cpu1)
          | Total time                                 :       50.576 s          50.606 s
          | Preparation time                           :        0.173 s           0.572 s
          | Grid partitioning                          :        0.176 s           0.176 s
          | Preloading free-atom quantities on grid    :        0.014 s           0.014 s
          | Free-atom superposition energy             :        0.089 s           0.088 s
          | Total time for integrations                :       21.840 s          21.840 s
          | Total time for solution of K.-S. equations :        1.513 s           1.512 s
          | Total time for density & force components  :       16.996 s          16.996 s
          | Total time for mixing                      :        0.227 s           0.229 s
          | Total time for Hartree multipole update    :        0.093 s           0.099 s
          | Total time for Hartree multipole sum       :        8.690 s           8.685 s
          | Total time for total energy evaluation     :        0.004 s           0.004 s
          | Total time for scaled ZORA corrections     :        0.000 s           0.000 s
          | Total time for TS (2009) vdW correction    :        0.072 s           0.073 s

          Have a nice day.
------------------------------------------------------------
