  MPI-parallelism will be employed.
------------------------------------------------------------
          Invoking FHI-aims ...
          Version 081213
          Compiled on 2013/08/29 at 17:41:06 on host generoso.

          When using FHI-aims, please cite the following reference:

          Volker Blum, Ralf Gehrke, Felix Hanke, Paula Havu,
          Ville Havu, Xinguo Ren, Karsten Reuter, and Matthias Scheffler,
          'Ab Initio Molecular Simulations with Numeric Atom-Centered Orbitals: FHI-aims',
          Computer Physics Communications 180, 2175-2196 (2009)

          For any questions about FHI-aims, please visit the aimsclub website
          with its forums and wiki. Contributions to both the forums and the
          wiki are warmly encouraged - they are for you, and everyone is welcome there.

------------------------------------------------------------

  Date     :  20150727, Time     :  123929.522
  Time zero on CPU 1             :   0.449920000000000E-01  s.
  Internal wall clock time zero  :           207232769.522  s.

  Using        8 parallel tasks.
  Task        0 on host gen60 reporting.
  Task        1 on host gen60 reporting.
  Task        2 on host gen60 reporting.
  Task        3 on host gen60 reporting.
  Task        4 on host gen60 reporting.
  Task        5 on host gen60 reporting.
  Task        6 on host gen60 reporting.
  Task        7 on host gen60 reporting.

  Performing system and environment tests:
  | Environment variable OMP_NUM_THREADS correctly set to 1.
  | Checking for scalapack...
  | No scalapack compiled in.

  Obtaining array dimensions for all initial allocations:
  
  -----------------------------------------------------------------------
  Parsing control.in (first pass over file, find array dimensions only).
  The contents of control.in will be repeated verbatim below
  unless switched off by setting 'verbatim_writeout .false.' .
  in the first line of control.in .
  -----------------------------------------------------------------------
  
  #########################################################################################
  #
  #  Volker Blum, FHI 2008 : Test run input file control.in
  #
  #########################################################################################
  #
  #  Physical model
  #
    xc                 rpbe
    spin               none
    relativistic       atomic_zora scalar
    charge             0.
   vdw_correction_hirshfeld
  #
  #  SCF convergence
  #
    occupation_type    gaussian 0.01
    mixer              pulay
      n_max_pulay        10
      charge_mix_param   0.1
    sc_accuracy_rho    5E-5
    sc_accuracy_eev    5E-3
    sc_accuracy_etot   5E-6
    sc_iter_limit      3000
  #
  #  Eigenvalue solver
  #
    KS_method          lapack
      empty_states       8
      basis_threshold    0.e-5
  #
  #  Efficiency
  #
  #   all previous settings are now default, except stratmann still
  #   undecided. Continue to handle stratmann with care, if at all.
  #
  #  partition_type stratmann
    partition_type rho_r2
  #  hartree_partition_type stratmann
  #
  #  Oprions for large clusters (100's of atoms: memory saving / better scaling)
  #
  # for periodic systems:
  #
    density_update_method orbital
    packed_matrix_format none
  #  k_grid 6 6 6
  #  output k_eigenvalue 1
  #  distributed_spline_storage .true.
  #
  #  Relaxation
  #
  #  relax_geometry   bfgs 5.e-3
    sc_accuracy_forces 5.E-4
    final_forces_cleaned .true.
  #
  #  Output options
  #
  #  output mulliken
    output Hirshfeld
  #  output dipole
  
  #harmonic_length_scale 0.001
  
  ################################################################################
  #
  #  FHI-aims code project
  #  VB, Fritz-Haber Institut, 2007
  #
  #  Suggested "safe" defaults for H atom (to be pasted into control.in file)
  #  Basis constructed for a non-relativistic H2 molecule using the
  #  PW-LDA functional.
  #
  ################################################################################
    species        H
  #     global species definitions
      nucleus             1
      cut_pot             4.0  2.0  1.0
      cut_free_atom       finite 8.0
      logarithmic         0.00010000 100.00  1.0123
      basis_dep_cutoff    1d-4  # 1d-4 is safe default - please check 5d-4 if you wish!
      radial_base         24 7.0
      radial_multiplier   2
      angular_grids       specified
        division   0.2783  110
        division   0.3822  194
        division   0.5626  302
  #      division   0.5922  434
  #      division   0.6227  590
  #      division   0.7206  770
        outer_grid  302
      l_hartree           4
  ################################################################################
  #
  #  Definition of "minimal" basis
  #
  ################################################################################
  #     valence basis states
      valence      1  s   1.
  #     ion occupancy
      ion_occ      1  s   0.5
  ################################################################################
  #
  #  Suggested additional basis functions. For production calculations,
  #  uncomment them one after another (the most important basis functions are
  #  listed first).
  #
  ################################################################################
  #  "First tier" - improvements: -1014.90 meV to -62.69 meV
       hydro 2 s 2.1
       hydro 2 p 3.5
  #  "Second tier" - improvements: -12.89 meV to -1.83 meV
       hydro 1 s 0.85
       hydro 2 p 3.7
       hydro 2 s 1.2
       hydro 3 d 7
  #  "Third tier" - improvements: -0.25 meV to -0.12 meV
  #     hydro 4 f 11.2
  #     hydro 3 p 4.8
  #     hydro 4 d 9
  #     hydro 3 s 3.2
  
  ################################################################################
  #
  #  FHI-aims code project
  #  VB, Fritz-Haber Institut, 2007
  #
  #  Suggested "safe" defaults for O atom (to be pasted into control.in file)
  #  All values have been tested for a non-relativistic, non-spinpolarized O2
  #  molecule using the PW-LDA functional. Validity for PBE is expected.
  #
  #  Constructed for dimers: 1.0 A, 1.208 A, 1.5 A, 2.0 A, 3.0 A
  #
  ################################################################################
    species        O
  #     global species definitions
      nucleus             8
      mass                15.9994
      l_hartree           4
      cut_pot             4.0  2.0  1.0
      cut_free_atom       finite 8.0
      basis_dep_cutoff    1d-4  # 1d-4 is safe default - please check 5d-4 if you wish!
      logarithmic         0.00010000 100.00  1.0123
      radial_base         36 7.0
      radial_multiplier   2
       angular_grids specified
        division   0.4087  110
        division   0.5181  194
        division   0.6184  302
  #      division   0.7315  434
  #      division   0.7934  590
  #      division   0.9656  770
  #      division   1.4041  974
  #      outer_grid 974
        outer_grid 302
  ################################################################################
  #
  #  Definition of "minimal" basis
  #
  ################################################################################
  #     valence basis states
      valence      2  s   2.
      valence      2  p   4.
  #     ion occupancy
      ion_occ      2  s   1.
      ion_occ      2  p   3.
  ################################################################################
  #
  #  Suggested additional basis functions. For production calculations,
  #  uncomment them one after another (the most important basis functions are
  #  listed first).
  #
  ################################################################################
  #  "First tier" - improvements: -699.05 meV to -159.38 meV
       hydro 2 p 1.8
       hydro 3 d 7.6
       hydro 3 s 6.4
  #  "Second tier" - improvements: -49.91 meV to -5.39 meV
       hydro 4 f 11.6
       hydro 3 p 6.2
       hydro 3 d 5.6
       hydro 5 g 17.6
       hydro 1 s 0.75
  #  "Third tier" - improvements: -2.83 meV to -0.50 meV
  #     ionic 2 p auto
  #     hydro 4 f 10.8
  #     hydro 4 d 4.7
  #     hydro 2 s 6.8
  #  "Fourth tier" - improvements: -0.40 meV to -0.12 meV
  #     hydro 3 p 5
  #     hydro 3 s 3.3
  #     hydro 5 g 15.6
  #     hydro 4 f 17.6
  #     hydro 4 d 14
  # Further basis functions - -0.08 meV and below
  #     hydro 3 s 2.1
  #     hydro 4 d 11.6
  #     hydro 3 p 16
  #     hydro 2 s 17.2
  
  
  -----------------------------------------------------------------------
  Completed first pass over input file control.in .
  -----------------------------------------------------------------------
  
  
  -----------------------------------------------------------------------
  Parsing geometry.in (first pass over file, find array dimensions only).
  The contents of geometry.in will be repeated verbatim below
  unless switched off by setting 'verbatim_writeout .false.' .
  in the first line of geometry.in .
  -----------------------------------------------------------------------
  
  atom      -4.053030000      0.065001000     -1.525160000  O
  atom      -4.566710000      0.974813000     -1.912820000  H
  atom      -3.067820000      0.330172000     -1.477310000  H
  atom      -3.818880000      2.024990000      2.187990000  O
  atom      -3.690880000      1.961360000      3.202150000  H
  atom      -4.546490000      2.751300000      2.045370000  H
  atom      -1.975360000      2.858040000      0.453140000  O
  atom      -1.223550000      3.375850000      0.786238000  H
  atom      -2.537520000      2.567960000      1.156120000  H
  
  -----------------------------------------------------------------------
  Completed first pass over input file geometry.in .
  -----------------------------------------------------------------------
  
 
  Basic array size parameters: 
  | Number of species                 :        2
  | Number of atoms                   :        9
  | Max. basis fn. angular momentum   :        4
  | Max. atomic/ionic basis occupied n:        2
  | Max. number of basis fn. types    :        2
  | Max. radial fns per species/type  :        8
  | Max. logarithmic grid size        :     1301
  | Max. radial integration grid size :       73
  | Max. angular integration grid size:      302
  | Max. angular grid division number :        8
  | Radial grid for Hartree potential :     1301
  | Number of spin channels           :        1

------------------------------------------------------------
          Reading file control.in.
------------------------------------------------------------
  XC: Using RPBE gradient-corrected functionals.
  Spin treatment: No spin polarisation.
  Scalar relativistic treatment of kinetic energy: on-site free-atom approximation to ZORA.
  Charge =   0.000000E+00: Neutral system requested explicitly.
  Using non-empirical van der Waals correction (Hirshfeld partitioning):
  Occupation type: Gaussian broadening, width =   0.100000E-01 eV.
  Using pulay charge density mixing.
  Pulay mixing - number of memorized iterations:   10
  Charge density mixing - mixing parameter:     0.1000
  Convergence accuracy of self-consistent charge density: 0.5000E-04
  Convergence accuracy of sum of eigenvalues: 0.5000E-02
  Convergence accuracy of total energy: 0.5000E-05
  Maximum number of s.-c. iterations  :  3000
  Kohn-Sham eigenvalues and eigenfunctions calculated by lapack diagonalisation (D&C).
  Number of empty states per atom:        8
  Threshold for basis singularities: 0.0000E+00
  Partition function in integrals calculations: rho / r^2
 Using packed matrix format           0
  Convergence accuracy of forces: 0.5000E-03
  Cleaning forces before final output.
  Hirshfeld charge analysis will be performed.
 
  Reading configuration options for species H                   .
  | Found nuclear charge :   1.0000
  | Found cutoff potl. onset [A], width [A], scale factor :    4.00000    2.00000    1.00000
  | Found cutoff specification for free atom: Cutoff potential begins at    8.00000 A.
  | Found logarithmic grid data [bohr] : 0.1000E-03 0.1000E+03 0.1012E+01
  | Threshold for basis-dependent cutoff potential is   0.100000E-03
  | Found data for basic radial integration grid :    24 points, outermost radius =    7.000 A
  | Found multiplier for basic radial grid :   2
  | Found angular grid specification: user-specified.
  | Specified grid contains     4 separate shells.
  | Check grid settings after all constraints further below.
  | Found l_max for Hartree potential  :   4
  | Found free-atom valence shell :  1 s   1.000
  | No ionic wave fns used. Skipping ion_occ.
  | Found hydrogenic basis function :  2 s   2.100
  | Found hydrogenic basis function :  2 p   3.500
  | Found hydrogenic basis function :  1 s   0.850
  | Found hydrogenic basis function :  2 p   3.700
  | Found hydrogenic basis function :  2 s   1.200
  | Found hydrogenic basis function :  3 d   7.000
  Species H                   : Missing cutoff potential type.
  Defaulting to exp(1/x)/(1-x)^2 type cutoff potential.
  Species H : On-site basis accuracy parameter (for Gram-Schmidt orthonormalisation) not specified.
  Using default value basis_acc =  0.1000000E-03.
  Species H                   : Using default innermost maximum threshold i_radial=  2 for radial functions.
  Species H                   : Basic radial grid will be enhanced according to radial_multiplier =   2, to contain    49 grid points.
 
  Reading configuration options for species O                   .
  | Found nuclear charge :   8.0000
  | Found atomic mass :    15.9994000000000      amu
  | Found l_max for Hartree potential  :   4
  | Found cutoff potl. onset [A], width [A], scale factor :    4.00000    2.00000    1.00000
  | Found cutoff specification for free atom: Cutoff potential begins at    8.00000 A.
  | Threshold for basis-dependent cutoff potential is   0.100000E-03
  | Found logarithmic grid data [bohr] : 0.1000E-03 0.1000E+03 0.1012E+01
  | Found data for basic radial integration grid :    36 points, outermost radius =    7.000 A
  | Found multiplier for basic radial grid :   2
  | Found angular grid specification: user-specified.
  | Specified grid contains     4 separate shells.
  | Check grid settings after all constraints further below.
  | Found free-atom valence shell :  2 s   2.000
  | Found free-atom valence shell :  2 p   4.000
  | No ionic wave fns used. Skipping ion_occ.
  | No ionic wave fns used. Skipping ion_occ.
  | Found hydrogenic basis function :  2 p   1.800
  | Found hydrogenic basis function :  3 d   7.600
  | Found hydrogenic basis function :  3 s   6.400
  | Found hydrogenic basis function :  4 f  11.600
  | Found hydrogenic basis function :  3 p   6.200
  | Found hydrogenic basis function :  3 d   5.600
  | Found hydrogenic basis function :  5 g  17.600
  | Found hydrogenic basis function :  1 s   0.750
  Species O                   : Missing cutoff potential type.
  Defaulting to exp(1/x)/(1-x)^2 type cutoff potential.
  Species O : On-site basis accuracy parameter (for Gram-Schmidt orthonormalisation) not specified.
  Using default value basis_acc =  0.1000000E-03.
  Species O                   : Using default innermost maximum threshold i_radial=  2 for radial functions.
  Species O                   : Basic radial grid will be enhanced according to radial_multiplier =   2, to contain    73 grid points.
 
  Finished reading input file 'control.in'. Consistency checks are next.
 
  Target number of points in a grid batch is not set. Defaulting to  100
  Method for grid partitioning is not set. Defaulting to parallel hash+maxmin partitioning.
  Batch size limit is not set. Defaulting to    200
  By default, will store active basis functions for each batch.
  If in need of memory, prune_basis_once .false. can be used to disable this option.
  communication_type for Hartree potential was not specified.
  Defaulting to calc_hartree .
  Pulay mixer: Number of initial linear mixing iterations not set.
  Defaulting to    0 iterations.
  Work space size for distributed Hartree potential not set.
  Defaulting to   0.200000E+03 MB.
  Algorithm-dependent basis array size parameters:
  | n_max_pulay                         :       10
  Geometry relaxation not requested: no relaxation will be performed.
  Handling of forces: Unphysical translation and rotation will be removed from forces.
  No accuracy limit for integral partition fn. given. Defaulting to 0.1000E-14.
  No threshold value for u(r) in integrations given. Defaulting to 0.1000E-05.
  No accuracy for occupation numbers given. Defaulting to 0.1000E-07.
  No threshold value for occupation numbers given. Defaulting to 0.0000E+00.
  No accuracy for fermi level given. Defaulting to 0.1000E-19.
  Maximum # of iterations to find E_F not set. Defaulting to  200.
  Will not use alltoall communication since running on < 1024 CPUs.
  Partitioning for Hartree potential was not defined. Using partition_type for integrals.
  | Reporting present value of keyword multip_moments_threshold  :       0.10000000E-09
  | This value may affect high angular momentum components of the Hartree potential in periodic systems.
  No q(lm)/r^(l+1) cutoff set for long-range Hartree potential.
  | Using default value of  0.100000E-09 .
  | Verify using the multipole_threshold keyword.
  Defaulting to new monopole extrapolation.
  Density update method: Loop over occupied states selected for charge density update.
------------------------------------------------------------


------------------------------------------------------------
          Reading geometry description geometry.in.
------------------------------------------------------------
  Input structure read successfully.
  The structure contains        9 atoms,  and a total of         30.000 electrons.

  Input geometry:
  | No unit cell requested.
  | Atomic structure:
  |       Atom                x [A]            y [A]            z [A]
  |    1: Species O             -4.053030         0.065001        -1.525160
  |    2: Species H             -4.566710         0.974813        -1.912820
  |    3: Species H             -3.067820         0.330172        -1.477310
  |    4: Species O             -3.818880         2.024990         2.187990
  |    5: Species H             -3.690880         1.961360         3.202150
  |    6: Species H             -4.546490         2.751300         2.045370
  |    7: Species O             -1.975360         2.858040         0.453140
  |    8: Species H             -1.223550         3.375850         0.786238
  |    9: Species H             -2.537520         2.567960         1.156120
  |

  | The smallest distance between any two atoms is         0.94570141 AA.
  |
  | The first atom of this pair is atom number                      7 .
  | The second atom of this pair is atom number                     9 .

  Structure-dependent array size parameters: 
  | Maximum number of distinct radial functions  :       18
  | Maximum number of basis functions            :      207
  | Number of Kohn-Sham states (occupied + empty):       51
------------------------------------------------------------

------------------------------------------------------------
          Preparing all fixed parts of the calculation.
------------------------------------------------------------
  Determining machine precision:
    2.225073858507201E-308
  Setting up grids for atomic and cluster calculations.

  Creating wave function, potential, and density for free atoms.

  Species: H

  List of occupied orbitals and eigenvalues:
    n    l              occ      energy [Ha]    energy [eV]
    1    0           1.0000        -0.241408        -6.5691


  Species: O

  List of occupied orbitals and eigenvalues:
    n    l              occ      energy [Ha]    energy [eV]
    1    0           2.0000       -18.944147      -515.4965
    2    0           2.0000        -0.883529       -24.0421
    2    1           4.0000        -0.330176        -8.9845

  Creating fixed part of basis set: Ionic, confined, hydrogenic.
 
  H                    hydrogenic:
 
  List of hydrogenic basis orbitals: 
    n    l      effective z      eigenvalue [eV]  inner max. [A]     outer max. [A]     outer radius [A]   
    2    0         2.100000       -14.9965           0.193241           1.317192           5.372934
    2    1         3.500000       -41.6672           0.602363           0.602363           4.056010
    1    0         0.850000        -9.8292           0.624864           0.624864           5.372934
    2    1         3.700000       -46.5653           0.573616           0.573616           3.909951
    2    0         1.200000        -4.5995           0.334977           2.228160           5.505921
    3    2         7.000000       -74.0753           0.680692           0.680692           3.769152
 
 
  O                    hydrogenic:
 
  List of hydrogenic basis orbitals: 
    n    l      effective z      eigenvalue [eV]  inner max. [A]     outer max. [A]     outer radius [A]   
    2    1         1.800000       -11.0118           1.178546           1.178546           5.432516
    3    2         7.600000       -87.3182           0.624117           0.624117           3.541422
    3    0         6.400000       -61.9209           0.061166           1.081887           4.306510
    4    3        11.600000      -114.4238           0.731621           0.731621           3.584982
    3    1         6.200000       -58.1113           0.255677           1.030255           4.306510
    3    2         5.600000       -47.4081           0.847222           0.847222           4.413102
    5    4        17.600000      -168.5799           0.749730           0.749730           3.372413
    1    0         0.750000        -7.6499           0.705275           0.705275           5.366508
 

  Adding cutoff potential to free-atom effective potential.
  Creating atomic-like basis functions for current effective potential.

  Species H                   :

  List of atomic basis orbitals and eigenvalues:
    n    l      energy [Ha]    energy [eV]    outer radius [A]
    1    0        -0.241374        -6.5681       5.372934


  Species O                   :

  List of atomic basis orbitals and eigenvalues:
    n    l      energy [Ha]    energy [eV]    outer radius [A]
    1    0       -18.944147      -515.4965       1.415745
    2    0        -0.883529       -24.0421       5.048305
    2    1        -0.330173        -8.9845       5.301302

  Assembling full basis from fixed parts.
  | Species H :   atomic orbital   1 s accepted.
  | Species H :    hydro orbital   2 s accepted.
  | Species H :    hydro orbital   1 s accepted.
  | Species H :    hydro orbital   2 s accepted.
  | Species H :    hydro orbital   2 p accepted.
  | Species H :    hydro orbital   2 p accepted.
  | Species H :    hydro orbital   3 d accepted.
  | Species O :   atomic orbital   1 s accepted.
  | Species O :    hydro orbital   3 s accepted.
  | Species O :   atomic orbital   2 s accepted.
  | Species O :    hydro orbital   1 s accepted.
  | Species O :    hydro orbital   3 p accepted.
  | Species O :   atomic orbital   2 p accepted.
  | Species O :    hydro orbital   2 p accepted.
  | Species O :    hydro orbital   3 d accepted.
  | Species O :    hydro orbital   3 d accepted.
  | Species O :    hydro orbital   4 f accepted.
  | Species O :    hydro orbital   5 g accepted.
 
  Basis size parameters after reduction:
  | Total number of radial functions:       18
  | Total number of basis functions :      207
 
  Testing on-site integration grid accuracy.
  |  Species  Function  <phi|h_atom|phi> (log., in eV)  <phi|h_atom|phi> (rad., in eV)
           1        1                 -6.5683835025                 -6.5684759159
           1        2                 13.3711789951                 13.3708738703
           1        3                 23.6590910787                 23.6532055418
           1        4                 16.2963827186                 16.1870710655 ***
           1        5                 28.7627214838                 28.7627215090
           1        6                 59.5965249172                 59.5965950857
           1        7                 60.2220506392                 60.2220503827
           2        8               -515.4964576505               -515.4964530710
           2        9                 15.3030791347                 15.3030722972
           2       10                -21.7296094581                -21.7296135470
           2       11                 14.2969371730                 14.2969701621
           2       12                 21.0679693190                 21.0679697493
           2       13                 -2.3833606469                 -2.3833613176
           2       14                 13.7067136422                 13.7066766629
           2       15                 45.8013116808                 45.8013116965
           2       16                 52.2309815402                 52.2309831494
           2       17                 85.4120732416                 85.4120732763
           2       18                142.1019167745                142.1019167817
 * Note: Onsite integrals marked "***" above are less accurate than
 * onsite_accuracy_threshold =    0.03000 eV. Usually, this is harmless.
 * When in doubt, tighten the "radial" and/or "radial_multiplier" flags to check.

  Preparing densities etc. for the partition functions (integrals / Hartree potential).

  Preparations completed.
  max(cpu_time)          :      0.170 s.
  Wall clock time (cpu1) :      0.570 s.
------------------------------------------------------------

------------------------------------------------------------
          Begin self-consistency loop: Initialization.

          Date     :  20150727, Time     :  123930.134
------------------------------------------------------------

  Initializing index lists of integration centers etc. from given atomic structure:
  | Number of centers in hartree potential         :         9
  | Number of centers in hartree multipole         :         9
  | Number of centers in electron density summation:         9
  | Number of centers in basis integrals           :         9
  | Number of centers in integrals                 :         9
  Partitioning the integration grid into batches with parallel hashing+maxmin method.
  | Number of batches:     1289
  | Maximal batch size:     200
  | Minimal batch size:      49
  | Average batch size:      91.564
  | Standard deviation of batch sizes:      25.919

  Integration load balanced across     8 MPI tasks.
  Work distribution over tasks is as follows:
  Task     0 has      14718 integration points.
  Task     1 has      14723 integration points.
  Task     2 has      14795 integration points.
  Task     3 has      14797 integration points.
  Task     4 has      14802 integration points.
  Task     5 has      14665 integration points.
  Task     6 has      14811 integration points.
  Task     7 has      14715 integration points.
  Initializing partition tables, free-atom densities, potentials, etc. across the integration grid (initialize_grid_storage).
  | Net number of integration points:   118026
  | of which are non-zero points    :   117536
  Obtaining max. number of non-zero basis functions in each batch (get_n_compute_maxes).
  | Maximal number of non-zero basis functions:      206 in task     0
  | Maximal number of non-zero basis functions:      206 in task     1
  | Maximal number of non-zero basis functions:      206 in task     2
  | Maximal number of non-zero basis functions:      206 in task     3
  | Maximal number of non-zero basis functions:      206 in task     4
  | Maximal number of non-zero basis functions:      206 in task     5
  | Maximal number of non-zero basis functions:      206 in task     6
  | Maximal number of non-zero basis functions:      206 in task     7
  Integrating Hamiltonian matrix: batch-based integration.
  Time summed over all CPUs for integration: real work        2.351 s, elapsed        2.446 s
  Integrating overlap matrix.
  Time summed over all CPUs for integration: real work        1.206 s, elapsed        1.253 s

  Updating Kohn-Sham eigenvalues, eigenvectors, occupation numbers, and Fermi level.
  Solving generalized eigenproblem
  Updating Kohn-Sham eigenvalues and eigenfunctions.
  Transforming overlap matrix and checking for singularities.
  Overlap matrix is nonsingular:
  | Lowest eigenvalue:  0.311164E-03
  Solving real generalised eigenvalue problem by standard LAPACK (fast)
  Determining occupation numbers for Kohn-Sham eigenstates.
  | Chemical potential (Fermi level) in eV                 : -.60922631E+01
  | Error in electron count due to remaining E_F inaccuracy: 0.00000000E+00
  | Maximum occupation number of highest empty state:  0.00E+00

  Writing Kohn-Sham eigenvalues.

  State    Occupation    Eigenvalue [Ha]    Eigenvalue [eV]
      1       2.00000         -19.054621         -518.50262
      2       2.00000         -19.032581         -517.90287
      3       2.00000         -19.019188         -517.53842
      4       2.00000          -1.105390          -30.07918
      5       2.00000          -1.064862          -28.97636
      6       2.00000          -1.042753          -28.37475
      7       2.00000          -0.651557          -17.72976
      8       2.00000          -0.594032          -16.16442
      9       2.00000          -0.569541          -15.49799
     10       2.00000          -0.509058          -13.85216
     11       2.00000          -0.490144          -13.33749
     12       2.00000          -0.478829          -13.02959
     13       2.00000          -0.438600          -11.93491
     14       2.00000          -0.424835          -11.56035
     15       2.00000          -0.409168          -11.13404
     16       0.00000          -0.092505           -2.51719
     17       0.00000          -0.075986           -2.06767
     18       0.00000          -0.043506           -1.18386
     19       0.00000          -0.020551           -0.55923
     20       0.00000          -0.013787           -0.37517
     21       0.00000           0.054264            1.47660
     22       0.00000           0.073355            1.99609
     23       0.00000           0.076482            2.08119
     24       0.00000           0.086448            2.35236
     25       0.00000           0.098887            2.69086
     26       0.00000           0.100931            2.74648
     27       0.00000           0.105877            2.88105
     28       0.00000           0.127462            3.46841
     29       0.00000           0.139941            3.80800
     30       0.00000           0.152133            4.13976
     31       0.00000           0.183646            4.99727
     32       0.00000           0.198922            5.41295
     33       0.00000           0.230290            6.26652
     34       0.00000           0.244923            6.66469
     35       0.00000           0.253000            6.88447
     36       0.00000           0.282173            7.67831
     37       0.00000           0.327914            8.92300
     38       0.00000           0.335560            9.13104
     39       0.00000           0.364467            9.91766
     40       0.00000           0.382361           10.40456
     41       0.00000           0.385445           10.48851
     42       0.00000           0.394404           10.73227
     43       0.00000           0.408601           11.11861
     44       0.00000           0.435562           11.85224
     45       0.00000           0.445007           12.10926
     46       0.00000           0.459442           12.50206
     47       0.00000           0.493489           13.42852
     48       0.00000           0.519431           14.13444
     49       0.00000           0.555086           15.10467
     50       0.00000           0.591612           16.09859
     51       0.00000           0.650529           17.70181

  Highest occupied state (VBM) at    -11.13403635 eV
  | Occupation number:      2.00000000

  Lowest unoccupied state (CBM) at    -2.51719261 eV
  | Occupation number:      0.00000000

  Overall HOMO-LUMO gap:      8.61684374 eV.
  Calculating total energy contributions from superposition of free atom densities.

  Total energy components:
  | Sum of eigenvalues            :        -129.77030950 Ha       -3531.22978859 eV
  | XC energy correction          :         -27.28106334 Ha        -742.35550423 eV
  | XC potential correction       :          34.85068236 Ha         948.33531777 eV
  | Free-atom electrostatic energy:        -107.63765374 Ha       -2928.96958271 eV
  | Hartree energy correction     :           0.00000000 Ha           0.00000000 eV
  | van der Waals energy corr.    :           0.00000000 Ha           0.00000000 eV
  | Entropy correction            :           0.00000000 Ha           0.00000000 eV
  | ---------------------------
  | Total energy                  :        -229.83834423 Ha       -6254.21955777 eV
  | Total energy, T -> 0          :        -229.83834423 Ha       -6254.21955777 eV  <-- do not rely on this value for anything but (periodic) metals
  | Electronic free energy        :        -229.83834423 Ha       -6254.21955777 eV

  Derived energy quantities:
  | Kinetic energy                :         227.38381070 Ha        6187.42830212 eV
  | Electrostatic energy          :        -429.94109159 Ha      -11699.29235566 eV
  | Energy correction for multipole
  | error in Hartree potential    :           0.00000000 Ha           0.00000000 eV
  | Sum of eigenvalues per atom                           :        -392.35886540 eV
  | Total energy (T->0) per atom                          :        -694.91328420 eV  <-- do not rely on this value for anything but (periodic) metals
  | Electronic free energy per atom                       :        -694.91328420 eV
  Initialize hartree_potential_storage
  Max. number of atoms included in rho_multipole:            9

  End scf initialization - timings             :  max(cpu_time)    wall_clock(cpu1)
  | Time for scf. initialization               :        0.713 s           0.713 s
  | Boundary condition initialization          :        0.000 s           0.000 s
  | Integration                                :        0.464 s           0.464 s
  | Solution of K.-S. eqns.                    :        0.064 s           0.064 s
  | Grid partitioning                          :        0.089 s           0.089 s
  | Preloading free-atom quantities on grid    :        0.013 s           0.013 s
  | Free-atom superposition energy             :        0.030 s           0.030 s
  | Total energy evaluation                    :        0.000 s           0.000 s
------------------------------------------------------------

------------------------------------------------------------
          Begin self-consistency iteration #    1

  Date     :  20150727, Time     :  123930.847
------------------------------------------------------------
  Evaluating new KS density.
  Integration grid: deviation in total charge (<rho> - N_e) =   0.000000E+00
  Pulay mixing of updated and previous charge densities.

  Evaluating partitioned Hartree potential by multipole expansion.
  | Analytical far-field extrapolation by fixed multipoles:
  | Hartree multipole sum: apparent total charge =  -0.118460E-05
  Summing up the Hartree potential.
  Time summed over all CPUs for potential: real work        0.944 s, elapsed        0.953 s
  | RMS charge density error from multipole expansion :   0.119643E-02

  Integrating Hamiltonian matrix: batch-based integration.
  Time summed over all CPUs for integration: real work        2.341 s, elapsed        2.428 s

  Updating Kohn-Sham eigenvalues, eigenvectors, occupation numbers, and Fermi level.
  Solving generalized eigenproblem
  Updating Kohn-Sham eigenvalues and eigenfunctions.
  Solving real generalised eigenvalue problem by standard LAPACK (fast)
  Determining occupation numbers for Kohn-Sham eigenstates.
  | Chemical potential (Fermi level) in eV                 : -.56778766E+01
  | Error in electron count due to remaining E_F inaccuracy: 0.00000000E+00
  | Maximum occupation number of highest empty state:  0.00E+00

  Writing Kohn-Sham eigenvalues.

  State    Occupation    Eigenvalue [Ha]    Eigenvalue [eV]
      1       2.00000         -18.968788         -516.16700
      2       2.00000         -18.966294         -516.09912
      3       2.00000         -18.944075         -515.49451
      4       2.00000          -1.061942          -28.89692
      5       2.00000          -1.032580          -28.09794
      6       2.00000          -1.003570          -27.30852
      7       2.00000          -0.613594          -16.69675
      8       2.00000          -0.567951          -15.45474
      9       2.00000          -0.537178          -14.61736
     10       2.00000          -0.471323          -12.82534
     11       2.00000          -0.452230          -12.30580
     12       2.00000          -0.440658          -11.99093
     13       2.00000          -0.394520          -10.73544
     14       2.00000          -0.388993          -10.58503
     15       2.00000          -0.368109          -10.01675
     16       0.00000          -0.084323           -2.29455
     17       0.00000          -0.067888           -1.84732
     18       0.00000          -0.035388           -0.96295
     19       0.00000          -0.012710           -0.34586
     20       0.00000          -0.005291           -0.14399
     21       0.00000           0.061623            1.67684
     22       0.00000           0.081468            2.21685
     23       0.00000           0.085820            2.33529
     24       0.00000           0.094456            2.57028
     25       0.00000           0.106619            2.90126
     26       0.00000           0.109162            2.97046
     27       0.00000           0.113146            3.07886
     28       0.00000           0.136069            3.70262
     29       0.00000           0.154184            4.19556
     30       0.00000           0.162670            4.42648
     31       0.00000           0.192888            5.24875
     32       0.00000           0.208958            5.68605
     33       0.00000           0.239368            6.51355
     34       0.00000           0.253818            6.90674
     35       0.00000           0.260815            7.09715
     36       0.00000           0.289971            7.89052
     37       0.00000           0.336895            9.16739
     38       0.00000           0.342322            9.31506
     39       0.00000           0.373844           10.17283
     40       0.00000           0.391516           10.65371
     41       0.00000           0.393841           10.71697
     42       0.00000           0.400952           10.91045
     43       0.00000           0.417289           11.35500
     44       0.00000           0.445508           12.12288
     45       0.00000           0.455655           12.39902
     46       0.00000           0.467471           12.72053
     47       0.00000           0.505565           13.75712
     48       0.00000           0.531001           14.44928
     49       0.00000           0.567783           15.45017
     50       0.00000           0.603487           16.42172
     51       0.00000           0.662479           18.02698

  Highest occupied state (VBM) at    -10.01674699 eV
  | Occupation number:      2.00000000

  Lowest unoccupied state (CBM) at    -2.29455332 eV
  | Occupation number:      0.00000000

  Overall HOMO-LUMO gap:      7.72219366 eV.

  Total energy components:
  | Sum of eigenvalues            :        -128.42361172 Ha       -3494.58427749 eV
  | XC energy correction          :         -27.42561742 Ha        -746.28902079 eV
  | XC potential correction       :          35.04036572 Ha         953.49686472 eV
  | Free-atom electrostatic energy:        -107.63765374 Ha       -2928.96958271 eV
  | Hartree energy correction     :          -1.30380845 Ha         -35.47843296 eV
  | van der Waals energy corr.    :           0.00000000 Ha           0.00000000 eV
  | Entropy correction            :           0.00000000 Ha           0.00000000 eV
  | ---------------------------
  | Total energy                  :        -229.75032561 Ha       -6251.82444924 eV
  | Total energy, T -> 0          :        -229.75032561 Ha       -6251.82444924 eV  <-- do not rely on this value for anything but (periodic) metals
  | Electronic free energy        :        -229.75032561 Ha       -6251.82444924 eV

  Derived energy quantities:
  | Kinetic energy                :         228.23157172 Ha        6210.49705313 eV
  | Electrostatic energy          :        -430.55627991 Ha      -11716.03248158 eV
  | Energy correction for multipole
  | error in Hartree potential    :          -0.00007092 Ha          -0.00192984 eV
  | Sum of eigenvalues per atom                           :        -388.28714194 eV
  | Total energy (T->0) per atom                          :        -694.64716103 eV  <-- do not rely on this value for anything but (periodic) metals
  | Electronic free energy per atom                       :        -694.64716103 eV

  Self-consistency convergence accuracy:
  | Change of charge density      : 0.5128E+00
  | Change of sum of eigenvalues  : 0.3665E+02 eV
  | Change of total energy        : 0.2395E+01 eV

  End self-consistency iteration #     1       :  max(cpu_time)    wall_clock(cpu1)
  | Time for this iteration                    :        0.667 s           0.667 s
  | Charge density update                      :        0.220 s           0.220 s
  | Density mixing                             :        0.002 s           0.002 s
  | Hartree multipole update                   :        0.004 s           0.003 s
  | Hartree multipole summation                :        0.119 s           0.120 s
  | Integration                                :        0.305 s           0.304 s
  | Solution of K.-S. eqns.                    :        0.016 s           0.016 s
  | Total energy evaluation                    :        0.000 s           0.000 s
------------------------------------------------------------

------------------------------------------------------------
          Begin self-consistency iteration #    2

  Date     :  20150727, Time     :  123931.514
------------------------------------------------------------
  Evaluating new KS density.
  Integration grid: deviation in total charge (<rho> - N_e) =   3.552714E-15
  Pulay mixing of updated and previous charge densities.

  Evaluating partitioned Hartree potential by multipole expansion.
  | Analytical far-field extrapolation by fixed multipoles:
  | Hartree multipole sum: apparent total charge =  -0.325307E-05
  Summing up the Hartree potential.
  Time summed over all CPUs for potential: real work        0.943 s, elapsed        0.952 s
  | RMS charge density error from multipole expansion :   0.468207E-02

  Integrating Hamiltonian matrix: batch-based integration.
  Time summed over all CPUs for integration: real work        2.334 s, elapsed        2.411 s

  Updating Kohn-Sham eigenvalues, eigenvectors, occupation numbers, and Fermi level.
  Solving generalized eigenproblem
  Updating Kohn-Sham eigenvalues and eigenfunctions.
  Solving real generalised eigenvalue problem by standard LAPACK (fast)
  Determining occupation numbers for Kohn-Sham eigenstates.
  | Chemical potential (Fermi level) in eV                 : -.47132508E+01
  | Error in electron count due to remaining E_F inaccuracy: 0.00000000E+00
  | Maximum occupation number of highest empty state:  0.00E+00

  Highest occupied state (VBM) at     -7.51454640 eV
  | Occupation number:      2.00000000

  Lowest unoccupied state (CBM) at    -1.83644558 eV
  | Occupation number:      0.00000000

  Overall HOMO-LUMO gap:      5.67810082 eV.

  Total energy components:
  | Sum of eigenvalues            :        -125.38779636 Ha       -3411.97553839 eV
  | XC energy correction          :         -27.76577396 Ha        -755.54515125 eV
  | XC potential correction       :          35.48639145 Ha         965.63384230 eV
  | Free-atom electrostatic energy:        -107.63765374 Ha       -2928.96958271 eV
  | Hartree energy correction     :          -4.34786625 Ha        -118.31146032 eV
  | van der Waals energy corr.    :           0.00000000 Ha           0.00000000 eV
  | Entropy correction            :           0.00000000 Ha           0.00000000 eV
  | ---------------------------
  | Total energy                  :        -229.65269887 Ha       -6249.16789038 eV
  | Total energy, T -> 0          :        -229.65269887 Ha       -6249.16789038 eV  <-- do not rely on this value for anything but (periodic) metals
  | Electronic free energy        :        -229.65269887 Ha       -6249.16789038 eV

  Derived energy quantities:
  | Kinetic energy                :         229.84588386 Ha        6254.42472145 eV
  | Electrostatic energy          :        -431.73280877 Ha      -11748.04746057 eV
  | Energy correction for multipole
  | error in Hartree potential    :          -0.00070921 Ha          -0.01929858 eV
  | Sum of eigenvalues per atom                           :        -379.10839315 eV
  | Total energy (T->0) per atom                          :        -694.35198782 eV  <-- do not rely on this value for anything but (periodic) metals
  | Electronic free energy per atom                       :        -694.35198782 eV

  Self-consistency convergence accuracy:
  | Change of charge density      : 0.3862E+00
  | Change of sum of eigenvalues  : 0.8261E+02 eV
  | Change of total energy        : 0.2657E+01 eV

  End self-consistency iteration #     2       :  max(cpu_time)    wall_clock(cpu1)
  | Time for this iteration                    :        0.662 s           0.662 s
  | Charge density update                      :        0.217 s           0.217 s
  | Density mixing                             :        0.003 s           0.003 s
  | Hartree multipole update                   :        0.004 s           0.003 s
  | Hartree multipole summation                :        0.119 s           0.120 s
  | Integration                                :        0.302 s           0.302 s
  | Solution of K.-S. eqns.                    :        0.017 s           0.016 s
  | Total energy evaluation                    :        0.000 s           0.000 s
------------------------------------------------------------

------------------------------------------------------------
          Begin self-consistency iteration #    3

  Date     :  20150727, Time     :  123932.176
------------------------------------------------------------
  Evaluating new KS density.
  Integration grid: deviation in total charge (<rho> - N_e) =   0.000000E+00
  Pulay mixing of updated and previous charge densities.

  Evaluating partitioned Hartree potential by multipole expansion.
  | Analytical far-field extrapolation by fixed multipoles:
  | Hartree multipole sum: apparent total charge =  -0.305816E-05
  Summing up the Hartree potential.
  Time summed over all CPUs for potential: real work        0.943 s, elapsed        0.952 s
  | RMS charge density error from multipole expansion :   0.973828E-02

  Integrating Hamiltonian matrix: batch-based integration.
  Time summed over all CPUs for integration: real work        2.337 s, elapsed        2.413 s

  Updating Kohn-Sham eigenvalues, eigenvectors, occupation numbers, and Fermi level.
  Solving generalized eigenproblem
  Updating Kohn-Sham eigenvalues and eigenfunctions.
  Solving real generalised eigenvalue problem by standard LAPACK (fast)
  Determining occupation numbers for Kohn-Sham eigenstates.
  | Chemical potential (Fermi level) in eV                 : -.44508263E+01
  | Error in electron count due to remaining E_F inaccuracy: 0.00000000E+00
  | Maximum occupation number of highest empty state:  0.00E+00

  Highest occupied state (VBM) at     -7.27635181 eV
  | Occupation number:      2.00000000

  Lowest unoccupied state (CBM) at    -1.76261228 eV
  | Occupation number:      0.00000000

  Overall HOMO-LUMO gap:      5.51373952 eV.

  Total energy components:
  | Sum of eigenvalues            :        -125.51483312 Ha       -3415.43238455 eV
  | XC energy correction          :         -27.74974997 Ha        -755.10911628 eV
  | XC potential correction       :          35.46289799 Ha         964.99455259 eV
  | Free-atom electrostatic energy:        -107.63765374 Ha       -2928.96958271 eV
  | Hartree energy correction     :          -4.20991614 Ha        -114.55764672 eV
  | van der Waals energy corr.    :           0.00000000 Ha           0.00000000 eV
  | Entropy correction            :           0.00000000 Ha           0.00000000 eV
  | ---------------------------
  | Total energy                  :        -229.64925499 Ha       -6249.07417767 eV
  | Total energy, T -> 0          :        -229.64925499 Ha       -6249.07417767 eV  <-- do not rely on this value for anything but (periodic) metals
  | Electronic free energy        :        -229.64925499 Ha       -6249.07417767 eV

  Derived energy quantities:
  | Kinetic energy                :         228.60846043 Ha        6220.75271680 eV
  | Electrostatic energy          :        -430.50796545 Ha      -11714.71777819 eV
  | Energy correction for multipole
  | error in Hartree potential    :          -0.00341619 Ha          -0.09295924 eV
  | Sum of eigenvalues per atom                           :        -379.49248717 eV
  | Total energy (T->0) per atom                          :        -694.34157530 eV  <-- do not rely on this value for anything but (periodic) metals
  | Electronic free energy per atom                       :        -694.34157530 eV

  Self-consistency convergence accuracy:
  | Change of charge density      : 0.2005E+00
  | Change of sum of eigenvalues  : -.3457E+01 eV
  | Change of total energy        : 0.9371E-01 eV

  End self-consistency iteration #     3       :  max(cpu_time)    wall_clock(cpu1)
  | Time for this iteration                    :        0.662 s           0.662 s
  | Charge density update                      :        0.216 s           0.215 s
  | Density mixing                             :        0.004 s           0.005 s
  | Hartree multipole update                   :        0.003 s           0.003 s
  | Hartree multipole summation                :        0.120 s           0.120 s
  | Integration                                :        0.303 s           0.302 s
  | Solution of K.-S. eqns.                    :        0.016 s           0.016 s
  | Total energy evaluation                    :        0.000 s           0.001 s
------------------------------------------------------------

------------------------------------------------------------
          Begin self-consistency iteration #    4

  Date     :  20150727, Time     :  123932.838
------------------------------------------------------------
  Evaluating new KS density.
  Integration grid: deviation in total charge (<rho> - N_e) =   3.552714E-15
  Pulay mixing of updated and previous charge densities.

  Evaluating partitioned Hartree potential by multipole expansion.
  | Analytical far-field extrapolation by fixed multipoles:
  | Hartree multipole sum: apparent total charge =  -0.373204E-05
  Summing up the Hartree potential.
  Time summed over all CPUs for potential: real work        0.943 s, elapsed        0.952 s
  | RMS charge density error from multipole expansion :   0.127342E-01

  Integrating Hamiltonian matrix: batch-based integration.
  Time summed over all CPUs for integration: real work        2.322 s, elapsed        2.406 s

  Updating Kohn-Sham eigenvalues, eigenvectors, occupation numbers, and Fermi level.
  Solving generalized eigenproblem
  Updating Kohn-Sham eigenvalues and eigenfunctions.
  Solving real generalised eigenvalue problem by standard LAPACK (fast)
  Determining occupation numbers for Kohn-Sham eigenstates.
  | Chemical potential (Fermi level) in eV                 : -.39976355E+01
  | Error in electron count due to remaining E_F inaccuracy: 0.00000000E+00
  | Maximum occupation number of highest empty state:  0.00E+00

  Highest occupied state (VBM) at     -6.17370470 eV
  | Occupation number:      2.00000000

  Lowest unoccupied state (CBM) at    -1.57914449 eV
  | Occupation number:      0.00000000

  Overall HOMO-LUMO gap:      4.59456021 eV.

  Total energy components:
  | Sum of eigenvalues            :        -124.45906378 Ha       -3386.70343913 eV
  | XC energy correction          :         -27.88054001 Ha        -758.66809425 eV
  | XC potential correction       :          35.63387461 Ha         969.64706310 eV
  | Free-atom electrostatic energy:        -107.63765374 Ha       -2928.96958271 eV
  | Hartree energy correction     :          -5.29914664 Ha        -144.19711678 eV
  | van der Waals energy corr.    :           0.00000000 Ha           0.00000000 eV
  | Entropy correction            :           0.00000000 Ha           0.00000000 eV
  | ---------------------------
  | Total energy                  :        -229.64252957 Ha       -6248.89116976 eV
  | Total energy, T -> 0          :        -229.64252957 Ha       -6248.89116976 eV  <-- do not rely on this value for anything but (periodic) metals
  | Electronic free energy        :        -229.64252957 Ha       -6248.89116976 eV

  Derived energy quantities:
  | Kinetic energy                :         228.75411656 Ha        6224.71622177 eV
  | Electrostatic energy          :        -430.51610613 Ha      -11714.93929728 eV
  | Energy correction for multipole
  | error in Hartree potential    :          -0.00458125 Ha          -0.12466208 eV
  | Sum of eigenvalues per atom                           :        -376.30038213 eV
  | Total energy (T->0) per atom                          :        -694.32124108 eV  <-- do not rely on this value for anything but (periodic) metals
  | Electronic free energy per atom                       :        -694.32124108 eV

  Self-consistency convergence accuracy:
  | Change of charge density      : 0.1078E+00
  | Change of sum of eigenvalues  : 0.2873E+02 eV
  | Change of total energy        : 0.1830E+00 eV

  End self-consistency iteration #     4       :  max(cpu_time)    wall_clock(cpu1)
  | Time for this iteration                    :        0.662 s           0.661 s
  | Charge density update                      :        0.216 s           0.215 s
  | Density mixing                             :        0.004 s           0.005 s
  | Hartree multipole update                   :        0.004 s           0.004 s
  | Hartree multipole summation                :        0.120 s           0.119 s
  | Integration                                :        0.301 s           0.302 s
  | Solution of K.-S. eqns.                    :        0.016 s           0.016 s
  | Total energy evaluation                    :        0.001 s           0.000 s
------------------------------------------------------------

------------------------------------------------------------
          Begin self-consistency iteration #    5

  Date     :  20150727, Time     :  123933.499
------------------------------------------------------------
  Evaluating new KS density.
  Integration grid: deviation in total charge (<rho> - N_e) =   3.552714E-15
  Pulay mixing of updated and previous charge densities.

  Evaluating partitioned Hartree potential by multipole expansion.
  | Analytical far-field extrapolation by fixed multipoles:
  | Hartree multipole sum: apparent total charge =  -0.361954E-05
  Summing up the Hartree potential.
  Time summed over all CPUs for potential: real work        0.943 s, elapsed        0.952 s
  | RMS charge density error from multipole expansion :   0.130519E-01

  Integrating Hamiltonian matrix: batch-based integration.
  Time summed over all CPUs for integration: real work        2.323 s, elapsed        2.406 s

  Updating Kohn-Sham eigenvalues, eigenvectors, occupation numbers, and Fermi level.
  Solving generalized eigenproblem
  Updating Kohn-Sham eigenvalues and eigenfunctions.
  Solving real generalised eigenvalue problem by standard LAPACK (fast)
  Determining occupation numbers for Kohn-Sham eigenstates.
  | Chemical potential (Fermi level) in eV                 : -.40383133E+01
  | Error in electron count due to remaining E_F inaccuracy: 0.00000000E+00
  | Maximum occupation number of highest empty state:  0.00E+00

  Highest occupied state (VBM) at     -6.42120422 eV
  | Occupation number:      2.00000000

  Lowest unoccupied state (CBM) at    -1.57640779 eV
  | Occupation number:      0.00000000

  Overall HOMO-LUMO gap:      4.84479643 eV.

  Total energy components:
  | Sum of eigenvalues            :        -124.51129036 Ha       -3388.12459663 eV
  | XC energy correction          :         -27.87578626 Ha        -758.53873828 eV
  | XC potential correction       :          35.62730835 Ha         969.46838620 eV
  | Free-atom electrostatic energy:        -107.63765374 Ha       -2928.96958271 eV
  | Hartree energy correction     :          -5.24467072 Ha        -142.71475144 eV
  | van der Waals energy corr.    :           0.00000000 Ha           0.00000000 eV
  | Entropy correction            :           0.00000000 Ha           0.00000000 eV
  | ---------------------------
  | Total energy                  :        -229.64209274 Ha       -6248.87928285 eV
  | Total energy, T -> 0          :        -229.64209274 Ha       -6248.87928285 eV  <-- do not rely on this value for anything but (periodic) metals
  | Electronic free energy        :        -229.64209274 Ha       -6248.87928285 eV

  Derived energy quantities:
  | Kinetic energy                :         228.71643117 Ha        6223.69075003 eV
  | Electrostatic energy          :        -430.48273764 Ha      -11714.03129461 eV
  | Energy correction for multipole
  | error in Hartree potential    :          -0.00461340 Ha          -0.12553708 eV
  | Sum of eigenvalues per atom                           :        -376.45828851 eV
  | Total energy (T->0) per atom                          :        -694.31992032 eV  <-- do not rely on this value for anything but (periodic) metals
  | Electronic free energy per atom                       :        -694.31992032 eV

  Self-consistency convergence accuracy:
  | Change of charge density      : 0.3166E-01
  | Change of sum of eigenvalues  : -.1421E+01 eV
  | Change of total energy        : 0.1189E-01 eV

  End self-consistency iteration #     5       :  max(cpu_time)    wall_clock(cpu1)
  | Time for this iteration                    :        0.663 s           0.664 s
  | Charge density update                      :        0.216 s           0.217 s
  | Density mixing                             :        0.006 s           0.005 s
  | Hartree multipole update                   :        0.003 s           0.004 s
  | Hartree multipole summation                :        0.120 s           0.120 s
  | Integration                                :        0.302 s           0.301 s
  | Solution of K.-S. eqns.                    :        0.016 s           0.016 s
  | Total energy evaluation                    :        0.000 s           0.001 s
------------------------------------------------------------

------------------------------------------------------------
          Begin self-consistency iteration #    6

  Date     :  20150727, Time     :  123934.163
------------------------------------------------------------
  Evaluating new KS density.
  Integration grid: deviation in total charge (<rho> - N_e) =   0.000000E+00
  Pulay mixing of updated and previous charge densities.

  Evaluating partitioned Hartree potential by multipole expansion.
  | Analytical far-field extrapolation by fixed multipoles:
  | Hartree multipole sum: apparent total charge =  -0.364352E-05
  Summing up the Hartree potential.
  Time summed over all CPUs for potential: real work        0.943 s, elapsed        0.952 s
  | RMS charge density error from multipole expansion :   0.132320E-01

  Integrating Hamiltonian matrix: batch-based integration.
  Time summed over all CPUs for integration: real work        2.325 s, elapsed        2.413 s

  Updating Kohn-Sham eigenvalues, eigenvectors, occupation numbers, and Fermi level.
  Solving generalized eigenproblem
  Updating Kohn-Sham eigenvalues and eigenfunctions.
  Solving real generalised eigenvalue problem by standard LAPACK (fast)
  Determining occupation numbers for Kohn-Sham eigenstates.
  | Chemical potential (Fermi level) in eV                 : -.40139448E+01
  | Error in electron count due to remaining E_F inaccuracy: 0.00000000E+00
  | Maximum occupation number of highest empty state:  0.00E+00

  Highest occupied state (VBM) at     -6.34880956 eV
  | Occupation number:      2.00000000

  Lowest unoccupied state (CBM) at    -1.56631389 eV
  | Occupation number:      0.00000000

  Overall HOMO-LUMO gap:      4.78249568 eV.

  Total energy components:
  | Sum of eigenvalues            :        -124.46919754 Ha       -3386.97919263 eV
  | XC energy correction          :         -27.88132586 Ha        -758.68947846 eV
  | XC potential correction       :          35.63451500 Ha         969.66448904 eV
  | Free-atom electrostatic energy:        -107.63765374 Ha       -2928.96958271 eV
  | Hartree energy correction     :          -5.28847695 Ha        -143.90677970 eV
  | van der Waals energy corr.    :           0.00000000 Ha           0.00000000 eV
  | Entropy correction            :           0.00000000 Ha           0.00000000 eV
  | ---------------------------
  | Total energy                  :        -229.64213910 Ha       -6248.88054447 eV
  | Total energy, T -> 0          :        -229.64213910 Ha       -6248.88054447 eV  <-- do not rely on this value for anything but (periodic) metals
  | Electronic free energy        :        -229.64213910 Ha       -6248.88054447 eV

  Derived energy quantities:
  | Kinetic energy                :         228.71426907 Ha        6223.63191630 eV
  | Electrostatic energy          :        -430.47508231 Ha      -11713.82298231 eV
  | Energy correction for multipole
  | error in Hartree potential    :          -0.00468758 Ha          -0.12755546 eV
  | Sum of eigenvalues per atom                           :        -376.33102140 eV
  | Total energy (T->0) per atom                          :        -694.32006050 eV  <-- do not rely on this value for anything but (periodic) metals
  | Electronic free energy per atom                       :        -694.32006050 eV

  Self-consistency convergence accuracy:
  | Change of charge density      : 0.8445E-02
  | Change of sum of eigenvalues  : 0.1145E+01 eV
  | Change of total energy        : -.1262E-02 eV

  End self-consistency iteration #     6       :  max(cpu_time)    wall_clock(cpu1)
  | Time for this iteration                    :        0.666 s           0.665 s
  | Charge density update                      :        0.217 s           0.216 s
  | Density mixing                             :        0.006 s           0.007 s
  | Hartree multipole update                   :        0.004 s           0.003 s
  | Hartree multipole summation                :        0.120 s           0.120 s
  | Integration                                :        0.302 s           0.302 s
  | Solution of K.-S. eqns.                    :        0.016 s           0.016 s
  | Total energy evaluation                    :        0.000 s           0.000 s
------------------------------------------------------------

------------------------------------------------------------
          Begin self-consistency iteration #    7

  Date     :  20150727, Time     :  123934.828
------------------------------------------------------------
  Evaluating new KS density.
  Integration grid: deviation in total charge (<rho> - N_e) =  -3.552714E-15
  Pulay mixing of updated and previous charge densities.

  Evaluating partitioned Hartree potential by multipole expansion.
  | Analytical far-field extrapolation by fixed multipoles:
  | Hartree multipole sum: apparent total charge =  -0.350102E-05
  Summing up the Hartree potential.
  Time summed over all CPUs for potential: real work        0.942 s, elapsed        0.952 s
  | RMS charge density error from multipole expansion :   0.132183E-01

  Integrating Hamiltonian matrix: batch-based integration.
  Time summed over all CPUs for integration: real work        2.327 s, elapsed        2.420 s

  Updating Kohn-Sham eigenvalues, eigenvectors, occupation numbers, and Fermi level.
  Solving generalized eigenproblem
  Updating Kohn-Sham eigenvalues and eigenfunctions.
  Solving real generalised eigenvalue problem by standard LAPACK (fast)
  Determining occupation numbers for Kohn-Sham eigenstates.
  | Chemical potential (Fermi level) in eV                 : -.40672169E+01
  | Error in electron count due to remaining E_F inaccuracy: 0.00000000E+00
  | Maximum occupation number of highest empty state:  0.00E+00

  Highest occupied state (VBM) at     -6.46900945 eV
  | Occupation number:      2.00000000

  Lowest unoccupied state (CBM) at    -1.58531289 eV
  | Occupation number:      0.00000000

  Overall HOMO-LUMO gap:      4.88369656 eV.

  Total energy components:
  | Sum of eigenvalues            :        -124.56349128 Ha       -3389.54505585 eV
  | XC energy correction          :         -27.87061044 Ha        -758.39789693 eV
  | XC potential correction       :          35.62011023 Ha         969.27251544 eV
  | Free-atom electrostatic energy:        -107.63765374 Ha       -2928.96958271 eV
  | Hartree energy correction     :          -5.19041811 Ha        -141.23846297 eV
  | van der Waals energy corr.    :           0.00000000 Ha           0.00000000 eV
  | Entropy correction            :           0.00000000 Ha           0.00000000 eV
  | ---------------------------
  | Total energy                  :        -229.64206334 Ha       -6248.87848301 eV
  | Total energy, T -> 0          :        -229.64206334 Ha       -6248.87848301 eV  <-- do not rely on this value for anything but (periodic) metals
  | Electronic free energy        :        -229.64206334 Ha       -6248.87848301 eV

  Derived energy quantities:
  | Kinetic energy                :         228.75175240 Ha        6224.65188956 eV
  | Electrostatic energy          :        -430.52320530 Ha      -11715.13247564 eV
  | Energy correction for multipole
  | error in Hartree potential    :          -0.00453413 Ha          -0.12338008 eV
  | Sum of eigenvalues per atom                           :        -376.61611732 eV
  | Total energy (T->0) per atom                          :        -694.31983145 eV  <-- do not rely on this value for anything but (periodic) metals
  | Electronic free energy per atom                       :        -694.31983145 eV

  Self-consistency convergence accuracy:
  | Change of charge density      : 0.8762E-02
  | Change of sum of eigenvalues  : -.2566E+01 eV
  | Change of total energy        : 0.2061E-02 eV

  End self-consistency iteration #     7       :  max(cpu_time)    wall_clock(cpu1)
  | Time for this iteration                    :        0.665 s           0.666 s
  | Charge density update                      :        0.215 s           0.215 s
  | Density mixing                             :        0.007 s           0.008 s
  | Hartree multipole update                   :        0.004 s           0.003 s
  | Hartree multipole summation                :        0.120 s           0.120 s
  | Integration                                :        0.303 s           0.303 s
  | Solution of K.-S. eqns.                    :        0.016 s           0.016 s
  | Total energy evaluation                    :        0.000 s           0.001 s
------------------------------------------------------------

------------------------------------------------------------
          Begin self-consistency iteration #    8

  Date     :  20150727, Time     :  123935.494
------------------------------------------------------------
  Evaluating new KS density.
  Integration grid: deviation in total charge (<rho> - N_e) =   0.000000E+00
  Pulay mixing of updated and previous charge densities.

  Evaluating partitioned Hartree potential by multipole expansion.
  | Analytical far-field extrapolation by fixed multipoles:
  | Hartree multipole sum: apparent total charge =  -0.350193E-05
  Summing up the Hartree potential.
  Time summed over all CPUs for potential: real work        0.942 s, elapsed        0.952 s
  | RMS charge density error from multipole expansion :   0.132595E-01

  Integrating Hamiltonian matrix: batch-based integration.
  Time summed over all CPUs for integration: real work        2.323 s, elapsed        2.417 s

  Updating Kohn-Sham eigenvalues, eigenvectors, occupation numbers, and Fermi level.
  Solving generalized eigenproblem
  Updating Kohn-Sham eigenvalues and eigenfunctions.
  Solving real generalised eigenvalue problem by standard LAPACK (fast)
  Determining occupation numbers for Kohn-Sham eigenstates.
  | Chemical potential (Fermi level) in eV                 : -.40637155E+01
  | Error in electron count due to remaining E_F inaccuracy: 0.00000000E+00
  | Maximum occupation number of highest empty state:  0.00E+00

  Highest occupied state (VBM) at     -6.46049741 eV
  | Occupation number:      2.00000000

  Lowest unoccupied state (CBM) at    -1.58393481 eV
  | Occupation number:      0.00000000

  Overall HOMO-LUMO gap:      4.87656260 eV.

  Total energy components:
  | Sum of eigenvalues            :        -124.55602755 Ha       -3389.34195749 eV
  | XC energy correction          :         -27.87156611 Ha        -758.42390204 eV
  | XC potential correction       :          35.62134586 Ha         969.30613856 eV
  | Free-atom electrostatic energy:        -107.63765374 Ha       -2928.96958271 eV
  | Hartree energy correction     :          -5.19816252 Ha        -141.44919911 eV
  | van der Waals energy corr.    :           0.00000000 Ha           0.00000000 eV
  | Entropy correction            :           0.00000000 Ha           0.00000000 eV
  | ---------------------------
  | Total energy                  :        -229.64206407 Ha       -6248.87850279 eV
  | Total energy, T -> 0          :        -229.64206407 Ha       -6248.87850279 eV  <-- do not rely on this value for anything but (periodic) metals
  | Electronic free energy        :        -229.64206407 Ha       -6248.87850279 eV

  Derived energy quantities:
  | Kinetic energy                :         228.75151923 Ha        6224.64554476 eV
  | Electrostatic energy          :        -430.52201719 Ha      -11715.10014551 eV
  | Energy correction for multipole
  | error in Hartree potential    :          -0.00454816 Ha          -0.12376165 eV
  | Sum of eigenvalues per atom                           :        -376.59355083 eV
  | Total energy (T->0) per atom                          :        -694.31983364 eV  <-- do not rely on this value for anything but (periodic) metals
  | Electronic free energy per atom                       :        -694.31983364 eV

  Self-consistency convergence accuracy:
  | Change of charge density      : 0.1275E-02
  | Change of sum of eigenvalues  : 0.2031E+00 eV
  | Change of total energy        : -.1978E-04 eV

  End self-consistency iteration #     8       :  max(cpu_time)    wall_clock(cpu1)
  | Time for this iteration                    :        0.666 s           0.666 s
  | Charge density update                      :        0.215 s           0.215 s
  | Density mixing                             :        0.008 s           0.008 s
  | Hartree multipole update                   :        0.004 s           0.004 s
  | Hartree multipole summation                :        0.119 s           0.119 s
  | Integration                                :        0.303 s           0.303 s
  | Solution of K.-S. eqns.                    :        0.016 s           0.016 s
  | Total energy evaluation                    :        0.001 s           0.000 s
------------------------------------------------------------

------------------------------------------------------------
          Begin self-consistency iteration #    9

  Date     :  20150727, Time     :  123936.160
------------------------------------------------------------
  Evaluating new KS density.
  Integration grid: deviation in total charge (<rho> - N_e) =   1.065814E-14
  Pulay mixing of updated and previous charge densities.

  Evaluating partitioned Hartree potential by multipole expansion.
  | Analytical far-field extrapolation by fixed multipoles:
  | Hartree multipole sum: apparent total charge =  -0.350032E-05
  Summing up the Hartree potential.
  Time summed over all CPUs for potential: real work        0.943 s, elapsed        0.952 s
  | RMS charge density error from multipole expansion :   0.132556E-01

  Integrating Hamiltonian matrix: batch-based integration.
  Time summed over all CPUs for integration: real work        2.327 s, elapsed        2.417 s

  Updating Kohn-Sham eigenvalues, eigenvectors, occupation numbers, and Fermi level.
  Solving generalized eigenproblem
  Updating Kohn-Sham eigenvalues and eigenfunctions.
  Solving real generalised eigenvalue problem by standard LAPACK (fast)
  Determining occupation numbers for Kohn-Sham eigenstates.
  | Chemical potential (Fermi level) in eV                 : -.40629916E+01
  | Error in electron count due to remaining E_F inaccuracy: 0.00000000E+00
  | Maximum occupation number of highest empty state:  0.00E+00

  Highest occupied state (VBM) at     -6.45584191 eV
  | Occupation number:      2.00000000

  Lowest unoccupied state (CBM) at    -1.58451411 eV
  | Occupation number:      0.00000000

  Overall HOMO-LUMO gap:      4.87132779 eV.

  Total energy components:
  | Sum of eigenvalues            :        -124.55467866 Ha       -3389.30525231 eV
  | XC energy correction          :         -27.87164627 Ha        -758.42608333 eV
  | XC potential correction       :          35.62145132 Ha         969.30900833 eV
  | Free-atom electrostatic energy:        -107.63765374 Ha       -2928.96958271 eV
  | Hartree energy correction     :          -5.19953587 Ha        -141.48656985 eV
  | van der Waals energy corr.    :           0.00000000 Ha           0.00000000 eV
  | Entropy correction            :           0.00000000 Ha           0.00000000 eV
  | ---------------------------
  | Total energy                  :        -229.64206323 Ha       -6248.87847987 eV
  | Total energy, T -> 0          :        -229.64206323 Ha       -6248.87847987 eV  <-- do not rely on this value for anything but (periodic) metals
  | Electronic free energy        :        -229.64206323 Ha       -6248.87847987 eV

  Derived energy quantities:
  | Kinetic energy                :         228.75409277 Ha        6224.71557436 eV
  | Electrostatic energy          :        -430.52450973 Ha      -11715.16797090 eV
  | Energy correction for multipole
  | error in Hartree potential    :          -0.00454547 Ha          -0.12368866 eV
  | Sum of eigenvalues per atom                           :        -376.58947248 eV
  | Total energy (T->0) per atom                          :        -694.31983110 eV  <-- do not rely on this value for anything but (periodic) metals
  | Electronic free energy per atom                       :        -694.31983110 eV

  Self-consistency convergence accuracy:
  | Change of charge density      : 0.7648E-03
  | Change of sum of eigenvalues  : 0.3671E-01 eV
  | Change of total energy        : 0.2292E-04 eV

  End self-consistency iteration #     9       :  max(cpu_time)    wall_clock(cpu1)
  | Time for this iteration                    :        0.667 s           0.667 s
  | Charge density update                      :        0.215 s           0.215 s
  | Density mixing                             :        0.009 s           0.009 s
  | Hartree multipole update                   :        0.004 s           0.004 s
  | Hartree multipole summation                :        0.119 s           0.119 s
  | Integration                                :        0.303 s           0.303 s
  | Solution of K.-S. eqns.                    :        0.016 s           0.016 s
  | Total energy evaluation                    :        0.001 s           0.001 s
------------------------------------------------------------

------------------------------------------------------------
          Begin self-consistency iteration #   10

  Date     :  20150727, Time     :  123936.827
------------------------------------------------------------
  Evaluating new KS density.
  Integration grid: deviation in total charge (<rho> - N_e) =   7.105427E-15
  Pulay mixing of updated and previous charge densities.

  Evaluating partitioned Hartree potential by multipole expansion.
  | Analytical far-field extrapolation by fixed multipoles:
  | Hartree multipole sum: apparent total charge =  -0.349390E-05
  Summing up the Hartree potential.
  Time summed over all CPUs for potential: real work        0.942 s, elapsed        0.952 s
  | RMS charge density error from multipole expansion :   0.132561E-01

  Integrating Hamiltonian matrix: batch-based integration.
  Time summed over all CPUs for integration: real work        2.321 s, elapsed        2.413 s

  Updating Kohn-Sham eigenvalues, eigenvectors, occupation numbers, and Fermi level.
  Solving generalized eigenproblem
  Updating Kohn-Sham eigenvalues and eigenfunctions.
  Solving real generalised eigenvalue problem by standard LAPACK (fast)
  Determining occupation numbers for Kohn-Sham eigenstates.
  | Chemical potential (Fermi level) in eV                 : -.40638302E+01
  | Error in electron count due to remaining E_F inaccuracy: 0.00000000E+00
  | Maximum occupation number of highest empty state:  0.00E+00

  Highest occupied state (VBM) at     -6.45941073 eV
  | Occupation number:      2.00000000

  Lowest unoccupied state (CBM) at    -1.58506979 eV
  | Occupation number:      0.00000000

  Overall HOMO-LUMO gap:      4.87434093 eV.

  Total energy components:
  | Sum of eigenvalues            :        -124.55744292 Ha       -3389.38047170 eV
  | XC energy correction          :         -27.87127708 Ha        -758.41603703 eV
  | XC potential correction       :          35.62095550 Ha         969.29551632 eV
  | Free-atom electrostatic energy:        -107.63765374 Ha       -2928.96958271 eV
  | Hartree energy correction     :          -5.19664455 Ha        -141.40789297 eV
  | van der Waals energy corr.    :           0.00000000 Ha           0.00000000 eV
  | Entropy correction            :           0.00000000 Ha           0.00000000 eV
  | ---------------------------
  | Total energy                  :        -229.64206280 Ha       -6248.87846809 eV
  | Total energy, T -> 0          :        -229.64206280 Ha       -6248.87846809 eV  <-- do not rely on this value for anything but (periodic) metals
  | Electronic free energy        :        -229.64206280 Ha       -6248.87846809 eV

  Derived energy quantities:
  | Kinetic energy                :         228.75525497 Ha        6224.74719946 eV
  | Electrostatic energy          :        -430.52604069 Ha      -11715.20963052 eV
  | Energy correction for multipole
  | error in Hartree potential    :          -0.00454066 Ha          -0.12355768 eV
  | Sum of eigenvalues per atom                           :        -376.59783019 eV
  | Total energy (T->0) per atom                          :        -694.31982979 eV  <-- do not rely on this value for anything but (periodic) metals
  | Electronic free energy per atom                       :        -694.31982979 eV

  Self-consistency convergence accuracy:
  | Change of charge density      : 0.4409E-03
  | Change of sum of eigenvalues  : -.7522E-01 eV
  | Change of total energy        : 0.1177E-04 eV

[...]
  |   Hirshfeld volume        :     20.68981377
  |   Hirshfeld dipole vector :      0.01600744       0.03122444       0.00445524
  |   Hirshfeld dipole moment :      0.03537023
  |   Hirshfeld second moments:      0.05725508      -0.03905494       0.00965743
  |                                 -0.03905494       0.02771728      -0.02440568
  |                                  0.00965743      -0.02440568       0.08364107
  ----------------------------------------------------------------------
  | Atom     5: H
  |   Hirshfeld charge        :      0.16725568
  |   Free atom volume        :     10.44207651
  |   Hirshfeld volume        :      5.72803979
  |   Hirshfeld dipole vector :      0.02482328      -0.01283316       0.11905149
  |   Hirshfeld dipole moment :      0.12228713
  |   Hirshfeld second moments:      0.13339562      -0.01451939      -0.00130955
  |                                 -0.01451939       0.12784353      -0.00565985
  |                                 -0.00130955      -0.00565985       0.12173223
  ----------------------------------------------------------------------
  | Atom     6: H
  |   Hirshfeld charge        :      0.17104898
  |   Free atom volume        :     10.44207651
  |   Hirshfeld volume        :      5.96133588
  |   Hirshfeld dipole vector :     -0.08307951       0.08474385      -0.02468045
  |   Hirshfeld dipole moment :      0.12121407
  |   Hirshfeld second moments:      0.12265186      -0.00463859       0.00377134
  |                                 -0.00463859       0.11077036      -0.00004886
  |                                  0.00377134      -0.00004886       0.13897050
  ----------------------------------------------------------------------
  | Atom     7: O
  |   Hirshfeld charge        :     -0.33230277
  |   Free atom volume        :     23.95238533
  |   Hirshfeld volume        :     22.47702859
  |   Hirshfeld dipole vector :      0.00890231       0.00510102       0.06311632
  |   Hirshfeld dipole moment :      0.06394483
  |   Hirshfeld second moments:      0.03010557       0.05634915      -0.00770741
  |                                  0.05634915      -0.01799405       0.00389756
  |                                 -0.00770741       0.00389756      -0.01480899
  ----------------------------------------------------------------------
  | Atom     8: H
  |   Hirshfeld charge        :      0.13316945
  |   Free atom volume        :     10.44207651
  |   Hirshfeld volume        :      6.61512000
  |   Hirshfeld dipole vector :      0.09993828       0.06655488       0.03963970
  |   Hirshfeld dipole moment :      0.12644571
  |   Hirshfeld second moments:      0.10886848       0.01302344      -0.01213818
  |                                  0.01302344       0.09666960      -0.00476094
  |                                 -0.01213818      -0.00476094       0.10990156
  ----------------------------------------------------------------------
  | Atom     9: H
  |   Hirshfeld charge        :      0.07712676
  |   Free atom volume        :     10.44207651
  |   Hirshfeld volume        :      7.91569410
  |   Hirshfeld dipole vector :     -0.02551415      -0.01709833       0.04184304
  |   Hirshfeld dipole moment :      0.05190535
  |   Hirshfeld second moments:      0.06700715      -0.00294259       0.03315777
  |                                 -0.00294259       0.07167603       0.01555205
  |                                  0.03315777       0.01555205       0.05814032
  ----------------------------------------------------------------------


  Total energy components:
  | Sum of eigenvalues            :        -124.55733694 Ha       -3389.37758779 eV
  | XC energy correction          :         -27.87130734 Ha        -758.41686061 eV
  | XC potential correction       :          35.62099390 Ha         969.29656121 eV
  | Free-atom electrostatic energy:        -107.63765374 Ha       -2928.96958271 eV
  | Hartree energy correction     :          -5.19675862 Ha        -141.41099709 eV
  | van der Waals energy corr.    :          -0.00075633 Ha          -0.02058086 eV
  | Entropy correction            :           0.00000000 Ha           0.00000000 eV
  | ---------------------------
  | Total energy                  :        -229.64281909 Ha       -6248.89904786 eV
  | Total energy, T -> 0          :        -229.64281909 Ha       -6248.89904786 eV  <-- do not rely on this value for anything but (periodic) metals
  | Electronic free energy        :        -229.64281909 Ha       -6248.89904786 eV

  Derived energy quantities:
  | Kinetic energy                :         228.75538264 Ha        6224.75067358 eV
  | Electrostatic energy          :        -430.52613806 Ha      -11715.21227997 eV
  | Energy correction for multipole
  | error in Hartree potential    :          -0.00454039 Ha          -0.12355042 eV
  | Sum of eigenvalues per atom                           :        -376.59750975 eV
  | Total energy (T->0) per atom                          :        -694.32211643 eV  <-- do not rely on this value for anything but (periodic) metals
  | Electronic free energy per atom                       :        -694.32211643 eV

  atomic forces [eV/Ang]:
  -----------------------
  atom #    1
   Hellmann-Feynman + Multipole  : -.728672E+01 -.118550E+02 0.326711E+01
   Pulay + GGA                   : 0.701029E+01 0.154903E+02 -.464709E+01
   Van der Waals               : 0.229056E-02 0.442513E-02 0.489605E-02
   ----------------------------------------------------------------
   Total forces(   1)            : -.274137E+00 0.363966E+01 -.137508E+01
  atom #    2
   Hellmann-Feynman + Multipole  : 0.237180E+01 -.355022E+01 0.158115E+01
   Pulay + GGA                   : -.550436E-01 0.111775E+00 -.507531E-01
   Van der Waals               : 0.134619E-02 0.128468E-02 0.235008E-02
   ----------------------------------------------------------------
   Total forces(   2)            : 0.231810E+01 -.343716E+01 0.153274E+01
  atom #    3
   Hellmann-Feynman + Multipole  : -.217071E+01 -.193260E+00 -.122954E+00
   Pulay + GGA                   : 0.138824E+00 0.263982E-01 -.580693E-03
   Van der Waals               : 0.803560E-03 0.327715E-02 0.373889E-02
   ----------------------------------------------------------------
   Total forces(   3)            : -.203109E+01 -.163585E+00 -.119796E+00
  atom #    4
   Hellmann-Feynman + Multipole  : 0.437971E+01 -.883523E+01 -.918295E+01
   Pulay + GGA                   : -.608824E+01 0.102518E+02 0.110547E+02
   Van der Waals               : -.295940E-03 -.154256E-02 -.261449E-02
   ----------------------------------------------------------------
   Total forces(   4)            : -.170882E+01 0.141501E+01 0.186913E+01
  atom #    5
   Hellmann-Feynman + Multipole  : -.437281E+00 0.285108E+00 -.226434E+01
   Pulay + GGA                   : 0.500017E-02 0.191887E-02 0.135662E+00
   Van der Waals               : 0.965956E-03 0.342389E-03 -.131284E-02
   ----------------------------------------------------------------
   Total forces(   5)            : -.431314E+00 0.287369E+00 -.212999E+01
  atom #    6
   Hellmann-Feynman + Multipole  : 0.186686E+01 -.191861E+01 0.595067E+00
   Pulay + GGA                   : -.998393E-01 0.915251E-01 -.801045E-02
   Van der Waals               : -.168815E-02 -.359140E-03 0.305980E-03
   ----------------------------------------------------------------
   Total forces(   6)            : 0.176534E+01 -.182744E+01 0.587363E+00
  atom #    7
   Hellmann-Feynman + Multipole  : -.215254E+01 -.322644E+01 -.160292E+02
   Pulay + GGA                   : 0.354076E+01 0.391274E+01 0.139921E+02
   Van der Waals               : -.568082E-03 -.383131E-02 -.384506E-02
   ----------------------------------------------------------------
   Total forces(   7)            : 0.138765E+01 0.682470E+00 -.204090E+01
  atom #    8
   Hellmann-Feynman + Multipole  : -.508360E+00 -.320274E+00 0.171895E+00
   Pulay + GGA                   : 0.921982E-01 0.690900E-01 0.614207E-01
   Van der Waals               : -.306608E-02 -.163700E-02 0.106366E-02
   ----------------------------------------------------------------
   Total forces(   8)            : -.419228E+00 -.252821E+00 0.234380E+00
  atom #    9
   Hellmann-Feynman + Multipole  : -.560307E+00 -.328111E+00 0.138875E+01
   Pulay + GGA                   : -.422648E-01 -.136817E-01 0.655360E-01
   Van der Waals               : 0.211999E-03 -.195934E-02 -.458228E-02
   ----------------------------------------------------------------
   Total forces(   9)            : -.602360E+00 -.343752E+00 0.144971E+01
  Timings for vdw_correction_hirshfeld (Tkatchenko-Scheffler 2009):
  | CPU time:        1.763 s, Wall clock time:        1.762 s.
  Removing unitary transformations (pure translations, rotations) from forces on atoms.
  Atomic forces before filtering:
  | Net force on center of mass :  0.413842E-02 -.244691E-03 0.755532E-02 eV/A
  | Net torque on center of mass:  -.153787E-02 -.929426E-02 0.537647E-02 eV
  Atomic forces after filtering:
  | Net force on center of mass :  -.446015E-15 0.847429E-15 -.178406E-15 eV/A
  | Net torque on center of mass:  -.320989E-14 0.396516E-14 -.226580E-14 eV
 
  Energy and forces in a compact form:
  | Total energy uncorrected      :         -0.624889904785529E+04 eV
  | Total energy corrected        :         -0.624889904785529E+04 eV  <-- do not rely on this value for anything but (periodic) metals
  | Electronic free energy        :         -0.624889904785529E+04 eV
  Total atomic forces (unitary forces cleaned) [eV/Ang]:
  |   1         -0.275278948646121E+00          0.363993153633447E+01         -0.137588132877313E+01
  |   2          0.231698585766981E+01         -0.343679555343414E+01          0.153212273395995E+01
  |   3         -0.203218351721367E+01         -0.163441349042772E+00         -0.120789818231741E+00
  |   4         -0.170890639918773E+01          0.141499373902224E+01          0.186841926827299E+01
  |   5         -0.431183044455349E+00          0.287261632573374E+00         -0.213073089514219E+01
  |   6          0.176531512505126E+01         -0.182735763654764E+01          0.586862419752403E+00
  |   7          0.138729633925693E+01          0.682339144125598E+00         -0.204195469112434E+01
  |   8         -0.419445970602638E+00         -0.253070151908197E+00          0.233196853596158E+00
  |   9         -0.602599441872501E+00         -0.343861361122923E+00          0.144875545768989E+01
 
  ------------------------------------ 
  Start decomposition of the XC Energy 
  ------------------------------------ 
  Hartree-Fock part   :          0.000000000 Ha              0.000000000 eV
  ------------------------------------ 
  X Energy            :        -26.899711251 Ha           -731.978385781 eV
  C Energy GGA        :         -0.971596092 Ha            -26.438474829 eV
  Total XC Energy     :        -27.871307342 Ha           -758.416860610 eV
  LDA X and C from self-consistent density 
  X Energy LDA        :        -24.218911880 Ha           -659.030123325 eV
  C Energy LDA        :         -1.973572574 Ha            -53.703642154 eV
  ------------------------------------ 
  End decomposition of the XC Energy 
  ------------------------------------ 
  Performing Hirshfeld analysis of fragment charges and moments.
  ----------------------------------------------------------------------
  | Atom     1: O
  |   Hirshfeld charge        :     -0.29517168
  |   Free atom volume        :     23.95238533
  |   Hirshfeld volume        :     22.77766150
  |   Hirshfeld dipole vector :      0.03283498       0.04840554      -0.00648932
  |   Hirshfeld dipole moment :      0.05885018
  |   Hirshfeld second moments:      0.04862961      -0.02627119       0.02661152
  |                                 -0.02627119      -0.01072448      -0.02839677
  |                                  0.02661152      -0.02839677      -0.06626664
  ----------------------------------------------------------------------
  | Atom     2: H
  |   Hirshfeld charge        :      0.14808557
  |   Free atom volume        :     10.44207651
  |   Hirshfeld volume        :      6.64725022
  |   Hirshfeld dipole vector :     -0.06434455       0.09649670      -0.04111245
  |   Hirshfeld dipole moment :      0.12305311
  |   Hirshfeld second moments:      0.12761952       0.00232019       0.00219012
  |                                  0.00232019       0.09493199      -0.00323775
  |                                  0.00219012      -0.00323775       0.09399442
  ----------------------------------------------------------------------
  | Atom     3: H
  |   Hirshfeld charge        :      0.13856781
  |   Free atom volume        :     10.44207651
  |   Hirshfeld volume        :      7.08840252
  |   Hirshfeld dipole vector :      0.11693375       0.01699374       0.00613192
  |   Hirshfeld dipole moment :      0.11832113
  |   Hirshfeld second moments:      0.10056756      -0.02070238      -0.00043189
  |                                 -0.02070238       0.10171822      -0.01700011
  |                                 -0.00043189      -0.01700011       0.08823592
  ----------------------------------------------------------------------
  | Atom     4: O
  |   Hirshfeld charge        :     -0.20781011
  |   Free atom volume        :     23.95238533
  |   Hirshfeld volume        :     20.68981377
  |   Hirshfeld dipole vector :      0.01600744       0.03122444       0.00445524
  |   Hirshfeld dipole moment :      0.03537023
  |   Hirshfeld second moments:      0.05725508      -0.03905494       0.00965743
  |                                 -0.03905494       0.02771728      -0.02440568
  |                                  0.00965743      -0.02440568       0.08364107
  ----------------------------------------------------------------------
  | Atom     5: H
  |   Hirshfeld charge        :      0.16725568
  |   Free atom volume        :     10.44207651
  |   Hirshfeld volume        :      5.72803979
  |   Hirshfeld dipole vector :      0.02482328      -0.01283316       0.11905149
  |   Hirshfeld dipole moment :      0.12228713
  |   Hirshfeld second moments:      0.13339562      -0.01451939      -0.00130955
  |                                 -0.01451939       0.12784353      -0.00565985
  |                                 -0.00130955      -0.00565985       0.12173223
  ----------------------------------------------------------------------
  | Atom     6: H
  |   Hirshfeld charge        :      0.17104898
  |   Free atom volume        :     10.44207651
  |   Hirshfeld volume        :      5.96133588
  |   Hirshfeld dipole vector :     -0.08307951       0.08474385      -0.02468045
  |   Hirshfeld dipole moment :      0.12121407
  |   Hirshfeld second moments:      0.12265186      -0.00463859       0.00377134
  |                                 -0.00463859       0.11077036      -0.00004886
  |                                  0.00377134      -0.00004886       0.13897050
  ----------------------------------------------------------------------
  | Atom     7: O
  |   Hirshfeld charge        :     -0.33230277
  |   Free atom volume        :     23.95238533
  |   Hirshfeld volume        :     22.47702859
  |   Hirshfeld dipole vector :      0.00890231       0.00510102       0.06311632
  |   Hirshfeld dipole moment :      0.06394483
  |   Hirshfeld second moments:      0.03010557       0.05634915      -0.00770741
  |                                  0.05634915      -0.01799405       0.00389756
  |                                 -0.00770741       0.00389756      -0.01480899
  ----------------------------------------------------------------------
  | Atom     8: H
  |   Hirshfeld charge        :      0.13316945
  |   Free atom volume        :     10.44207651
  |   Hirshfeld volume        :      6.61512000
  |   Hirshfeld dipole vector :      0.09993828       0.06655488       0.03963970
  |   Hirshfeld dipole moment :      0.12644571
  |   Hirshfeld second moments:      0.10886848       0.01302344      -0.01213818
  |                                  0.01302344       0.09666960      -0.00476094
  |                                 -0.01213818      -0.00476094       0.10990156
  ----------------------------------------------------------------------
  | Atom     9: H
  |   Hirshfeld charge        :      0.07712676
  |   Free atom volume        :     10.44207651
  |   Hirshfeld volume        :      7.91569410
  |   Hirshfeld dipole vector :     -0.02551415      -0.01709833       0.04184304
  |   Hirshfeld dipole moment :      0.05190535
  |   Hirshfeld second moments:      0.06700715      -0.00294259       0.03315777
  |                                 -0.00294259       0.07167603       0.01555205
  |                                  0.03315777       0.01555205       0.05814032
  ----------------------------------------------------------------------


------------------------------------------------------------------------------
  Final output of selected total energy values:

  The following output summarizes some interesting total energy values
  at the end of a run (AFTER all relaxation, molecular dynamics, etc.).

  | Total energy of the DFT / Hartree-Fock s.c.f. calculation      :          -6248.899047855 eV
  | Final zero-broadening corrected energy (caution - metals only) :          -6248.899047855 eV
  | For reference only, the value of 1 Hartree used in FHI-aims is :             27.211384500 eV

  Before relying on these values, please be sure to understand exactly which
  total energy value is referred to by a given number. Different objects may
  all carry the same name 'total energy'. Definitions:

  Total energy of the DFT / Hartree-Fock s.c.f. calculation:
  | Note that this energy does not include ANY quantities calculated after the
  | s.c.f. cycle, in particular not ANY RPA, MP2, etc. many-body perturbation terms.

  Final zero-broadening corrected energy:
  | For metallic systems only, a broadening of the occupation numbers at the Fermi
  | level can be extrapolated back to zero broadening by an electron-gas inspired
  | formula. For all systems that are not real metals, this value can be
  | meaningless and should be avoided.

------------------------------------------------------------------------------

------------------------------------------------------------
          Leaving FHI-aims.
          Date     :  20150727, Time     :  123942.183

          Computational steps:
          | Number of self-consistency cycles          :           15

          Detailed time accounting                     :  max(cpu_time)    wall_clock(cpu1)
          | Total time                                 :       12.615 s          12.661 s
          | Preparation time                           :        0.170 s           0.570 s
          | Grid partitioning                          :        0.089 s           0.089 s
          | Preloading free-atom quantities on grid    :        0.013 s           0.013 s
          | Free-atom superposition energy             :        0.030 s           0.030 s
          | Total time for integrations                :        4.999 s           4.997 s
          | Total time for solution of K.-S. equations :        0.305 s           0.305 s
          | Total time for density & force components  :        4.136 s           4.135 s
          | Total time for mixing                      :        0.109 s           0.113 s
          | Total time for Hartree multipole update    :        0.056 s           0.052 s
          | Total time for Hartree multipole sum       :        2.185 s           2.187 s
          | Total time for total energy evaluation     :        0.006 s           0.005 s
          | Total time for scaled ZORA corrections     :        0.000 s           0.000 s
          | Total time for TS (2009) vdW correction    :        0.020 s           0.021 s

          Have a nice day.
------------------------------------------------------------
