  MPI-parallelism will be employed.
------------------------------------------------------------
          Invoking FHI-aims ...
          Version 081213
          Compiled on 2013/08/29 at 17:41:06 on host generoso.

          When using FHI-aims, please cite the following reference:

          Volker Blum, Ralf Gehrke, Felix Hanke, Paula Havu,
          Ville Havu, Xinguo Ren, Karsten Reuter, and Matthias Scheffler,
          'Ab Initio Molecular Simulations with Numeric Atom-Centered Orbitals: FHI-aims',
          Computer Physics Communications 180, 2175-2196 (2009)

          For any questions about FHI-aims, please visit the aimsclub website
          with its forums and wiki. Contributions to both the forums and the
          wiki are warmly encouraged - they are for you, and everyone is welcome there.

------------------------------------------------------------

  Date     :  20150727, Time     :  115619.186
  Time zero on CPU 1             :   0.429930000000000E-01  s.
  Internal wall clock time zero  :           207230179.186  s.

  Using        8 parallel tasks.
  Task        0 on host gen60 reporting.
  Task        1 on host gen60 reporting.
  Task        2 on host gen60 reporting.
  Task        3 on host gen60 reporting.
  Task        4 on host gen60 reporting.
  Task        5 on host gen60 reporting.
  Task        6 on host gen60 reporting.
  Task        7 on host gen60 reporting.

  Performing system and environment tests:
  | Environment variable OMP_NUM_THREADS correctly set to 1.
  | Checking for scalapack...
  | No scalapack compiled in.

  Obtaining array dimensions for all initial allocations:
  
  -----------------------------------------------------------------------
  Parsing control.in (first pass over file, find array dimensions only).
  The contents of control.in will be repeated verbatim below
  unless switched off by setting 'verbatim_writeout .false.' .
  in the first line of control.in .
  -----------------------------------------------------------------------
  
  #########################################################################################
  #
  #  Volker Blum, FHI 2008 : Test run input file control.in
  #
  #########################################################################################
  #
  #  Physical model
  #
    xc                 rpbe
    spin               none
    relativistic       atomic_zora scalar
    charge             0.
   vdw_correction_hirshfeld
  #
  #  SCF convergence
  #
    occupation_type    gaussian 0.01
    mixer              pulay
      n_max_pulay        10
      charge_mix_param   0.1
    sc_accuracy_rho    5E-5
    sc_accuracy_eev    5E-3
    sc_accuracy_etot   5E-6
    sc_iter_limit      3000
  #
  #  Eigenvalue solver
  #
    KS_method          lapack
      empty_states       8
      basis_threshold    0.e-5
  #
  #  Efficiency
  #
  #   all previous settings are now default, except stratmann still
  #   undecided. Continue to handle stratmann with care, if at all.
  #
  #  partition_type stratmann
    partition_type rho_r2
  #  hartree_partition_type stratmann
  #
  #  Oprions for large clusters (100's of atoms: memory saving / better scaling)
  #
  # for periodic systems:
  #
    density_update_method orbital
    packed_matrix_format none
  #  k_grid 6 6 6
  #  output k_eigenvalue 1
  #  distributed_spline_storage .true.
  #
  #  Relaxation
  #
  #  relax_geometry   bfgs 5.e-3
    sc_accuracy_forces 5.E-4
    final_forces_cleaned .true.
  #
  #  Output options
  #
  #  output mulliken
    output Hirshfeld
  #  output dipole
  
  #harmonic_length_scale 0.001
  
  ################################################################################
  #
  #  FHI-aims code project
  #  VB, Fritz-Haber Institut, 2007
  #
  #  Suggested "safe" defaults for H atom (to be pasted into control.in file)
  #  Basis constructed for a non-relativistic H2 molecule using the
  #  PW-LDA functional.
  #
  ################################################################################
    species        H
  #     global species definitions
      nucleus             1
      cut_pot             4.0  2.0  1.0
      cut_free_atom       finite 8.0
      logarithmic         0.00010000 100.00  1.0123
      basis_dep_cutoff    1d-4  # 1d-4 is safe default - please check 5d-4 if you wish!
      radial_base         24 7.0
      radial_multiplier   2
      angular_grids       specified
        division   0.2783  110
        division   0.3822  194
        division   0.5626  302
  #      division   0.5922  434
  #      division   0.6227  590
  #      division   0.7206  770
        outer_grid  302
      l_hartree           4
  ################################################################################
  #
  #  Definition of "minimal" basis
  #
  ################################################################################
  #     valence basis states
      valence      1  s   1.
  #     ion occupancy
      ion_occ      1  s   0.5
  ################################################################################
  #
  #  Suggested additional basis functions. For production calculations,
  #  uncomment them one after another (the most important basis functions are
  #  listed first).
  #
  ################################################################################
  #  "First tier" - improvements: -1014.90 meV to -62.69 meV
       hydro 2 s 2.1
       hydro 2 p 3.5
  #  "Second tier" - improvements: -12.89 meV to -1.83 meV
       hydro 1 s 0.85
       hydro 2 p 3.7
       hydro 2 s 1.2
       hydro 3 d 7
  #  "Third tier" - improvements: -0.25 meV to -0.12 meV
  #     hydro 4 f 11.2
  #     hydro 3 p 4.8
  #     hydro 4 d 9
  #     hydro 3 s 3.2
  
  ################################################################################
  #
  #  FHI-aims code project
  #  VB, Fritz-Haber Institut, 2007
  #
  #  Suggested "safe" defaults for O atom (to be pasted into control.in file)
  #  All values have been tested for a non-relativistic, non-spinpolarized O2
  #  molecule using the PW-LDA functional. Validity for PBE is expected.
  #
  #  Constructed for dimers: 1.0 A, 1.208 A, 1.5 A, 2.0 A, 3.0 A
  #
  ################################################################################
    species        O
  #     global species definitions
      nucleus             8
      mass                15.9994
      l_hartree           4
      cut_pot             4.0  2.0  1.0
      cut_free_atom       finite 8.0
      basis_dep_cutoff    1d-4  # 1d-4 is safe default - please check 5d-4 if you wish!
      logarithmic         0.00010000 100.00  1.0123
      radial_base         36 7.0
      radial_multiplier   2
       angular_grids specified
        division   0.4087  110
        division   0.5181  194
        division   0.6184  302
  #      division   0.7315  434
  #      division   0.7934  590
  #      division   0.9656  770
  #      division   1.4041  974
  #      outer_grid 974
        outer_grid 302
  ################################################################################
  #
  #  Definition of "minimal" basis
  #
  ################################################################################
  #     valence basis states
      valence      2  s   2.
      valence      2  p   4.
  #     ion occupancy
      ion_occ      2  s   1.
      ion_occ      2  p   3.
  ################################################################################
  #
  #  Suggested additional basis functions. For production calculations,
  #  uncomment them one after another (the most important basis functions are
  #  listed first).
  #
  ################################################################################
  #  "First tier" - improvements: -699.05 meV to -159.38 meV
       hydro 2 p 1.8
       hydro 3 d 7.6
       hydro 3 s 6.4
  #  "Second tier" - improvements: -49.91 meV to -5.39 meV
       hydro 4 f 11.6
       hydro 3 p 6.2
       hydro 3 d 5.6
       hydro 5 g 17.6
       hydro 1 s 0.75
  #  "Third tier" - improvements: -2.83 meV to -0.50 meV
  #     ionic 2 p auto
  #     hydro 4 f 10.8
  #     hydro 4 d 4.7
  #     hydro 2 s 6.8
  #  "Fourth tier" - improvements: -0.40 meV to -0.12 meV
  #     hydro 3 p 5
  #     hydro 3 s 3.3
  #     hydro 5 g 15.6
  #     hydro 4 f 17.6
  #     hydro 4 d 14
  # Further basis functions - -0.08 meV and below
  #     hydro 3 s 2.1
  #     hydro 4 d 11.6
  #     hydro 3 p 16
  #     hydro 2 s 17.2
  
  
  -----------------------------------------------------------------------
  Completed first pass over input file control.in .
  -----------------------------------------------------------------------
  
  
  -----------------------------------------------------------------------
  Parsing geometry.in (first pass over file, find array dimensions only).
  The contents of geometry.in will be repeated verbatim below
  unless switched off by setting 'verbatim_writeout .false.' .
  in the first line of geometry.in .
  -----------------------------------------------------------------------
  
  atom      -4.053030000      0.065001000     -1.525160000  O
  atom      -4.566710000      0.974813000     -1.912820000  H
  atom      -3.067820000      0.330172000     -1.477310000  H
  atom      -4.581760000     -0.256435000      0.939478000  O
  atom      -4.349860000      0.471090000      1.504340000  H
  atom      -5.393870000     -0.726611000      1.228070000  H
  atom      -5.293160000      2.192130000     -2.328800000  O
  atom      -4.829300000      2.988660000     -1.973850000  H
  atom      -5.428570000      2.328640000     -3.235170000  H
  
  -----------------------------------------------------------------------
  Completed first pass over input file geometry.in .
  -----------------------------------------------------------------------
  
 
  Basic array size parameters: 
  | Number of species                 :        2
  | Number of atoms                   :        9
  | Max. basis fn. angular momentum   :        4
  | Max. atomic/ionic basis occupied n:        2
  | Max. number of basis fn. types    :        2
  | Max. radial fns per species/type  :        8
  | Max. logarithmic grid size        :     1301
  | Max. radial integration grid size :       73
  | Max. angular integration grid size:      302
  | Max. angular grid division number :        8
  | Radial grid for Hartree potential :     1301
  | Number of spin channels           :        1

------------------------------------------------------------
          Reading file control.in.
------------------------------------------------------------
  XC: Using RPBE gradient-corrected functionals.
  Spin treatment: No spin polarisation.
  Scalar relativistic treatment of kinetic energy: on-site free-atom approximation to ZORA.
  Charge =   0.000000E+00: Neutral system requested explicitly.
  Using non-empirical van der Waals correction (Hirshfeld partitioning):
  Occupation type: Gaussian broadening, width =   0.100000E-01 eV.
  Using pulay charge density mixing.
  Pulay mixing - number of memorized iterations:   10
  Charge density mixing - mixing parameter:     0.1000
  Convergence accuracy of self-consistent charge density: 0.5000E-04
  Convergence accuracy of sum of eigenvalues: 0.5000E-02
  Convergence accuracy of total energy: 0.5000E-05
  Maximum number of s.-c. iterations  :  3000
  Kohn-Sham eigenvalues and eigenfunctions calculated by lapack diagonalisation (D&C).
  Number of empty states per atom:        8
  Threshold for basis singularities: 0.0000E+00
  Partition function in integrals calculations: rho / r^2
 Using packed matrix format           0
  Convergence accuracy of forces: 0.5000E-03
  Cleaning forces before final output.
  Hirshfeld charge analysis will be performed.
 
  Reading configuration options for species H                   .
  | Found nuclear charge :   1.0000
  | Found cutoff potl. onset [A], width [A], scale factor :    4.00000    2.00000    1.00000
  | Found cutoff specification for free atom: Cutoff potential begins at    8.00000 A.
  | Found logarithmic grid data [bohr] : 0.1000E-03 0.1000E+03 0.1012E+01
  | Threshold for basis-dependent cutoff potential is   0.100000E-03
  | Found data for basic radial integration grid :    24 points, outermost radius =    7.000 A
  | Found multiplier for basic radial grid :   2
  | Found angular grid specification: user-specified.
  | Specified grid contains     4 separate shells.
  | Check grid settings after all constraints further below.
  | Found l_max for Hartree potential  :   4
  | Found free-atom valence shell :  1 s   1.000
  | No ionic wave fns used. Skipping ion_occ.
  | Found hydrogenic basis function :  2 s   2.100
  | Found hydrogenic basis function :  2 p   3.500
  | Found hydrogenic basis function :  1 s   0.850
  | Found hydrogenic basis function :  2 p   3.700
  | Found hydrogenic basis function :  2 s   1.200
  | Found hydrogenic basis function :  3 d   7.000
  Species H                   : Missing cutoff potential type.
  Defaulting to exp(1/x)/(1-x)^2 type cutoff potential.
  Species H : On-site basis accuracy parameter (for Gram-Schmidt orthonormalisation) not specified.
  Using default value basis_acc =  0.1000000E-03.
  Species H                   : Using default innermost maximum threshold i_radial=  2 for radial functions.
  Species H                   : Basic radial grid will be enhanced according to radial_multiplier =   2, to contain    49 grid points.
 
  Reading configuration options for species O                   .
  | Found nuclear charge :   8.0000
  | Found atomic mass :    15.9994000000000      amu
  | Found l_max for Hartree potential  :   4
  | Found cutoff potl. onset [A], width [A], scale factor :    4.00000    2.00000    1.00000
  | Found cutoff specification for free atom: Cutoff potential begins at    8.00000 A.
  | Threshold for basis-dependent cutoff potential is   0.100000E-03
  | Found logarithmic grid data [bohr] : 0.1000E-03 0.1000E+03 0.1012E+01
  | Found data for basic radial integration grid :    36 points, outermost radius =    7.000 A
  | Found multiplier for basic radial grid :   2
  | Found angular grid specification: user-specified.
  | Specified grid contains     4 separate shells.
  | Check grid settings after all constraints further below.
  | Found free-atom valence shell :  2 s   2.000
  | Found free-atom valence shell :  2 p   4.000
  | No ionic wave fns used. Skipping ion_occ.
  | No ionic wave fns used. Skipping ion_occ.
  | Found hydrogenic basis function :  2 p   1.800
  | Found hydrogenic basis function :  3 d   7.600
  | Found hydrogenic basis function :  3 s   6.400
  | Found hydrogenic basis function :  4 f  11.600
  | Found hydrogenic basis function :  3 p   6.200
  | Found hydrogenic basis function :  3 d   5.600
  | Found hydrogenic basis function :  5 g  17.600
  | Found hydrogenic basis function :  1 s   0.750
  Species O                   : Missing cutoff potential type.
  Defaulting to exp(1/x)/(1-x)^2 type cutoff potential.
  Species O : On-site basis accuracy parameter (for Gram-Schmidt orthonormalisation) not specified.
  Using default value basis_acc =  0.1000000E-03.
  Species O                   : Using default innermost maximum threshold i_radial=  2 for radial functions.
  Species O                   : Basic radial grid will be enhanced according to radial_multiplier =   2, to contain    73 grid points.
 
  Finished reading input file 'control.in'. Consistency checks are next.
 
  Target number of points in a grid batch is not set. Defaulting to  100
  Method for grid partitioning is not set. Defaulting to parallel hash+maxmin partitioning.
  Batch size limit is not set. Defaulting to    200
  By default, will store active basis functions for each batch.
  If in need of memory, prune_basis_once .false. can be used to disable this option.
  communication_type for Hartree potential was not specified.
  Defaulting to calc_hartree .
  Pulay mixer: Number of initial linear mixing iterations not set.
  Defaulting to    0 iterations.
  Work space size for distributed Hartree potential not set.
  Defaulting to   0.200000E+03 MB.
  Algorithm-dependent basis array size parameters:
  | n_max_pulay                         :       10
  Geometry relaxation not requested: no relaxation will be performed.
  Handling of forces: Unphysical translation and rotation will be removed from forces.
  No accuracy limit for integral partition fn. given. Defaulting to 0.1000E-14.
  No threshold value for u(r) in integrations given. Defaulting to 0.1000E-05.
  No accuracy for occupation numbers given. Defaulting to 0.1000E-07.
  No threshold value for occupation numbers given. Defaulting to 0.0000E+00.
  No accuracy for fermi level given. Defaulting to 0.1000E-19.
  Maximum # of iterations to find E_F not set. Defaulting to  200.
  Will not use alltoall communication since running on < 1024 CPUs.
  Partitioning for Hartree potential was not defined. Using partition_type for integrals.
  | Reporting present value of keyword multip_moments_threshold  :       0.10000000E-09
  | This value may affect high angular momentum components of the Hartree potential in periodic systems.
  No q(lm)/r^(l+1) cutoff set for long-range Hartree potential.
  | Using default value of  0.100000E-09 .
  | Verify using the multipole_threshold keyword.
  Defaulting to new monopole extrapolation.
  Density update method: Loop over occupied states selected for charge density update.
------------------------------------------------------------


------------------------------------------------------------
          Reading geometry description geometry.in.
------------------------------------------------------------
  Input structure read successfully.
  The structure contains        9 atoms,  and a total of         30.000 electrons.

  Input geometry:
  | No unit cell requested.
  | Atomic structure:
  |       Atom                x [A]            y [A]            z [A]
  |    1: Species O             -4.053030         0.065001        -1.525160
  |    2: Species H             -4.566710         0.974813        -1.912820
  |    3: Species H             -3.067820         0.330172        -1.477310
  |    4: Species O             -4.581760        -0.256435         0.939478
  |    5: Species H             -4.349860         0.471090         1.504340
  |    6: Species H             -5.393870        -0.726611         1.228070
  |    7: Species O             -5.293160         2.192130        -2.328800
  |    8: Species H             -4.829300         2.988660        -1.973850
  |    9: Species H             -5.428570         2.328640        -3.235170
  |

  | The smallest distance between any two atoms is         0.92654057 AA.
  |
  | The first atom of this pair is atom number                      7 .
  | The second atom of this pair is atom number                     9 .

  Structure-dependent array size parameters: 
  | Maximum number of distinct radial functions  :       18
  | Maximum number of basis functions            :      207
  | Number of Kohn-Sham states (occupied + empty):       51
------------------------------------------------------------

------------------------------------------------------------
          Preparing all fixed parts of the calculation.
------------------------------------------------------------
  Determining machine precision:
    2.225073858507201E-308
  Setting up grids for atomic and cluster calculations.

  Creating wave function, potential, and density for free atoms.

  Species: H

  List of occupied orbitals and eigenvalues:
    n    l              occ      energy [Ha]    energy [eV]
    1    0           1.0000        -0.241408        -6.5691


  Species: O

  List of occupied orbitals and eigenvalues:
    n    l              occ      energy [Ha]    energy [eV]
    1    0           2.0000       -18.944147      -515.4965
    2    0           2.0000        -0.883529       -24.0421
    2    1           4.0000        -0.330176        -8.9845

  Creating fixed part of basis set: Ionic, confined, hydrogenic.
 
  H                    hydrogenic:
 
  List of hydrogenic basis orbitals: 
    n    l      effective z      eigenvalue [eV]  inner max. [A]     outer max. [A]     outer radius [A]   
    2    0         2.100000       -14.9965           0.193241           1.317192           5.372934
    2    1         3.500000       -41.6672           0.602363           0.602363           4.056010
    1    0         0.850000        -9.8292           0.624864           0.624864           5.372934
    2    1         3.700000       -46.5653           0.573616           0.573616           3.909951
    2    0         1.200000        -4.5995           0.334977           2.228160           5.505921
    3    2         7.000000       -74.0753           0.680692           0.680692           3.769152
 
 
  O                    hydrogenic:
 
  List of hydrogenic basis orbitals: 
    n    l      effective z      eigenvalue [eV]  inner max. [A]     outer max. [A]     outer radius [A]   
    2    1         1.800000       -11.0118           1.178546           1.178546           5.432516
    3    2         7.600000       -87.3182           0.624117           0.624117           3.541422
    3    0         6.400000       -61.9209           0.061166           1.081887           4.306510
    4    3        11.600000      -114.4238           0.731621           0.731621           3.584982
    3    1         6.200000       -58.1113           0.255677           1.030255           4.306510
    3    2         5.600000       -47.4081           0.847222           0.847222           4.413102
    5    4        17.600000      -168.5799           0.749730           0.749730           3.372413
    1    0         0.750000        -7.6499           0.705275           0.705275           5.366508
 

  Adding cutoff potential to free-atom effective potential.
  Creating atomic-like basis functions for current effective potential.

  Species H                   :

  List of atomic basis orbitals and eigenvalues:
    n    l      energy [Ha]    energy [eV]    outer radius [A]
    1    0        -0.241374        -6.5681       5.372934


  Species O                   :

  List of atomic basis orbitals and eigenvalues:
    n    l      energy [Ha]    energy [eV]    outer radius [A]
    1    0       -18.944147      -515.4965       1.415745
    2    0        -0.883529       -24.0421       5.048305
    2    1        -0.330173        -8.9845       5.301302

  Assembling full basis from fixed parts.
  | Species H :   atomic orbital   1 s accepted.
  | Species H :    hydro orbital   2 s accepted.
  | Species H :    hydro orbital   1 s accepted.
  | Species H :    hydro orbital   2 s accepted.
  | Species H :    hydro orbital   2 p accepted.
  | Species H :    hydro orbital   2 p accepted.
  | Species H :    hydro orbital   3 d accepted.
  | Species O :   atomic orbital   1 s accepted.
  | Species O :    hydro orbital   3 s accepted.
  | Species O :   atomic orbital   2 s accepted.
  | Species O :    hydro orbital   1 s accepted.
  | Species O :    hydro orbital   3 p accepted.
  | Species O :   atomic orbital   2 p accepted.
  | Species O :    hydro orbital   2 p accepted.
  | Species O :    hydro orbital   3 d accepted.
  | Species O :    hydro orbital   3 d accepted.
  | Species O :    hydro orbital   4 f accepted.
  | Species O :    hydro orbital   5 g accepted.
 
  Basis size parameters after reduction:
  | Total number of radial functions:       18
  | Total number of basis functions :      207
 
  Testing on-site integration grid accuracy.
  |  Species  Function  <phi|h_atom|phi> (log., in eV)  <phi|h_atom|phi> (rad., in eV)
           1        1                 -6.5683835025                 -6.5684759159
           1        2                 13.3711789951                 13.3708738703
           1        3                 23.6590910787                 23.6532055418
           1        4                 16.2963827186                 16.1870710655 ***
           1        5                 28.7627214838                 28.7627215090
           1        6                 59.5965249172                 59.5965950857
           1        7                 60.2220506392                 60.2220503827
           2        8               -515.4964576505               -515.4964530710
           2        9                 15.3030791347                 15.3030722972
           2       10                -21.7296094581                -21.7296135470
           2       11                 14.2969371730                 14.2969701621
           2       12                 21.0679693190                 21.0679697493
           2       13                 -2.3833606469                 -2.3833613176
           2       14                 13.7067136422                 13.7066766629
           2       15                 45.8013116808                 45.8013116965
           2       16                 52.2309815402                 52.2309831494
           2       17                 85.4120732416                 85.4120732763
           2       18                142.1019167745                142.1019167817
 * Note: Onsite integrals marked "***" above are less accurate than
 * onsite_accuracy_threshold =    0.03000 eV. Usually, this is harmless.
 * When in doubt, tighten the "radial" and/or "radial_multiplier" flags to check.

  Preparing densities etc. for the partition functions (integrals / Hartree potential).

  Preparations completed.
  max(cpu_time)          :      0.167 s.
  Wall clock time (cpu1) :      0.551 s.
------------------------------------------------------------

------------------------------------------------------------
          Begin self-consistency loop: Initialization.

          Date     :  20150727, Time     :  115619.852
------------------------------------------------------------

  Initializing index lists of integration centers etc. from given atomic structure:
  | Number of centers in hartree potential         :         9
  | Number of centers in hartree multipole         :         9
  | Number of centers in electron density summation:         9
  | Number of centers in basis integrals           :         9
  | Number of centers in integrals                 :         9
  Partitioning the integration grid into batches with parallel hashing+maxmin method.
  | Number of batches:     1326
  | Maximal batch size:     199
  | Minimal batch size:      49
  | Average batch size:      89.009
  | Standard deviation of batch sizes:      27.952

  Integration load balanced across     8 MPI tasks.
  Work distribution over tasks is as follows:
  Task     0 has      14766 integration points.
  Task     1 has      14741 integration points.
  Task     2 has      14729 integration points.
  Task     3 has      14724 integration points.
  Task     4 has      14754 integration points.
  Task     5 has      14792 integration points.
  Task     6 has      14764 integration points.
  Task     7 has      14756 integration points.
  Initializing partition tables, free-atom densities, potentials, etc. across the integration grid (initialize_grid_storage).
  | Net number of integration points:   118026
  | of which are non-zero points    :   117545
  Obtaining max. number of non-zero basis functions in each batch (get_n_compute_maxes).
  | Maximal number of non-zero basis functions:      206 in task     0
  | Maximal number of non-zero basis functions:      206 in task     1
  | Maximal number of non-zero basis functions:      206 in task     2
  | Maximal number of non-zero basis functions:      206 in task     3
  | Maximal number of non-zero basis functions:      206 in task     4
  | Maximal number of non-zero basis functions:      206 in task     5
  | Maximal number of non-zero basis functions:      206 in task     6
  | Maximal number of non-zero basis functions:      206 in task     7
  Integrating Hamiltonian matrix: batch-based integration.
  Time summed over all CPUs for integration: real work        2.501 s, elapsed        2.540 s
  Integrating overlap matrix.
  Time summed over all CPUs for integration: real work        1.308 s, elapsed        1.334 s

  Updating Kohn-Sham eigenvalues, eigenvectors, occupation numbers, and Fermi level.
  Solving generalized eigenproblem
  Updating Kohn-Sham eigenvalues and eigenfunctions.
  Transforming overlap matrix and checking for singularities.
  Overlap matrix is nonsingular:
  | Lowest eigenvalue:  0.351367E-03
  Solving real generalised eigenvalue problem by standard LAPACK (fast)
  Determining occupation numbers for Kohn-Sham eigenstates.
  | Chemical potential (Fermi level) in eV                 : -.51082436E+01
  | Error in electron count due to remaining E_F inaccuracy: 0.00000000E+00
  | Maximum occupation number of highest empty state:  0.00E+00

  Writing Kohn-Sham eigenvalues.

  State    Occupation    Eigenvalue [Ha]    Eigenvalue [eV]
      1       2.00000         -19.064784         -518.77916
      2       2.00000         -19.051934         -518.42951
      3       2.00000         -19.019664         -517.55139
      4       2.00000          -1.121146          -30.50794
      5       2.00000          -1.098503          -29.89178
      6       2.00000          -1.043453          -28.39380
      7       2.00000          -0.650073          -17.68938
      8       2.00000          -0.644487          -17.53738
      9       2.00000          -0.596404          -16.22898
     10       2.00000          -0.525152          -14.29012
     11       2.00000          -0.503635          -13.70461
     12       2.00000          -0.479085          -13.03658
     13       2.00000          -0.440912          -11.99782
     14       2.00000          -0.438449          -11.93082
     15       2.00000          -0.402616          -10.95575
     16       0.00000          -0.083744           -2.27878
     17       0.00000          -0.060418           -1.64407
     18       0.00000          -0.037002           -1.00688
     19       0.00000          -0.010922           -0.29720
     20       0.00000           0.002517            0.06850
     21       0.00000           0.044889            1.22149
     22       0.00000           0.081863            2.22760
     23       0.00000           0.091344            2.48560
     24       0.00000           0.096652            2.63003
     25       0.00000           0.107773            2.93265
     26       0.00000           0.119406            3.24919
     27       0.00000           0.123955            3.37300
     28       0.00000           0.127801            3.47765
     29       0.00000           0.154928            4.21580
     30       0.00000           0.170733            4.64588
     31       0.00000           0.189812            5.16504
     32       0.00000           0.215148            5.85447
     33       0.00000           0.233133            6.34386
     34       0.00000           0.254624            6.92867
     35       0.00000           0.258924            7.04569
     36       0.00000           0.301925            8.21581
     37       0.00000           0.323786            8.81067
     38       0.00000           0.347312            9.45085
     39       0.00000           0.373992           10.17683
     40       0.00000           0.397059           10.80453
     41       0.00000           0.410548           11.17157
     42       0.00000           0.422125           11.48661
     43       0.00000           0.440949           11.99884
     44       0.00000           0.442479           12.04046
     45       0.00000           0.500127           13.60915
     46       0.00000           0.546525           14.87171
     47       0.00000           0.553810           15.06993
     48       0.00000           0.560056           15.23991
     49       0.00000           0.577518           15.71507
     50       0.00000           0.644553           17.53919
     51       0.00000           0.688843           18.74436

  Highest occupied state (VBM) at    -10.95574597 eV
  | Occupation number:      2.00000000

  Lowest unoccupied state (CBM) at    -2.27877896 eV
  | Occupation number:      0.00000000

  Overall HOMO-LUMO gap:      8.67696701 eV.
  Calculating total energy contributions from superposition of free atom densities.

  Total energy components:
  | Sum of eigenvalues            :        -130.16059664 Ha       -3541.85004191 eV
  | XC energy correction          :         -27.33378415 Ha        -743.79011044 eV
  | XC potential correction       :          34.92464645 Ha         950.34798294 eV
  | Free-atom electrostatic energy:        -107.27853756 Ha       -2919.19753412 eV
  | Hartree energy correction     :           0.00000000 Ha           0.00000000 eV
  | van der Waals energy corr.    :           0.00000000 Ha           0.00000000 eV
  | Entropy correction            :           0.00000000 Ha           0.00000000 eV
  | ---------------------------
  | Total energy                  :        -229.84827191 Ha       -6254.48970353 eV
  | Total energy, T -> 0          :        -229.84827191 Ha       -6254.48970353 eV  <-- do not rely on this value for anything but (periodic) metals
  | Electronic free energy        :        -229.84827191 Ha       -6254.48970353 eV

  Derived energy quantities:
  | Kinetic energy                :         227.47553988 Ha        6189.92437991 eV
  | Electrostatic energy          :        -429.99002763 Ha      -11700.62397301 eV
  | Energy correction for multipole
  | error in Hartree potential    :           0.00000000 Ha           0.00000000 eV
  | Sum of eigenvalues per atom                           :        -393.53889355 eV
  | Total energy (T->0) per atom                          :        -694.94330039 eV  <-- do not rely on this value for anything but (periodic) metals
  | Electronic free energy per atom                       :        -694.94330039 eV
  Initialize hartree_potential_storage
  Max. number of atoms included in rho_multipole:            9

  End scf initialization - timings             :  max(cpu_time)    wall_clock(cpu1)
  | Time for scf. initialization               :        0.740 s           0.739 s
  | Boundary condition initialization          :        0.000 s           0.000 s
  | Integration                                :        0.486 s           0.486 s
  | Solution of K.-S. eqns.                    :        0.065 s           0.066 s
  | Grid partitioning                          :        0.092 s           0.092 s
  | Preloading free-atom quantities on grid    :        0.013 s           0.013 s
  | Free-atom superposition energy             :        0.029 s           0.029 s
  | Total energy evaluation                    :        0.000 s           0.001 s
------------------------------------------------------------

------------------------------------------------------------
          Begin self-consistency iteration #    1

  Date     :  20150727, Time     :  115620.592
------------------------------------------------------------
  Evaluating new KS density.
  Integration grid: deviation in total charge (<rho> - N_e) =   1.065814E-14
  Pulay mixing of updated and previous charge densities.

  Evaluating partitioned Hartree potential by multipole expansion.
  | Analytical far-field extrapolation by fixed multipoles:
  | Hartree multipole sum: apparent total charge =  -0.121019E-05
  Summing up the Hartree potential.
  Time summed over all CPUs for potential: real work        0.944 s, elapsed        0.949 s
  | RMS charge density error from multipole expansion :   0.127505E-02

  Integrating Hamiltonian matrix: batch-based integration.
  Time summed over all CPUs for integration: real work        2.495 s, elapsed        2.550 s

  Updating Kohn-Sham eigenvalues, eigenvectors, occupation numbers, and Fermi level.
  Solving generalized eigenproblem
  Updating Kohn-Sham eigenvalues and eigenfunctions.
  Solving real generalised eigenvalue problem by standard LAPACK (fast)
  Determining occupation numbers for Kohn-Sham eigenstates.
  | Chemical potential (Fermi level) in eV                 : -.46570933E+01
  | Error in electron count due to remaining E_F inaccuracy: 0.00000000E+00
  | Maximum occupation number of highest empty state:  0.00E+00

  Writing Kohn-Sham eigenvalues.

  State    Occupation    Eigenvalue [Ha]    Eigenvalue [eV]
      1       2.00000         -18.998497         -516.97541
      2       2.00000         -18.965759         -516.08456
      3       2.00000         -18.930070         -515.11343
      4       2.00000          -1.090627          -29.67746
      5       2.00000          -1.053962          -28.67976
      6       2.00000          -0.994421          -27.05956
      7       2.00000          -0.624138          -16.98366
      8       2.00000          -0.605952          -16.48878
      9       2.00000          -0.560546          -15.25323
     10       2.00000          -0.485967          -13.22384
     11       2.00000          -0.458714          -12.48224
     12       2.00000          -0.439672          -11.96407
     13       2.00000          -0.398642          -10.84760
     14       2.00000          -0.391737          -10.65970
     15       2.00000          -0.351160           -9.55554
     16       0.00000          -0.075934           -2.06628
     17       0.00000          -0.052087           -1.41735
     18       0.00000          -0.025976           -0.70684
     19       0.00000          -0.005508           -0.14988
     20       0.00000           0.009150            0.24898
     21       0.00000           0.055197            1.50198
     22       0.00000           0.092829            2.52600
     23       0.00000           0.102670            2.79379
     24       0.00000           0.110820            3.01556
     25       0.00000           0.116987            3.18339
     26       0.00000           0.129085            3.51257
     27       0.00000           0.133485            3.63230
     28       0.00000           0.140711            3.82894
     29       0.00000           0.165720            4.50948
     30       0.00000           0.182394            4.96319
     31       0.00000           0.200128            5.44576
     32       0.00000           0.225538            6.13721
     33       0.00000           0.244307            6.64794
     34       0.00000           0.264418            7.19517
     35       0.00000           0.267709            7.28473
     36       0.00000           0.312160            8.49431
     37       0.00000           0.336255            9.14997
     38       0.00000           0.357486            9.72768
     39       0.00000           0.383066           10.42377
     40       0.00000           0.408374           11.11241
     41       0.00000           0.420563           11.44410
     42       0.00000           0.434306           11.81807
     43       0.00000           0.451023           12.27296
     44       0.00000           0.451894           12.29667
     45       0.00000           0.510392           13.88848
     46       0.00000           0.558861           15.20737
     47       0.00000           0.568312           15.46456
     48       0.00000           0.575394           15.65726
     49       0.00000           0.593198           16.14173
     50       0.00000           0.658499           17.91868
     51       0.00000           0.703114           19.13270

  Highest occupied state (VBM) at     -9.55553834 eV
  | Occupation number:      2.00000000

  Lowest unoccupied state (CBM) at    -2.06628011 eV
  | Occupation number:      0.00000000

  Overall HOMO-LUMO gap:      7.48925823 eV.

  Total energy components:
  | Sum of eigenvalues            :        -128.69972413 Ha       -3502.09767829 eV
  | XC energy correction          :         -27.48342172 Ha        -747.86195569 eV
  | XC potential correction       :          35.12067490 Ha         955.68218855 eV
  | Free-atom electrostatic energy:        -107.27853756 Ha       -2919.19753412 eV
  | Hartree energy correction     :          -1.41076540 Ha         -38.38887970 eV
  | van der Waals energy corr.    :           0.00000000 Ha           0.00000000 eV
  | Entropy correction            :           0.00000000 Ha           0.00000000 eV
  | ---------------------------
  | Total energy                  :        -229.75177390 Ha       -6251.86385926 eV
  | Total energy, T -> 0          :        -229.75177390 Ha       -6251.86385926 eV  <-- do not rely on this value for anything but (periodic) metals
  | Electronic free energy        :        -229.75177390 Ha       -6251.86385926 eV

  Derived energy quantities:
  | Kinetic energy                :         228.37154090 Ha        6214.30580826 eV
  | Electrostatic energy          :        -430.63989309 Ha      -11718.30771183 eV
  | Energy correction for multipole
  | error in Hartree potential    :          -0.00009277 Ha          -0.00252431 eV
  | Sum of eigenvalues per atom                           :        -389.12196425 eV
  | Total energy (T->0) per atom                          :        -694.65153992 eV  <-- do not rely on this value for anything but (periodic) metals
  | Electronic free energy per atom                       :        -694.65153992 eV

  Self-consistency convergence accuracy:
  | Change of charge density      : 0.5264E+00
  | Change of sum of eigenvalues  : 0.3975E+02 eV
  | Change of total energy        : 0.2626E+01 eV

  End self-consistency iteration #     1       :  max(cpu_time)    wall_clock(cpu1)
  | Time for this iteration                    :        0.687 s           0.687 s
  | Charge density update                      :        0.223 s           0.223 s
  | Density mixing                             :        0.002 s           0.002 s
  | Hartree multipole update                   :        0.004 s           0.004 s
  | Hartree multipole summation                :        0.120 s           0.119 s
  | Integration                                :        0.319 s           0.319 s
  | Solution of K.-S. eqns.                    :        0.016 s           0.016 s
  | Total energy evaluation                    :        0.001 s           0.000 s
------------------------------------------------------------

------------------------------------------------------------
          Begin self-consistency iteration #    2

  Date     :  20150727, Time     :  115621.279
------------------------------------------------------------
  Evaluating new KS density.
  Integration grid: deviation in total charge (<rho> - N_e) =   7.105427E-15
  Pulay mixing of updated and previous charge densities.

  Evaluating partitioned Hartree potential by multipole expansion.
  | Analytical far-field extrapolation by fixed multipoles:
  | Hartree multipole sum: apparent total charge =  -0.349043E-05
  Summing up the Hartree potential.
  Time summed over all CPUs for potential: real work        0.944 s, elapsed        0.949 s
  | RMS charge density error from multipole expansion :   0.508372E-02

  Integrating Hamiltonian matrix: batch-based integration.
  Time summed over all CPUs for integration: real work        2.501 s, elapsed        2.550 s

  Updating Kohn-Sham eigenvalues, eigenvectors, occupation numbers, and Fermi level.
  Solving generalized eigenproblem
  Updating Kohn-Sham eigenvalues and eigenfunctions.
  Solving real generalised eigenvalue problem by standard LAPACK (fast)
  Determining occupation numbers for Kohn-Sham eigenstates.
  | Chemical potential (Fermi level) in eV                 : -.35015567E+01
  | Error in electron count due to remaining E_F inaccuracy: 0.00000000E+00
  | Maximum occupation number of highest empty state:  0.00E+00

  Highest occupied state (VBM) at     -6.24243713 eV
  | Occupation number:      2.00000000

  Lowest unoccupied state (CBM) at    -1.65780643 eV
  | Occupation number:      0.00000000

  Overall HOMO-LUMO gap:      4.58463070 eV.

  Total energy components:
  | Sum of eigenvalues            :        -125.26022304 Ha       -3408.50409163 eV
  | XC energy correction          :         -27.85005230 Ha        -757.83848159 eV
  | XC potential correction       :          35.60065743 Ha         968.74317790 eV
  | Free-atom electrostatic energy:        -107.27853756 Ha       -2919.19753412 eV
  | Hartree energy correction     :          -4.85078943 Ha        -131.99669618 eV
  | van der Waals energy corr.    :           0.00000000 Ha           0.00000000 eV
  | Entropy correction            :           0.00000000 Ha           0.00000000 eV
  | ---------------------------
  | Total energy                  :        -229.63894489 Ha       -6248.79362563 eV
  | Total energy, T -> 0          :        -229.63894489 Ha       -6248.79362563 eV  <-- do not rely on this value for anything but (periodic) metals
  | Electronic free energy        :        -229.63894489 Ha       -6248.79362563 eV

  Derived energy quantities:
  | Kinetic energy                :         230.15625894 Ha        6262.87045717 eV
  | Electrostatic energy          :        -431.94515153 Ha      -11753.82560121 eV
  | Energy correction for multipole
  | error in Hartree potential    :          -0.00078932 Ha          -0.02147845 eV
  | Sum of eigenvalues per atom                           :        -378.72267685 eV
  | Total energy (T->0) per atom                          :        -694.31040285 eV  <-- do not rely on this value for anything but (periodic) metals
  | Electronic free energy per atom                       :        -694.31040285 eV

  Self-consistency convergence accuracy:
  | Change of charge density      : 0.3974E+00
  | Change of sum of eigenvalues  : 0.9359E+02 eV
  | Change of total energy        : 0.3070E+01 eV

  End self-consistency iteration #     2       :  max(cpu_time)    wall_clock(cpu1)
  | Time for this iteration                    :        0.686 s           0.686 s
  | Charge density update                      :        0.222 s           0.223 s
  | Density mixing                             :        0.003 s           0.003 s
  | Hartree multipole update                   :        0.003 s           0.004 s
  | Hartree multipole summation                :        0.120 s           0.119 s
  | Integration                                :        0.319 s           0.319 s
  | Solution of K.-S. eqns.                    :        0.016 s           0.017 s
  | Total energy evaluation                    :        0.000 s           0.001 s
------------------------------------------------------------

------------------------------------------------------------
          Begin self-consistency iteration #    3

  Date     :  20150727, Time     :  115621.966
------------------------------------------------------------
  Evaluating new KS density.
  Integration grid: deviation in total charge (<rho> - N_e) =   0.000000E+00
  Pulay mixing of updated and previous charge densities.

  Evaluating partitioned Hartree potential by multipole expansion.
  | Analytical far-field extrapolation by fixed multipoles:
  | Hartree multipole sum: apparent total charge =  -0.325336E-05
  Summing up the Hartree potential.
  Time summed over all CPUs for potential: real work        0.944 s, elapsed        0.947 s
  | RMS charge density error from multipole expansion :   0.101665E-01

  Integrating Hamiltonian matrix: batch-based integration.
  Time summed over all CPUs for integration: real work        2.490 s, elapsed        2.535 s

  Updating Kohn-Sham eigenvalues, eigenvectors, occupation numbers, and Fermi level.
  Solving generalized eigenproblem
  Updating Kohn-Sham eigenvalues and eigenfunctions.
  Solving real generalised eigenvalue problem by standard LAPACK (fast)
  Determining occupation numbers for Kohn-Sham eigenstates.
  | Chemical potential (Fermi level) in eV                 : -.32416628E+01
  | Error in electron count due to remaining E_F inaccuracy: 0.00000000E+00
  | Maximum occupation number of highest empty state:  0.00E+00

  Highest occupied state (VBM) at     -6.17970322 eV
  | Occupation number:      2.00000000

  Lowest unoccupied state (CBM) at    -1.59715762 eV
  | Occupation number:      0.00000000

  Overall HOMO-LUMO gap:      4.58254560 eV.

  Total energy components:
  | Sum of eigenvalues            :        -125.43688512 Ha       -3413.31131147 eV
  | XC energy correction          :         -27.82069144 Ha        -757.03953170 eV
  | XC potential correction       :          35.55974186 Ha         967.62980857 eV
  | Free-atom electrostatic energy:        -107.27853756 Ha       -2919.19753412 eV
  | Hartree energy correction     :          -4.65970407 Ha        -126.79699916 eV
  | van der Waals energy corr.    :           0.00000000 Ha           0.00000000 eV
  | Entropy correction            :           0.00000000 Ha           0.00000000 eV
  | ---------------------------
  | Total energy                  :        -229.63607632 Ha       -6248.71556788 eV
  | Total energy, T -> 0          :        -229.63607632 Ha       -6248.71556788 eV  <-- do not rely on this value for anything but (periodic) metals
  | Electronic free energy        :        -229.63607632 Ha       -6248.71556788 eV

  Derived energy quantities:
  | Kinetic energy                :         228.86368714 Ha        6227.69778886 eV
  | Electrostatic energy          :        -430.67907203 Ha      -11719.37382503 eV
  | Energy correction for multipole
  | error in Hartree potential    :          -0.00332928 Ha          -0.09059442 eV
  | Sum of eigenvalues per atom                           :        -379.25681239 eV
  | Total energy (T->0) per atom                          :        -694.30172976 eV  <-- do not rely on this value for anything but (periodic) metals
  | Electronic free energy per atom                       :        -694.30172976 eV

  Self-consistency convergence accuracy:
  | Change of charge density      : 0.1997E+00
  | Change of sum of eigenvalues  : -.4807E+01 eV
  | Change of total energy        : 0.7806E-01 eV

  End self-consistency iteration #     3       :  max(cpu_time)    wall_clock(cpu1)
  | Time for this iteration                    :        0.682 s           0.681 s
  | Charge density update                      :        0.220 s           0.219 s
  | Density mixing                             :        0.004 s           0.004 s
  | Hartree multipole update                   :        0.004 s           0.004 s
  | Hartree multipole summation                :        0.119 s           0.119 s
  | Integration                                :        0.318 s           0.318 s
  | Solution of K.-S. eqns.                    :        0.016 s           0.016 s
  | Total energy evaluation                    :        0.000 s           0.001 s
------------------------------------------------------------

------------------------------------------------------------
          Begin self-consistency iteration #    4

  Date     :  20150727, Time     :  115622.648
------------------------------------------------------------
  Evaluating new KS density.
  Integration grid: deviation in total charge (<rho> - N_e) =   1.421085E-14
  Pulay mixing of updated and previous charge densities.

  Evaluating partitioned Hartree potential by multipole expansion.
  | Analytical far-field extrapolation by fixed multipoles:
  | Hartree multipole sum: apparent total charge =  -0.390527E-05
  Summing up the Hartree potential.
  Time summed over all CPUs for potential: real work        0.943 s, elapsed        0.947 s
  | RMS charge density error from multipole expansion :   0.130846E-01

  Integrating Hamiltonian matrix: batch-based integration.
  Time summed over all CPUs for integration: real work        2.488 s, elapsed        2.545 s

  Updating Kohn-Sham eigenvalues, eigenvectors, occupation numbers, and Fermi level.
  Solving generalized eigenproblem
  Updating Kohn-Sham eigenvalues and eigenfunctions.
  Solving real generalised eigenvalue problem by standard LAPACK (fast)
  Determining occupation numbers for Kohn-Sham eigenstates.
  | Chemical potential (Fermi level) in eV                 : -.27636513E+01
  | Error in electron count due to remaining E_F inaccuracy: 0.00000000E+00
  | Maximum occupation number of highest empty state:  0.00E+00

  Highest occupied state (VBM) at     -5.02925852 eV
  | Occupation number:      2.00000000

  Lowest unoccupied state (CBM) at    -1.45752742 eV
  | Occupation number:      0.00000000

  Overall HOMO-LUMO gap:      3.57173110 eV.

  Total energy components:
  | Sum of eigenvalues            :        -124.35248192 Ha       -3383.80319907 eV
  | XC energy correction          :         -27.94471335 Ha        -760.41433984 eV
  | XC potential correction       :          35.72174665 Ha         972.03818306 eV
  | Free-atom electrostatic energy:        -107.27853756 Ha       -2919.19753412 eV
  | Hartree energy correction     :          -5.77246058 Ha        -157.07664439 eV
  | van der Waals energy corr.    :           0.00000000 Ha           0.00000000 eV
  | Entropy correction            :           0.00000000 Ha           0.00000000 eV
  | ---------------------------
  | Total energy                  :        -229.62644677 Ha       -6248.45353436 eV
  | Total energy, T -> 0          :        -229.62644677 Ha       -6248.45353436 eV  <-- do not rely on this value for anything but (periodic) metals
  | Electronic free energy        :        -229.62644677 Ha       -6248.45353436 eV

  Derived energy quantities:
  | Kinetic energy                :         229.01963543 Ha        6231.94135784 eV
  | Electrostatic energy          :        -430.70136885 Ha      -11719.98055236 eV
  | Energy correction for multipole
  | error in Hartree potential    :          -0.00442273 Ha          -0.12034858 eV
  | Sum of eigenvalues per atom                           :        -375.97813323 eV
  | Total energy (T->0) per atom                          :        -694.27261493 eV  <-- do not rely on this value for anything but (periodic) metals
  | Electronic free energy per atom                       :        -694.27261493 eV

  Self-consistency convergence accuracy:
  | Change of charge density      : 0.1206E+00
  | Change of sum of eigenvalues  : 0.2951E+02 eV
  | Change of total energy        : 0.2620E+00 eV

  End self-consistency iteration #     4       :  max(cpu_time)    wall_clock(cpu1)
  | Time for this iteration                    :        0.684 s           0.684 s
  | Charge density update                      :        0.220 s           0.219 s
  | Density mixing                             :        0.005 s           0.005 s
  | Hartree multipole update                   :        0.004 s           0.004 s
  | Hartree multipole summation                :        0.119 s           0.119 s
  | Integration                                :        0.319 s           0.319 s
  | Solution of K.-S. eqns.                    :        0.016 s           0.016 s
  | Total energy evaluation                    :        0.000 s           0.000 s
------------------------------------------------------------

------------------------------------------------------------
          Begin self-consistency iteration #    5

  Date     :  20150727, Time     :  115623.332
------------------------------------------------------------
  Evaluating new KS density.
  Integration grid: deviation in total charge (<rho> - N_e) =   7.105427E-15
  Pulay mixing of updated and previous charge densities.

  Evaluating partitioned Hartree potential by multipole expansion.
  | Analytical far-field extrapolation by fixed multipoles:
  | Hartree multipole sum: apparent total charge =  -0.394639E-05
  Summing up the Hartree potential.
  Time summed over all CPUs for potential: real work        0.944 s, elapsed        0.947 s
  | RMS charge density error from multipole expansion :   0.138213E-01

  Integrating Hamiltonian matrix: batch-based integration.
  Time summed over all CPUs for integration: real work        2.485 s, elapsed        2.528 s

  Updating Kohn-Sham eigenvalues, eigenvectors, occupation numbers, and Fermi level.
  Solving generalized eigenproblem
  Updating Kohn-Sham eigenvalues and eigenfunctions.
  Solving real generalised eigenvalue problem by standard LAPACK (fast)
  Determining occupation numbers for Kohn-Sham eigenstates.
  | Chemical potential (Fermi level) in eV                 : -.27058875E+01
  | Error in electron count due to remaining E_F inaccuracy: 0.00000000E+00
  | Maximum occupation number of highest empty state:  0.00E+00

  Highest occupied state (VBM) at     -4.75356972 eV
  | Occupation number:      2.00000000

  Lowest unoccupied state (CBM) at    -1.44172972 eV
  | Occupation number:      0.00000000

  Overall HOMO-LUMO gap:      3.31184000 eV.

  Total energy components:
  | Sum of eigenvalues            :        -124.19763275 Ha       -3379.58953873 eV
  | XC energy correction          :         -27.96481005 Ha        -760.96119878 eV
  | XC potential correction       :          35.74774969 Ha         972.74576190 eV
  | Free-atom electrostatic energy:        -107.27853756 Ha       -2919.19753412 eV
  | Hartree energy correction     :          -5.93297407 Ha        -161.44443860 eV
  | van der Waals energy corr.    :           0.00000000 Ha           0.00000000 eV
  | Entropy correction            :           0.00000000 Ha           0.00000000 eV
  | ---------------------------
  | Total energy                  :        -229.62620474 Ha       -6248.44694833 eV
  | Total energy, T -> 0          :        -229.62620474 Ha       -6248.44694833 eV  <-- do not rely on this value for anything but (periodic) metals
  | Electronic free energy        :        -229.62620474 Ha       -6248.44694833 eV

  Derived energy quantities:
  | Kinetic energy                :         229.04960905 Ha        6232.75698134 eV
  | Electrostatic energy          :        -430.71100373 Ha      -11720.24273089 eV
  | Energy correction for multipole
  | error in Hartree potential    :          -0.00461183 Ha          -0.12549440 eV
  | Sum of eigenvalues per atom                           :        -375.50994875 eV
  | Total energy (T->0) per atom                          :        -694.27188315 eV  <-- do not rely on this value for anything but (periodic) metals
  | Electronic free energy per atom                       :        -694.27188315 eV

  Self-consistency convergence accuracy:
  | Change of charge density      : 0.3105E-01
  | Change of sum of eigenvalues  : 0.4214E+01 eV
  | Change of total energy        : 0.6586E-02 eV

  End self-consistency iteration #     5       :  max(cpu_time)    wall_clock(cpu1)
  | Time for this iteration                    :        0.683 s           0.683 s
  | Charge density update                      :        0.220 s           0.220 s
  | Density mixing                             :        0.006 s           0.005 s
  | Hartree multipole update                   :        0.003 s           0.003 s
  | Hartree multipole summation                :        0.119 s           0.119 s
  | Integration                                :        0.317 s           0.317 s
  | Solution of K.-S. eqns.                    :        0.016 s           0.016 s
  | Total energy evaluation                    :        0.000 s           0.001 s
------------------------------------------------------------

------------------------------------------------------------
          Begin self-consistency iteration #    6

  Date     :  20150727, Time     :  115624.015
------------------------------------------------------------
  Evaluating new KS density.
  Integration grid: deviation in total charge (<rho> - N_e) =   7.105427E-15
  Pulay mixing of updated and previous charge densities.

  Evaluating partitioned Hartree potential by multipole expansion.
  | Analytical far-field extrapolation by fixed multipoles:
  | Hartree multipole sum: apparent total charge =  -0.395506E-05
  Summing up the Hartree potential.
  Time summed over all CPUs for potential: real work        0.943 s, elapsed        0.947 s
  | RMS charge density error from multipole expansion :   0.141433E-01

  Integrating Hamiltonian matrix: batch-based integration.
  Time summed over all CPUs for integration: real work        2.488 s, elapsed        2.537 s

  Updating Kohn-Sham eigenvalues, eigenvectors, occupation numbers, and Fermi level.
  Solving generalized eigenproblem
  Updating Kohn-Sham eigenvalues and eigenfunctions.
  Solving real generalised eigenvalue problem by standard LAPACK (fast)
  Determining occupation numbers for Kohn-Sham eigenstates.
  | Chemical potential (Fermi level) in eV                 : -.26722140E+01
  | Error in electron count due to remaining E_F inaccuracy: 0.00000000E+00
  | Maximum occupation number of highest empty state:  0.00E+00

  Highest occupied state (VBM) at     -4.67261465 eV
  | Occupation number:      2.00000000

  Lowest unoccupied state (CBM) at    -1.42547249 eV
  | Occupation number:      0.00000000

  Overall HOMO-LUMO gap:      3.24714216 eV.

  Total energy components:
  | Sum of eigenvalues            :        -124.12061640 Ha       -3377.49381724 eV
  | XC energy correction          :         -27.97467230 Ha        -761.22956409 eV
  | XC potential correction       :          35.76054414 Ha         973.09391651 eV
  | Free-atom electrostatic energy:        -107.27853756 Ha       -2919.19753412 eV
  | Hartree energy correction     :          -6.01305613 Ha        -163.62358243 eV
  | van der Waals energy corr.    :           0.00000000 Ha           0.00000000 eV
  | Entropy correction            :           0.00000000 Ha           0.00000000 eV
  | ---------------------------
  | Total energy                  :        -229.62633825 Ha       -6248.45058137 eV
  | Total energy, T -> 0          :        -229.62633825 Ha       -6248.45058137 eV  <-- do not rely on this value for anything but (periodic) metals
  | Electronic free energy        :        -229.62633825 Ha       -6248.45058137 eV

  Derived energy quantities:
  | Kinetic energy                :         229.06872487 Ha        6233.27714930 eV
  | Electrostatic energy          :        -430.72039082 Ha      -11720.49816658 eV
  | Energy correction for multipole
  | error in Hartree potential    :          -0.00468464 Ha          -0.12747559 eV
  | Sum of eigenvalues per atom                           :        -375.27709080 eV
  | Total energy (T->0) per atom                          :        -694.27228682 eV  <-- do not rely on this value for anything but (periodic) metals
  | Electronic free energy per atom                       :        -694.27228682 eV

  Self-consistency convergence accuracy:
  | Change of charge density      : 0.8920E-02
  | Change of sum of eigenvalues  : 0.2096E+01 eV
  | Change of total energy        : -.3633E-02 eV

  End self-consistency iteration #     6       :  max(cpu_time)    wall_clock(cpu1)
  | Time for this iteration                    :        0.685 s           0.685 s
  | Charge density update                      :        0.220 s           0.220 s
  | Density mixing                             :        0.007 s           0.006 s
  | Hartree multipole update                   :        0.003 s           0.004 s
  | Hartree multipole summation                :        0.119 s           0.119 s
  | Integration                                :        0.318 s           0.318 s
  | Solution of K.-S. eqns.                    :        0.016 s           0.016 s
  | Total energy evaluation                    :        0.000 s           0.000 s
------------------------------------------------------------

------------------------------------------------------------
          Begin self-consistency iteration #    7

  Date     :  20150727, Time     :  115624.700
------------------------------------------------------------
  Evaluating new KS density.
  Integration grid: deviation in total charge (<rho> - N_e) =   0.000000E+00
  Pulay mixing of updated and previous charge densities.

  Evaluating partitioned Hartree potential by multipole expansion.
  | Analytical far-field extrapolation by fixed multipoles:
  | Hartree multipole sum: apparent total charge =  -0.378383E-05
  Summing up the Hartree potential.
  Time summed over all CPUs for potential: real work        0.944 s, elapsed        0.947 s
  | RMS charge density error from multipole expansion :   0.140210E-01

  Integrating Hamiltonian matrix: batch-based integration.
  Time summed over all CPUs for integration: real work        2.490 s, elapsed        2.527 s

  Updating Kohn-Sham eigenvalues, eigenvectors, occupation numbers, and Fermi level.
  Solving generalized eigenproblem
  Updating Kohn-Sham eigenvalues and eigenfunctions.
  Solving real generalised eigenvalue problem by standard LAPACK (fast)
  Determining occupation numbers for Kohn-Sham eigenstates.
  | Chemical potential (Fermi level) in eV                 : -.27370706E+01
  | Error in electron count due to remaining E_F inaccuracy: 0.00000000E+00
  | Maximum occupation number of highest empty state:  0.00E+00

  Highest occupied state (VBM) at     -4.85582811 eV
  | Occupation number:      2.00000000

  Lowest unoccupied state (CBM) at    -1.44425653 eV
  | Occupation number:      0.00000000

  Overall HOMO-LUMO gap:      3.41157158 eV.

  Total energy components:
  | Sum of eigenvalues            :        -124.25152865 Ha       -3381.05612079 eV
  | XC energy correction          :         -27.96100630 Ha        -760.85769354 eV
  | XC potential correction       :          35.74239225 Ha         972.59997836 eV
  | Free-atom electrostatic energy:        -107.27853756 Ha       -2919.19753412 eV
  | Hartree energy correction     :          -5.87747784 Ha        -159.93430947 eV
  | van der Waals energy corr.    :           0.00000000 Ha           0.00000000 eV
  | Entropy correction            :           0.00000000 Ha           0.00000000 eV
  | ---------------------------
  | Total energy                  :        -229.62615811 Ha       -6248.44567957 eV
  | Total energy, T -> 0          :        -229.62615811 Ha       -6248.44567957 eV  <-- do not rely on this value for anything but (periodic) metals
  | Electronic free energy        :        -229.62615811 Ha       -6248.44567957 eV

  Derived energy quantities:
  | Kinetic energy                :         229.09446613 Ha        6233.97760460 eV
  | Electrostatic energy          :        -430.75961793 Ha      -11721.56559062 eV
  | Energy correction for multipole
  | error in Hartree potential    :          -0.00448346 Ha          -0.12200120 eV
  | Sum of eigenvalues per atom                           :        -375.67290231 eV
  | Total energy (T->0) per atom                          :        -694.27174217 eV  <-- do not rely on this value for anything but (periodic) metals
  | Electronic free energy per atom                       :        -694.27174217 eV

  Self-consistency convergence accuracy:
  | Change of charge density      : 0.1272E-01
  | Change of sum of eigenvalues  : -.3562E+01 eV
  | Change of total energy        : 0.4902E-02 eV

  End self-consistency iteration #     7       :  max(cpu_time)    wall_clock(cpu1)
  | Time for this iteration                    :        0.685 s           0.685 s
  | Charge density update                      :        0.221 s           0.221 s
  | Density mixing                             :        0.007 s           0.007 s
  | Hartree multipole update                   :        0.004 s           0.004 s
  | Hartree multipole summation                :        0.119 s           0.119 s
  | Integration                                :        0.317 s           0.316 s
  | Solution of K.-S. eqns.                    :        0.016 s           0.016 s
  | Total energy evaluation                    :        0.001 s           0.001 s
------------------------------------------------------------

------------------------------------------------------------
          Begin self-consistency iteration #    8

  Date     :  20150727, Time     :  115625.385
------------------------------------------------------------
  Evaluating new KS density.
  Integration grid: deviation in total charge (<rho> - N_e) =  -3.552714E-15
  Pulay mixing of updated and previous charge densities.

  Evaluating partitioned Hartree potential by multipole expansion.
  | Analytical far-field extrapolation by fixed multipoles:
  | Hartree multipole sum: apparent total charge =  -0.377885E-05
  Summing up the Hartree potential.
  Time summed over all CPUs for potential: real work        0.943 s, elapsed        0.947 s
  | RMS charge density error from multipole expansion :   0.140193E-01

  Integrating Hamiltonian matrix: batch-based integration.
  Time summed over all CPUs for integration: real work        2.490 s, elapsed        2.537 s

  Updating Kohn-Sham eigenvalues, eigenvectors, occupation numbers, and Fermi level.
  Solving generalized eigenproblem
  Updating Kohn-Sham eigenvalues and eigenfunctions.
  Solving real generalised eigenvalue problem by standard LAPACK (fast)
  Determining occupation numbers for Kohn-Sham eigenstates.
  | Chemical potential (Fermi level) in eV                 : -.27384685E+01
  | Error in electron count due to remaining E_F inaccuracy: 0.00000000E+00
  | Maximum occupation number of highest empty state:  0.00E+00

  Highest occupied state (VBM) at     -4.85420522 eV
  | Occupation number:      2.00000000

  Lowest unoccupied state (CBM) at    -1.44533766 eV
  | Occupation number:      0.00000000

  Overall HOMO-LUMO gap:      3.40886755 eV.

  Total energy components:
  | Sum of eigenvalues            :        -124.25485305 Ha       -3381.14658237 eV
  | XC energy correction          :         -27.96054431 Ha        -760.84512213 eV
  | XC potential correction       :          35.74178015 Ha         972.58332245 eV
  | Free-atom electrostatic energy:        -107.27853756 Ha       -2919.19753412 eV
  | Hartree energy correction     :          -5.87400174 Ha        -159.83971991 eV
  | van der Waals energy corr.    :           0.00000000 Ha           0.00000000 eV
  | Entropy correction            :           0.00000000 Ha           0.00000000 eV
  | ---------------------------
  | Total energy                  :        -229.62615651 Ha       -6248.44563609 eV
  | Total energy, T -> 0          :        -229.62615651 Ha       -6248.44563609 eV  <-- do not rely on this value for anything but (periodic) metals
  | Electronic free energy        :        -229.62615651 Ha       -6248.44563609 eV

  Derived energy quantities:
  | Kinetic energy                :         229.09492703 Ha        6233.99014645 eV
  | Electrostatic energy          :        -430.76053923 Ha      -11721.59066041 eV
  | Energy correction for multipole
  | error in Hartree potential    :          -0.00448131 Ha          -0.12194265 eV
  | Sum of eigenvalues per atom                           :        -375.68295360 eV
  | Total energy (T->0) per atom                          :        -694.27173734 eV  <-- do not rely on this value for anything but (periodic) metals
  | Electronic free energy per atom                       :        -694.27173734 eV

  Self-consistency convergence accuracy:
  | Change of charge density      : 0.1565E-02
  | Change of sum of eigenvalues  : -.9046E-01 eV
  | Change of total energy        : 0.4348E-04 eV

  End self-consistency iteration #     8       :  max(cpu_time)    wall_clock(cpu1)
  | Time for this iteration                    :        0.687 s           0.687 s
  | Charge density update                      :        0.221 s           0.220 s
  | Density mixing                             :        0.008 s           0.007 s
  | Hartree multipole update                   :        0.004 s           0.003 s
  | Hartree multipole summation                :        0.119 s           0.119 s
  | Integration                                :        0.318 s           0.318 s
  | Solution of K.-S. eqns.                    :        0.015 s           0.016 s
  | Total energy evaluation                    :        0.000 s           0.000 s
------------------------------------------------------------

------------------------------------------------------------
          Begin self-consistency iteration #    9

  Date     :  20150727, Time     :  115626.072
------------------------------------------------------------
  Evaluating new KS density.
  Integration grid: deviation in total charge (<rho> - N_e) =   2.486900E-14
  Pulay mixing of updated and previous charge densities.

  Evaluating partitioned Hartree potential by multipole expansion.
  | Analytical far-field extrapolation by fixed multipoles:
  | Hartree multipole sum: apparent total charge =  -0.376034E-05
  Summing up the Hartree potential.
  Time summed over all CPUs for potential: real work        0.943 s, elapsed        0.947 s
  | RMS charge density error from multipole expansion :   0.140108E-01

  Integrating Hamiltonian matrix: batch-based integration.
  Time summed over all CPUs for integration: real work        2.492 s, elapsed        2.534 s

  Updating Kohn-Sham eigenvalues, eigenvectors, occupation numbers, and Fermi level.
  Solving generalized eigenproblem
  Updating Kohn-Sham eigenvalues and eigenfunctions.
  Solving real generalised eigenvalue problem by standard LAPACK (fast)
  Determining occupation numbers for Kohn-Sham eigenstates.
  | Chemical potential (Fermi level) in eV                 : -.27435445E+01
  | Error in electron count due to remaining E_F inaccuracy: 0.00000000E+00
  | Maximum occupation number of highest empty state:  0.00E+00

  Highest occupied state (VBM) at     -4.86997151 eV
  | Occupation number:      2.00000000

  Lowest unoccupied state (CBM) at    -1.44707939 eV
  | Occupation number:      0.00000000

  Overall HOMO-LUMO gap:      3.42289213 eV.

  Total energy components:
  | Sum of eigenvalues            :        -124.26698889 Ha       -3381.47681539 eV
  | XC energy correction          :         -27.95910274 Ha        -760.80589486 eV
  | XC potential correction       :          35.73986643 Ha         972.53124738 eV
  | Free-atom electrostatic energy:        -107.27853756 Ha       -2919.19753412 eV
  | Hartree energy correction     :          -5.86139156 Ha        -159.49657949 eV
  | van der Waals energy corr.    :           0.00000000 Ha           0.00000000 eV
  | Entropy correction            :           0.00000000 Ha           0.00000000 eV
  | ---------------------------
  | Total energy                  :        -229.62615432 Ha       -6248.44557649 eV
  | Total energy, T -> 0          :        -229.62615432 Ha       -6248.44557649 eV  <-- do not rely on this value for anything but (periodic) metals
  | Electronic free energy        :        -229.62615432 Ha       -6248.44557649 eV

  Derived energy quantities:
  | Kinetic energy                :         229.09796828 Ha        6234.07290295 eV
  | Electrostatic energy          :        -430.76501986 Ha      -11721.71258458 eV
  | Energy correction for multipole
  | error in Hartree potential    :          -0.00446441 Ha          -0.12148285 eV
  | Sum of eigenvalues per atom                           :        -375.71964615 eV
  | Total energy (T->0) per atom                          :        -694.27173072 eV  <-- do not rely on this value for anything but (periodic) metals
  | Electronic free energy per atom                       :        -694.27173072 eV

  Self-consistency convergence accuracy:
  | Change of charge density      : 0.1196E-02
  | Change of sum of eigenvalues  : -.3302E+00 eV
  | Change of total energy        : 0.5960E-04 eV

  End self-consistency iteration #     9       :  max(cpu_time)    wall_clock(cpu1)
  | Time for this iteration                    :        0.687 s           0.687 s
  | Charge density update                      :        0.221 s           0.220 s
  | Density mixing                             :        0.009 s           0.009 s
  | Hartree multipole update                   :        0.003 s           0.004 s
  | Hartree multipole summation                :        0.119 s           0.119 s
  | Integration                                :        0.318 s           0.317 s
  | Solution of K.-S. eqns.                    :        0.016 s           0.017 s
  | Total energy evaluation                    :        0.000 s           0.001 s
------------------------------------------------------------

------------------------------------------------------------
          Begin self-consistency iteration #   10

  Date     :  20150727, Time     :  115626.760
------------------------------------------------------------
  Evaluating new KS density.
  Integration grid: deviation in total charge (<rho> - N_e) =  -1.065814E-14
  Pulay mixing of updated and previous charge densities.

  Evaluating partitioned Hartree potential by multipole expansion.
  | Analytical far-field extrapolation by fixed multipoles:
  | Hartree multipole sum: apparent total charge =  -0.376230E-05
  Summing up the Hartree potential.
  Time summed over all CPUs for potential: real work        0.944 s, elapsed        0.947 s
  | RMS charge density error from multipole expansion :   0.140239E-01

  Integrating Hamiltonian matrix: batch-based integration.
  Time summed over all CPUs for integration: real work        2.497 s, elapsed        2.554 s

  Updating Kohn-Sham eigenvalues, eigenvectors, occupation numbers, and Fermi level.
  Solving generalized eigenproblem
  Updating Kohn-Sham eigenvalues and eigenfunctions.
  Solving real generalised eigenvalue problem by standard LAPACK (fast)
  Determining occupation numbers for Kohn-Sham eigenstates.
  | Chemical potential (Fermi level) in eV                 : -.27414114E+01
  | Error in electron count due to remaining E_F inaccuracy: 0.00000000E+00
  | Maximum occupation number of highest empty state:  0.00E+00

  Highest occupied state (VBM) at     -4.86346150 eV
  | Occupation number:      2.00000000

  Lowest unoccupied state (CBM) at    -1.44679697 eV
  | Occupation number:      0.00000000

  Overall HOMO-LUMO gap:      3.41666453 eV.

  Total energy components:
  | Sum of eigenvalues            :        -124.26259838 Ha       -3381.35734344 eV
  | XC energy correction          :         -27.95950394 Ha        -760.81681212 eV
  | XC potential correction       :          35.74039077 Ha         972.54551534 eV
  | Free-atom electrostatic energy:        -107.27853756 Ha       -2919.19753412 eV
  | Hartree energy correction     :          -5.86590522 Ha        -159.61940235 eV
  | van der Waals energy corr.    :           0.00000000 Ha           0.00000000 eV
  | Entropy correction            :           0.00000000 Ha           0.00000000 eV
  | ---------------------------
  | Total energy                  :        -229.62615433 Ha       -6248.44557669 eV
  | Total energy, T -> 0          :        -229.62615433 Ha       -6248.44557669 eV  <-- do not rely on this value for anything but (periodic) metals
  | Electronic free energy        :        -229.62615433 Ha       -6248.44557669 eV

  Derived energy quantities:
  | Kinetic energy                :         229.09857109 Ha        6234.08930626 eV
  | Electrostatic energy          :        -430.76522148 Ha      -11721.71807083 eV
  | Energy correction for multipole
  | error in Hartree potential    :          -0.00447187 Ha          -0.12168588 eV
  | Sum of eigenvalues per atom                           :        -375.70637149 eV
  | Total energy (T->0) per atom                          :        -694.27173074 eV  <-- do not rely on this value for anything but (periodic) metals
  | Electronic free energy per atom                       :        -694.27173074 eV

  Self-consistency convergence accuracy:
  | Change of charge density      : 0.5797E-03
  | Change of sum of eigenvalues  : 0.1195E+00 eV
  | Change of total energy        : -.2016E-06 eV

[...]
  |   Hirshfeld volume        :     21.75612982
  |   Hirshfeld dipole vector :     -0.02840687       0.01875787       0.01814655
  |   Hirshfeld dipole moment :      0.03857596
  |   Hirshfeld second moments:      0.02984776       0.05757904      -0.00727883
  |                                  0.05757904       0.03495334       0.02692423
  |                                 -0.00727883       0.02692423       0.00219685
  ----------------------------------------------------------------------
  | Atom     5: H
  |   Hirshfeld charge        :      0.13116152
  |   Free atom volume        :     10.44207651
  |   Hirshfeld volume        :      6.54069663
  |   Hirshfeld dipole vector :      0.03719888       0.09758654       0.06042961
  |   Hirshfeld dipole moment :      0.12065914
  |   Hirshfeld second moments:      0.11634338       0.01733971      -0.00709546
  |                                  0.01733971       0.10386629       0.00337415
  |                                 -0.00709546       0.00337415       0.09951209
  ----------------------------------------------------------------------
  | Atom     6: H
  |   Hirshfeld charge        :      0.14128217
  |   Free atom volume        :     10.44207651
  |   Hirshfeld volume        :      6.48940325
  |   Hirshfeld dipole vector :     -0.10267134      -0.06419220       0.02107947
  |   Hirshfeld dipole moment :      0.12290804
  |   Hirshfeld second moments:      0.10215555       0.01303654       0.00057327
  |                                  0.01303654       0.11786753       0.01367506
  |                                  0.00057327       0.01367506       0.10648635
  ----------------------------------------------------------------------
  | Atom     7: O
  |   Hirshfeld charge        :     -0.17219571
  |   Free atom volume        :     23.95238533
  |   Hirshfeld volume        :     19.80976915
  |   Hirshfeld dipole vector :      0.02849791      -0.00818554      -0.01526795
  |   Hirshfeld dipole moment :      0.03335033
  |   Hirshfeld second moments:      0.05174677       0.02045588       0.02938881
  |                                  0.02045588       0.09730124       0.01284130
  |                                  0.02938881       0.01284130       0.11358143
  ----------------------------------------------------------------------
  | Atom     8: H
  |   Hirshfeld charge        :      0.18531943
  |   Free atom volume        :     10.44207651
  |   Hirshfeld volume        :      5.57073839
  |   Hirshfeld dipole vector :      0.05977520       0.09402547       0.04758802
  |   Hirshfeld dipole moment :      0.12115479
  |   Hirshfeld second moments:      0.12384174      -0.00086943       0.00418668
  |                                 -0.00086943       0.12965440      -0.00181491
  |                                  0.00418668      -0.00181491       0.15103798
  ----------------------------------------------------------------------
  | Atom     9: H
  |   Hirshfeld charge        :      0.17667862
  |   Free atom volume        :     10.44207651
  |   Hirshfeld volume        :      5.56799611
  |   Hirshfeld dipole vector :     -0.01880068       0.00958475      -0.12033821
  |   Hirshfeld dipole moment :      0.12217454
  |   Hirshfeld second moments:      0.12929327       0.01134081       0.00827064
  |                                  0.01134081       0.14346973       0.00463337
  |                                  0.00827064       0.00463337       0.13167740
  ----------------------------------------------------------------------


  Total energy components:
  | Sum of eigenvalues            :        -124.26258880 Ha       -3381.35708268 eV
  | XC energy correction          :         -27.95949714 Ha        -760.81662711 eV
  | XC potential correction       :          35.74038035 Ha         972.54523186 eV
  | Free-atom electrostatic energy:        -107.27853756 Ha       -2919.19753412 eV
  | Hartree energy correction     :          -5.86591111 Ha        -159.61956259 eV
  | van der Waals energy corr.    :          -0.00088849 Ha          -0.02417696 eV
  | Entropy correction            :           0.00000000 Ha           0.00000000 eV
  | ---------------------------
  | Total energy                  :        -229.62704274 Ha       -6248.46975160 eV
  | Total energy, T -> 0          :        -229.62704274 Ha       -6248.46975160 eV  <-- do not rely on this value for anything but (periodic) metals
  | Electronic free energy        :        -229.62704274 Ha       -6248.46975160 eV

  Derived energy quantities:
  | Kinetic energy                :         229.09877155 Ha        6234.09476102 eV
  | Electrostatic energy          :        -430.76542866 Ha      -11721.72370856 eV
  | Energy correction for multipole
  | error in Hartree potential    :          -0.00447276 Ha          -0.12170997 eV
  | Sum of eigenvalues per atom                           :        -375.70634252 eV
  | Total energy (T->0) per atom                          :        -694.27441684 eV  <-- do not rely on this value for anything but (periodic) metals
  | Electronic free energy per atom                       :        -694.27441684 eV

  atomic forces [eV/Ang]:
  -----------------------
  atom #    1
   Hellmann-Feynman + Multipole  : -.719808E+01 -.110390E+02 0.346737E+01
   Pulay + GGA                   : 0.806972E+01 0.138191E+02 -.516263E+01
   Van der Waals               : 0.206609E-02 -.282033E-02 -.417213E-02
   ----------------------------------------------------------------
   Total forces(   1)            : 0.873705E+00 0.277732E+01 -.169943E+01
  atom #    2
   Hellmann-Feynman + Multipole  : 0.191724E+01 -.307885E+01 0.127523E+01
   Pulay + GGA                   : -.223163E-02 0.605121E-01 -.383841E-01
   Van der Waals               : 0.769503E-05 -.657941E-04 -.524427E-04
   ----------------------------------------------------------------
   Total forces(   2)            : 0.191502E+01 -.301841E+01 0.123679E+01
  atom #    3
   Hellmann-Feynman + Multipole  : -.218422E+01 -.567519E+00 -.150258E+00
   Pulay + GGA                   : 0.124803E+00 0.633583E-01 -.338126E-02
   Van der Waals               : 0.127432E-02 0.940924E-03 -.931043E-03
   ----------------------------------------------------------------
   Total forces(   3)            : -.205814E+01 -.503220E+00 -.154571E+00
  atom #    4
   Hellmann-Feynman + Multipole  : 0.858007E+01 -.522873E+01 -.155365E+02
   Pulay + GGA                   : -.898365E+01 0.384822E+01 0.151575E+02
   Van der Waals               : -.279556E-02 -.589259E-03 0.538818E-02
   ----------------------------------------------------------------
   Total forces(   4)            : -.406372E+00 -.138110E+01 -.373637E+00
  atom #    5
   Hellmann-Feynman + Multipole  : -.393665E+00 0.395503E+00 0.861037E+00
   Pulay + GGA                   : 0.300378E-01 0.938591E-01 0.112656E+00
   Van der Waals               : 0.218157E-03 0.104591E-02 -.144536E-02
   ----------------------------------------------------------------
   Total forces(   5)            : -.363409E+00 0.490408E+00 0.972248E+00
  atom #    6
   Hellmann-Feynman + Multipole  : 0.698227E+00 0.829946E+00 0.252099E+00
   Pulay + GGA                   : -.115495E+00 -.570624E-01 0.646033E-01
   Van der Waals               : 0.434103E-03 0.918270E-03 -.129587E-02
   ----------------------------------------------------------------
   Total forces(   6)            : 0.583166E+00 0.773802E+00 0.315407E+00
  atom #    7
   Hellmann-Feynman + Multipole  : -.618449E+01 -.903922E+01 0.926312E+01
   Pulay + GGA                   : 0.636490E+01 0.100777E+02 -.668918E+01
   Van der Waals               : -.255241E-02 0.147620E-02 0.110543E-02
   ----------------------------------------------------------------
   Total forces(   7)            : 0.177851E+00 0.103999E+01 0.257505E+01
  atom #    8
   Hellmann-Feynman + Multipole  : -.484302E+00 -.738835E+00 -.455367E+00
   Pulay + GGA                   : 0.554900E-01 0.117788E+00 0.358168E-01
   Van der Waals               : 0.636439E-03 -.194241E-03 0.746452E-03
   ----------------------------------------------------------------
   Total forces(   8)            : -.428176E+00 -.621241E+00 -.418804E+00
  atom #    9
   Hellmann-Feynman + Multipole  : -.249726E+00 0.403025E+00 -.232316E+01
   Pulay + GGA                   : -.362060E-01 0.413797E-01 -.126584E+00
   Van der Waals               : 0.711166E-03 -.711678E-03 0.656780E-03
   ----------------------------------------------------------------
   Total forces(   9)            : -.285221E+00 0.443693E+00 -.244908E+01
  Timings for vdw_correction_hirshfeld (Tkatchenko-Scheffler 2009):
  | CPU time:        1.812 s, Wall clock time:        1.814 s.
  Removing unitary transformations (pure translations, rotations) from forces on atoms.
  Atomic forces before filtering:
  | Net force on center of mass :  0.841878E-02 0.124106E-02 0.396489E-02 eV/A
  | Net torque on center of mass:  0.134025E-01 -.669686E-02 -.675892E-02 eV
  Atomic forces after filtering:
  | Net force on center of mass :  -.223008E-15 -.981234E-15 0.000000E+00 eV/A
  | Net torque on center of mass:  0.000000E+00 0.377634E-15 0.660859E-15 eV
 
  Energy and forces in a compact form:
  | Total energy uncorrected      :         -0.624846975160283E+04 eV
  | Total energy corrected        :         -0.624846975160283E+04 eV  <-- do not rely on this value for anything but (periodic) metals
  | Electronic free energy        :         -0.624846975160283E+04 eV
  Total atomic forces (unitary forces cleaned) [eV/Ang]:
  |   1          0.872899063668040E+00          0.277711718893989E+01         -0.169964649039980E+01
  |   2          0.191392647214409E+01         -0.301887540124975E+01          0.123632703576699E+01
  |   3         -0.205900738062209E+01         -0.503157502642508E+00         -0.155031711474113E+00
  |   4         -0.406718496511184E+00         -0.138052656538062E+01         -0.373650594171959E+00
  |   5         -0.363848714144627E+00          0.491241339225404E+00          0.971933656858602E+00
  |   6          0.582979897438019E+00          0.774276904017601E+00          0.315690559935633E+00
  |   7          0.176394346862171E+00          0.103919032012339E+01          0.257425014771910E+01
  |   8         -0.429774259384161E+00         -0.621795880538411E+00         -0.419963227405061E+00
  |   9         -0.286850929450256E+00          0.442529597505002E+00         -0.244990937682939E+01
 
  ------------------------------------ 
  Start decomposition of the XC Energy 
  ------------------------------------ 
  Hartree-Fock part   :          0.000000000 Ha              0.000000000 eV
  ------------------------------------ 
  X Energy            :        -26.978519698 Ha           -734.122872747 eV
  C Energy GGA        :         -0.980977442 Ha            -26.693754365 eV
  Total XC Energy     :        -27.959497140 Ha           -760.816627113 eV
  LDA X and C from self-consistent density 
  X Energy LDA        :        -24.310548530 Ha           -661.523683445 eV
  C Energy LDA        :         -1.979526489 Ha            -53.865656411 eV
  ------------------------------------ 
  End decomposition of the XC Energy 
  ------------------------------------ 
  Performing Hirshfeld analysis of fragment charges and moments.
  ----------------------------------------------------------------------
  | Atom     1: O
  |   Hirshfeld charge        :     -0.34638053
  |   Free atom volume        :     23.95238533
  |   Hirshfeld volume        :     23.55296099
  |   Hirshfeld dipole vector :      0.01148926       0.05329261       0.02696337
  |   Hirshfeld dipole moment :      0.06082046
  |   Hirshfeld second moments:      0.02930222      -0.01154680       0.01671760
  |                                 -0.01154680      -0.04923793      -0.03118607
  |                                  0.01671760      -0.03118607      -0.07570046
  ----------------------------------------------------------------------
  | Atom     2: H
  |   Hirshfeld charge        :      0.06709292
  |   Free atom volume        :     10.44207651
  |   Hirshfeld volume        :      8.16367847
  |   Hirshfeld dipole vector :     -0.02500937       0.03774060      -0.00949108
  |   Hirshfeld dipole moment :      0.04625908
  |   Hirshfeld second moments:      0.07485027       0.03235215       0.00158137
  |                                  0.03235215       0.03214902       0.00978165
  |                                  0.00158137       0.00978165       0.06560759
  ----------------------------------------------------------------------
  | Atom     3: H
  |   Hirshfeld charge        :      0.09890317
  |   Free atom volume        :     10.44207651
  |   Hirshfeld volume        :      7.33489865
  |   Hirshfeld dipole vector :      0.11217627       0.02869892       0.02017903
  |   Hirshfeld dipole moment :      0.11753441
  |   Hirshfeld second moments:      0.09549043      -0.00998936       0.00147258
  |                                 -0.00998936       0.08936570      -0.00931823
  |                                  0.00147258      -0.00931823       0.07239950
  ----------------------------------------------------------------------
  | Atom     4: O
  |   Hirshfeld charge        :     -0.28184072
  |   Free atom volume        :     23.95238533
  |   Hirshfeld volume        :     21.75612982
  |   Hirshfeld dipole vector :     -0.02840687       0.01875787       0.01814655
  |   Hirshfeld dipole moment :      0.03857596
  |   Hirshfeld second moments:      0.02984776       0.05757904      -0.00727883
  |                                  0.05757904       0.03495334       0.02692423
  |                                 -0.00727883       0.02692423       0.00219685
  ----------------------------------------------------------------------
  | Atom     5: H
  |   Hirshfeld charge        :      0.13116152
  |   Free atom volume        :     10.44207651
  |   Hirshfeld volume        :      6.54069663
  |   Hirshfeld dipole vector :      0.03719888       0.09758654       0.06042961
  |   Hirshfeld dipole moment :      0.12065914
  |   Hirshfeld second moments:      0.11634338       0.01733971      -0.00709546
  |                                  0.01733971       0.10386629       0.00337415
  |                                 -0.00709546       0.00337415       0.09951209
  ----------------------------------------------------------------------
  | Atom     6: H
  |   Hirshfeld charge        :      0.14128217
  |   Free atom volume        :     10.44207651
  |   Hirshfeld volume        :      6.48940325
  |   Hirshfeld dipole vector :     -0.10267134      -0.06419220       0.02107947
  |   Hirshfeld dipole moment :      0.12290804
  |   Hirshfeld second moments:      0.10215555       0.01303654       0.00057327
  |                                  0.01303654       0.11786753       0.01367506
  |                                  0.00057327       0.01367506       0.10648635
  ----------------------------------------------------------------------
  | Atom     7: O
  |   Hirshfeld charge        :     -0.17219571
  |   Free atom volume        :     23.95238533
  |   Hirshfeld volume        :     19.80976915
  |   Hirshfeld dipole vector :      0.02849791      -0.00818554      -0.01526795
  |   Hirshfeld dipole moment :      0.03335033
  |   Hirshfeld second moments:      0.05174677       0.02045588       0.02938881
  |                                  0.02045588       0.09730124       0.01284130
  |                                  0.02938881       0.01284130       0.11358143
  ----------------------------------------------------------------------
  | Atom     8: H
  |   Hirshfeld charge        :      0.18531943
  |   Free atom volume        :     10.44207651
  |   Hirshfeld volume        :      5.57073839
  |   Hirshfeld dipole vector :      0.05977520       0.09402547       0.04758802
  |   Hirshfeld dipole moment :      0.12115479
  |   Hirshfeld second moments:      0.12384174      -0.00086943       0.00418668
  |                                 -0.00086943       0.12965440      -0.00181491
  |                                  0.00418668      -0.00181491       0.15103798
  ----------------------------------------------------------------------
  | Atom     9: H
  |   Hirshfeld charge        :      0.17667862
  |   Free atom volume        :     10.44207651
  |   Hirshfeld volume        :      5.56799611
  |   Hirshfeld dipole vector :     -0.01880068       0.00958475      -0.12033821
  |   Hirshfeld dipole moment :      0.12217454
  |   Hirshfeld second moments:      0.12929327       0.01134081       0.00827064
  |                                  0.01134081       0.14346973       0.00463337
  |                                  0.00827064       0.00463337       0.13167740
  ----------------------------------------------------------------------


------------------------------------------------------------------------------
  Final output of selected total energy values:

  The following output summarizes some interesting total energy values
  at the end of a run (AFTER all relaxation, molecular dynamics, etc.).

  | Total energy of the DFT / Hartree-Fock s.c.f. calculation      :          -6248.469751603 eV
  | Final zero-broadening corrected energy (caution - metals only) :          -6248.469751603 eV
  | For reference only, the value of 1 Hartree used in FHI-aims is :             27.211384500 eV

  Before relying on these values, please be sure to understand exactly which
  total energy value is referred to by a given number. Different objects may
  all carry the same name 'total energy'. Definitions:

  Total energy of the DFT / Hartree-Fock s.c.f. calculation:
  | Note that this energy does not include ANY quantities calculated after the
  | s.c.f. cycle, in particular not ANY RPA, MP2, etc. many-body perturbation terms.

  Final zero-broadening corrected energy:
  | For metallic systems only, a broadening of the occupation numbers at the Fermi
  | level can be extrapolated back to zero broadening by an electron-gas inspired
  | formula. For all systems that are not real metals, this value can be
  | meaningless and should be avoided.

------------------------------------------------------------------------------

------------------------------------------------------------
          Leaving FHI-aims.
          Date     :  20150727, Time     :  115631.596

          Computational steps:
          | Number of self-consistency cycles          :           14

          Detailed time accounting                     :  max(cpu_time)    wall_clock(cpu1)
          | Total time                                 :       12.376 s          12.410 s
          | Preparation time                           :        0.167 s           0.551 s
          | Grid partitioning                          :        0.092 s           0.092 s
          | Preloading free-atom quantities on grid    :        0.013 s           0.013 s
          | Free-atom superposition energy             :        0.029 s           0.029 s
          | Total time for integrations                :        4.936 s           4.934 s
          | Total time for solution of K.-S. equations :        0.288 s           0.294 s
          | Total time for density & force components  :        4.016 s           4.013 s
          | Total time for mixing                      :        0.102 s           0.097 s
          | Total time for Hartree multipole update    :        0.051 s           0.054 s
          | Total time for Hartree multipole sum       :        2.058 s           2.055 s
          | Total time for total energy evaluation     :        0.007 s           0.014 s
          | Total time for scaled ZORA corrections     :        0.000 s           0.000 s
          | Total time for TS (2009) vdW correction    :        0.023 s           0.025 s

          Have a nice day.
------------------------------------------------------------
