  MPI-parallelism will be employed.
------------------------------------------------------------
          Invoking FHI-aims ...
          Version 081213
          Compiled on 2013/08/29 at 17:41:06 on host generoso.

          When using FHI-aims, please cite the following reference:

          Volker Blum, Ralf Gehrke, Felix Hanke, Paula Havu,
          Ville Havu, Xinguo Ren, Karsten Reuter, and Matthias Scheffler,
          'Ab Initio Molecular Simulations with Numeric Atom-Centered Orbitals: FHI-aims',
          Computer Physics Communications 180, 2175-2196 (2009)

          For any questions about FHI-aims, please visit the aimsclub website
          with its forums and wiki. Contributions to both the forums and the
          wiki are warmly encouraged - they are for you, and everyone is welcome there.

------------------------------------------------------------

  Date     :  20150727, Time     :  115555.606
  Time zero on CPU 1             :   0.409930000000000E-01  s.
  Internal wall clock time zero  :           207230155.606  s.

  Using        8 parallel tasks.
  Task        0 on host gen60 reporting.
  Task        1 on host gen60 reporting.
  Task        2 on host gen60 reporting.
  Task        3 on host gen60 reporting.
  Task        4 on host gen60 reporting.
  Task        5 on host gen60 reporting.
  Task        6 on host gen60 reporting.
  Task        7 on host gen60 reporting.

  Performing system and environment tests:
  | Environment variable OMP_NUM_THREADS correctly set to 1.
  | Checking for scalapack...
  | No scalapack compiled in.

  Obtaining array dimensions for all initial allocations:
  
  -----------------------------------------------------------------------
  Parsing control.in (first pass over file, find array dimensions only).
  The contents of control.in will be repeated verbatim below
  unless switched off by setting 'verbatim_writeout .false.' .
  in the first line of control.in .
  -----------------------------------------------------------------------
  
  #########################################################################################
  #
  #  Volker Blum, FHI 2008 : Test run input file control.in
  #
  #########################################################################################
  #
  #  Physical model
  #
    xc                 rpbe
    spin               none
    relativistic       atomic_zora scalar
    charge             0.
   vdw_correction_hirshfeld
  #
  #  SCF convergence
  #
    occupation_type    gaussian 0.01
    mixer              pulay
      n_max_pulay        10
      charge_mix_param   0.1
    sc_accuracy_rho    5E-5
    sc_accuracy_eev    5E-3
    sc_accuracy_etot   5E-6
    sc_iter_limit      3000
  #
  #  Eigenvalue solver
  #
    KS_method          lapack
      empty_states       8
      basis_threshold    0.e-5
  #
  #  Efficiency
  #
  #   all previous settings are now default, except stratmann still
  #   undecided. Continue to handle stratmann with care, if at all.
  #
  #  partition_type stratmann
    partition_type rho_r2
  #  hartree_partition_type stratmann
  #
  #  Oprions for large clusters (100's of atoms: memory saving / better scaling)
  #
  # for periodic systems:
  #
    density_update_method orbital
    packed_matrix_format none
  #  k_grid 6 6 6
  #  output k_eigenvalue 1
  #  distributed_spline_storage .true.
  #
  #  Relaxation
  #
  #  relax_geometry   bfgs 5.e-3
    sc_accuracy_forces 5.E-4
    final_forces_cleaned .true.
  #
  #  Output options
  #
  #  output mulliken
    output Hirshfeld
  #  output dipole
  
  #harmonic_length_scale 0.001
  
  ################################################################################
  #
  #  FHI-aims code project
  #  VB, Fritz-Haber Institut, 2007
  #
  #  Suggested "safe" defaults for H atom (to be pasted into control.in file)
  #  Basis constructed for a non-relativistic H2 molecule using the
  #  PW-LDA functional.
  #
  ################################################################################
    species        H
  #     global species definitions
      nucleus             1
      cut_pot             4.0  2.0  1.0
      cut_free_atom       finite 8.0
      logarithmic         0.00010000 100.00  1.0123
      basis_dep_cutoff    1d-4  # 1d-4 is safe default - please check 5d-4 if you wish!
      radial_base         24 7.0
      radial_multiplier   2
      angular_grids       specified
        division   0.2783  110
        division   0.3822  194
        division   0.5626  302
  #      division   0.5922  434
  #      division   0.6227  590
  #      division   0.7206  770
        outer_grid  302
      l_hartree           4
  ################################################################################
  #
  #  Definition of "minimal" basis
  #
  ################################################################################
  #     valence basis states
      valence      1  s   1.
  #     ion occupancy
      ion_occ      1  s   0.5
  ################################################################################
  #
  #  Suggested additional basis functions. For production calculations,
  #  uncomment them one after another (the most important basis functions are
  #  listed first).
  #
  ################################################################################
  #  "First tier" - improvements: -1014.90 meV to -62.69 meV
       hydro 2 s 2.1
       hydro 2 p 3.5
  #  "Second tier" - improvements: -12.89 meV to -1.83 meV
       hydro 1 s 0.85
       hydro 2 p 3.7
       hydro 2 s 1.2
       hydro 3 d 7
  #  "Third tier" - improvements: -0.25 meV to -0.12 meV
  #     hydro 4 f 11.2
  #     hydro 3 p 4.8
  #     hydro 4 d 9
  #     hydro 3 s 3.2
  
  ################################################################################
  #
  #  FHI-aims code project
  #  VB, Fritz-Haber Institut, 2007
  #
  #  Suggested "safe" defaults for O atom (to be pasted into control.in file)
  #  All values have been tested for a non-relativistic, non-spinpolarized O2
  #  molecule using the PW-LDA functional. Validity for PBE is expected.
  #
  #  Constructed for dimers: 1.0 A, 1.208 A, 1.5 A, 2.0 A, 3.0 A
  #
  ################################################################################
    species        O
  #     global species definitions
      nucleus             8
      mass                15.9994
      l_hartree           4
      cut_pot             4.0  2.0  1.0
      cut_free_atom       finite 8.0
      basis_dep_cutoff    1d-4  # 1d-4 is safe default - please check 5d-4 if you wish!
      logarithmic         0.00010000 100.00  1.0123
      radial_base         36 7.0
      radial_multiplier   2
       angular_grids specified
        division   0.4087  110
        division   0.5181  194
        division   0.6184  302
  #      division   0.7315  434
  #      division   0.7934  590
  #      division   0.9656  770
  #      division   1.4041  974
  #      outer_grid 974
        outer_grid 302
  ################################################################################
  #
  #  Definition of "minimal" basis
  #
  ################################################################################
  #     valence basis states
      valence      2  s   2.
      valence      2  p   4.
  #     ion occupancy
      ion_occ      2  s   1.
      ion_occ      2  p   3.
  ################################################################################
  #
  #  Suggested additional basis functions. For production calculations,
  #  uncomment them one after another (the most important basis functions are
  #  listed first).
  #
  ################################################################################
  #  "First tier" - improvements: -699.05 meV to -159.38 meV
       hydro 2 p 1.8
       hydro 3 d 7.6
       hydro 3 s 6.4
  #  "Second tier" - improvements: -49.91 meV to -5.39 meV
       hydro 4 f 11.6
       hydro 3 p 6.2
       hydro 3 d 5.6
       hydro 5 g 17.6
       hydro 1 s 0.75
  #  "Third tier" - improvements: -2.83 meV to -0.50 meV
  #     ionic 2 p auto
  #     hydro 4 f 10.8
  #     hydro 4 d 4.7
  #     hydro 2 s 6.8
  #  "Fourth tier" - improvements: -0.40 meV to -0.12 meV
  #     hydro 3 p 5
  #     hydro 3 s 3.3
  #     hydro 5 g 15.6
  #     hydro 4 f 17.6
  #     hydro 4 d 14
  # Further basis functions - -0.08 meV and below
  #     hydro 3 s 2.1
  #     hydro 4 d 11.6
  #     hydro 3 p 16
  #     hydro 2 s 17.2
  
  
  -----------------------------------------------------------------------
  Completed first pass over input file control.in .
  -----------------------------------------------------------------------
  
  
  -----------------------------------------------------------------------
  Parsing geometry.in (first pass over file, find array dimensions only).
  The contents of geometry.in will be repeated verbatim below
  unless switched off by setting 'verbatim_writeout .false.' .
  in the first line of geometry.in .
  -----------------------------------------------------------------------
  
  atom      -4.053030000      0.065001000     -1.525160000  O
  atom      -4.566710000      0.974813000     -1.912820000  H
  atom      -3.067820000      0.330172000     -1.477310000  H
  atom      -4.581760000     -0.256435000      0.939478000  O
  atom      -4.349860000      0.471090000      1.504340000  H
  atom      -5.393870000     -0.726611000      1.228070000  H
  atom      -5.293160000      2.192130000     -2.328800000  O
  atom      -4.829300000      2.988660000     -1.973850000  H
  atom      -5.428570000      2.328640000     -3.235170000  H
  atom      -5.628340000      3.730740000      1.385610000  O
  atom      -6.090650000      4.418470000      1.860350000  H
  atom      -5.158540000      4.200260000      0.615875000  H
  
  -----------------------------------------------------------------------
  Completed first pass over input file geometry.in .
  -----------------------------------------------------------------------
  
 
  Basic array size parameters: 
  | Number of species                 :        2
  | Number of atoms                   :       12
  | Max. basis fn. angular momentum   :        4
  | Max. atomic/ionic basis occupied n:        2
  | Max. number of basis fn. types    :        2
  | Max. radial fns per species/type  :        8
  | Max. logarithmic grid size        :     1301
  | Max. radial integration grid size :       73
  | Max. angular integration grid size:      302
  | Max. angular grid division number :        8
  | Radial grid for Hartree potential :     1301
  | Number of spin channels           :        1

------------------------------------------------------------
          Reading file control.in.
------------------------------------------------------------
  XC: Using RPBE gradient-corrected functionals.
  Spin treatment: No spin polarisation.
  Scalar relativistic treatment of kinetic energy: on-site free-atom approximation to ZORA.
  Charge =   0.000000E+00: Neutral system requested explicitly.
  Using non-empirical van der Waals correction (Hirshfeld partitioning):
  Occupation type: Gaussian broadening, width =   0.100000E-01 eV.
  Using pulay charge density mixing.
  Pulay mixing - number of memorized iterations:   10
  Charge density mixing - mixing parameter:     0.1000
  Convergence accuracy of self-consistent charge density: 0.5000E-04
  Convergence accuracy of sum of eigenvalues: 0.5000E-02
  Convergence accuracy of total energy: 0.5000E-05
  Maximum number of s.-c. iterations  :  3000
  Kohn-Sham eigenvalues and eigenfunctions calculated by lapack diagonalisation (D&C).
  Number of empty states per atom:        8
  Threshold for basis singularities: 0.0000E+00
  Partition function in integrals calculations: rho / r^2
 Using packed matrix format           0
  Convergence accuracy of forces: 0.5000E-03
  Cleaning forces before final output.
  Hirshfeld charge analysis will be performed.
 
  Reading configuration options for species H                   .
  | Found nuclear charge :   1.0000
  | Found cutoff potl. onset [A], width [A], scale factor :    4.00000    2.00000    1.00000
  | Found cutoff specification for free atom: Cutoff potential begins at    8.00000 A.
  | Found logarithmic grid data [bohr] : 0.1000E-03 0.1000E+03 0.1012E+01
  | Threshold for basis-dependent cutoff potential is   0.100000E-03
  | Found data for basic radial integration grid :    24 points, outermost radius =    7.000 A
  | Found multiplier for basic radial grid :   2
  | Found angular grid specification: user-specified.
  | Specified grid contains     4 separate shells.
  | Check grid settings after all constraints further below.
  | Found l_max for Hartree potential  :   4
  | Found free-atom valence shell :  1 s   1.000
  | No ionic wave fns used. Skipping ion_occ.
  | Found hydrogenic basis function :  2 s   2.100
  | Found hydrogenic basis function :  2 p   3.500
  | Found hydrogenic basis function :  1 s   0.850
  | Found hydrogenic basis function :  2 p   3.700
  | Found hydrogenic basis function :  2 s   1.200
  | Found hydrogenic basis function :  3 d   7.000
  Species H                   : Missing cutoff potential type.
  Defaulting to exp(1/x)/(1-x)^2 type cutoff potential.
  Species H : On-site basis accuracy parameter (for Gram-Schmidt orthonormalisation) not specified.
  Using default value basis_acc =  0.1000000E-03.
  Species H                   : Using default innermost maximum threshold i_radial=  2 for radial functions.
  Species H                   : Basic radial grid will be enhanced according to radial_multiplier =   2, to contain    49 grid points.
 
  Reading configuration options for species O                   .
  | Found nuclear charge :   8.0000
  | Found atomic mass :    15.9994000000000      amu
  | Found l_max for Hartree potential  :   4
  | Found cutoff potl. onset [A], width [A], scale factor :    4.00000    2.00000    1.00000
  | Found cutoff specification for free atom: Cutoff potential begins at    8.00000 A.
  | Threshold for basis-dependent cutoff potential is   0.100000E-03
  | Found logarithmic grid data [bohr] : 0.1000E-03 0.1000E+03 0.1012E+01
  | Found data for basic radial integration grid :    36 points, outermost radius =    7.000 A
  | Found multiplier for basic radial grid :   2
  | Found angular grid specification: user-specified.
  | Specified grid contains     4 separate shells.
  | Check grid settings after all constraints further below.
  | Found free-atom valence shell :  2 s   2.000
  | Found free-atom valence shell :  2 p   4.000
  | No ionic wave fns used. Skipping ion_occ.
  | No ionic wave fns used. Skipping ion_occ.
  | Found hydrogenic basis function :  2 p   1.800
  | Found hydrogenic basis function :  3 d   7.600
  | Found hydrogenic basis function :  3 s   6.400
  | Found hydrogenic basis function :  4 f  11.600
  | Found hydrogenic basis function :  3 p   6.200
  | Found hydrogenic basis function :  3 d   5.600
  | Found hydrogenic basis function :  5 g  17.600
  | Found hydrogenic basis function :  1 s   0.750
  Species O                   : Missing cutoff potential type.
  Defaulting to exp(1/x)/(1-x)^2 type cutoff potential.
  Species O : On-site basis accuracy parameter (for Gram-Schmidt orthonormalisation) not specified.
  Using default value basis_acc =  0.1000000E-03.
  Species O                   : Using default innermost maximum threshold i_radial=  2 for radial functions.
  Species O                   : Basic radial grid will be enhanced according to radial_multiplier =   2, to contain    73 grid points.
 
  Finished reading input file 'control.in'. Consistency checks are next.
 
  Target number of points in a grid batch is not set. Defaulting to  100
  Method for grid partitioning is not set. Defaulting to parallel hash+maxmin partitioning.
  Batch size limit is not set. Defaulting to    200
  By default, will store active basis functions for each batch.
  If in need of memory, prune_basis_once .false. can be used to disable this option.
  communication_type for Hartree potential was not specified.
  Defaulting to calc_hartree .
  Pulay mixer: Number of initial linear mixing iterations not set.
  Defaulting to    0 iterations.
  Work space size for distributed Hartree potential not set.
  Defaulting to   0.200000E+03 MB.
  Algorithm-dependent basis array size parameters:
  | n_max_pulay                         :       10
  Geometry relaxation not requested: no relaxation will be performed.
  Handling of forces: Unphysical translation and rotation will be removed from forces.
  No accuracy limit for integral partition fn. given. Defaulting to 0.1000E-14.
  No threshold value for u(r) in integrations given. Defaulting to 0.1000E-05.
  No accuracy for occupation numbers given. Defaulting to 0.1000E-07.
  No threshold value for occupation numbers given. Defaulting to 0.0000E+00.
  No accuracy for fermi level given. Defaulting to 0.1000E-19.
  Maximum # of iterations to find E_F not set. Defaulting to  200.
  Will not use alltoall communication since running on < 1024 CPUs.
  Partitioning for Hartree potential was not defined. Using partition_type for integrals.
  | Reporting present value of keyword multip_moments_threshold  :       0.10000000E-09
  | This value may affect high angular momentum components of the Hartree potential in periodic systems.
  No q(lm)/r^(l+1) cutoff set for long-range Hartree potential.
  | Using default value of  0.100000E-09 .
  | Verify using the multipole_threshold keyword.
  Defaulting to new monopole extrapolation.
  Density update method: Loop over occupied states selected for charge density update.
------------------------------------------------------------


------------------------------------------------------------
          Reading geometry description geometry.in.
------------------------------------------------------------
  Input structure read successfully.
  The structure contains       12 atoms,  and a total of         40.000 electrons.

  Input geometry:
  | No unit cell requested.
  | Atomic structure:
  |       Atom                x [A]            y [A]            z [A]
  |    1: Species O             -4.053030         0.065001        -1.525160
  |    2: Species H             -4.566710         0.974813        -1.912820
  |    3: Species H             -3.067820         0.330172        -1.477310
  |    4: Species O             -4.581760        -0.256435         0.939478
  |    5: Species H             -4.349860         0.471090         1.504340
  |    6: Species H             -5.393870        -0.726611         1.228070
  |    7: Species O             -5.293160         2.192130        -2.328800
  |    8: Species H             -4.829300         2.988660        -1.973850
  |    9: Species H             -5.428570         2.328640        -3.235170
  |   10: Species O             -5.628340         3.730740         1.385610
  |   11: Species H             -6.090650         4.418470         1.860350
  |   12: Species H             -5.158540         4.200260         0.615875
  |

  | The smallest distance between any two atoms is         0.92654057 AA.
  |
  | The first atom of this pair is atom number                      7 .
  | The second atom of this pair is atom number                     9 .

  Structure-dependent array size parameters: 
  | Maximum number of distinct radial functions  :       18
  | Maximum number of basis functions            :      276
  | Number of Kohn-Sham states (occupied + empty):       68
------------------------------------------------------------

------------------------------------------------------------
          Preparing all fixed parts of the calculation.
------------------------------------------------------------
  Determining machine precision:
    2.225073858507201E-308
  Setting up grids for atomic and cluster calculations.

  Creating wave function, potential, and density for free atoms.

  Species: H

  List of occupied orbitals and eigenvalues:
    n    l              occ      energy [Ha]    energy [eV]
    1    0           1.0000        -0.241408        -6.5691


  Species: O

  List of occupied orbitals and eigenvalues:
    n    l              occ      energy [Ha]    energy [eV]
    1    0           2.0000       -18.944147      -515.4965
    2    0           2.0000        -0.883529       -24.0421
    2    1           4.0000        -0.330176        -8.9845

  Creating fixed part of basis set: Ionic, confined, hydrogenic.
 
  H                    hydrogenic:
 
  List of hydrogenic basis orbitals: 
    n    l      effective z      eigenvalue [eV]  inner max. [A]     outer max. [A]     outer radius [A]   
    2    0         2.100000       -14.9965           0.193241           1.317192           5.372934
    2    1         3.500000       -41.6672           0.602363           0.602363           4.056010
    1    0         0.850000        -9.8292           0.624864           0.624864           5.372934
    2    1         3.700000       -46.5653           0.573616           0.573616           3.909951
    2    0         1.200000        -4.5995           0.334977           2.228160           5.505921
    3    2         7.000000       -74.0753           0.680692           0.680692           3.769152
 
 
  O                    hydrogenic:
 
  List of hydrogenic basis orbitals: 
    n    l      effective z      eigenvalue [eV]  inner max. [A]     outer max. [A]     outer radius [A]   
    2    1         1.800000       -11.0118           1.178546           1.178546           5.432516
    3    2         7.600000       -87.3182           0.624117           0.624117           3.541422
    3    0         6.400000       -61.9209           0.061166           1.081887           4.306510
    4    3        11.600000      -114.4238           0.731621           0.731621           3.584982
    3    1         6.200000       -58.1113           0.255677           1.030255           4.306510
    3    2         5.600000       -47.4081           0.847222           0.847222           4.413102
    5    4        17.600000      -168.5799           0.749730           0.749730           3.372413
    1    0         0.750000        -7.6499           0.705275           0.705275           5.366508
 

  Adding cutoff potential to free-atom effective potential.
  Creating atomic-like basis functions for current effective potential.

  Species H                   :

  List of atomic basis orbitals and eigenvalues:
    n    l      energy [Ha]    energy [eV]    outer radius [A]
    1    0        -0.241374        -6.5681       5.372934


  Species O                   :

  List of atomic basis orbitals and eigenvalues:
    n    l      energy [Ha]    energy [eV]    outer radius [A]
    1    0       -18.944147      -515.4965       1.415745
    2    0        -0.883529       -24.0421       5.048305
    2    1        -0.330173        -8.9845       5.301302

  Assembling full basis from fixed parts.
  | Species H :   atomic orbital   1 s accepted.
  | Species H :    hydro orbital   2 s accepted.
  | Species H :    hydro orbital   1 s accepted.
  | Species H :    hydro orbital   2 s accepted.
  | Species H :    hydro orbital   2 p accepted.
  | Species H :    hydro orbital   2 p accepted.
  | Species H :    hydro orbital   3 d accepted.
  | Species O :   atomic orbital   1 s accepted.
  | Species O :    hydro orbital   3 s accepted.
  | Species O :   atomic orbital   2 s accepted.
  | Species O :    hydro orbital   1 s accepted.
  | Species O :    hydro orbital   3 p accepted.
  | Species O :   atomic orbital   2 p accepted.
  | Species O :    hydro orbital   2 p accepted.
  | Species O :    hydro orbital   3 d accepted.
  | Species O :    hydro orbital   3 d accepted.
  | Species O :    hydro orbital   4 f accepted.
  | Species O :    hydro orbital   5 g accepted.
 
  Basis size parameters after reduction:
  | Total number of radial functions:       18
  | Total number of basis functions :      276
 
  Testing on-site integration grid accuracy.
  |  Species  Function  <phi|h_atom|phi> (log., in eV)  <phi|h_atom|phi> (rad., in eV)
           1        1                 -6.5683835025                 -6.5684759159
           1        2                 13.3711789951                 13.3708738703
           1        3                 23.6590910787                 23.6532055418
           1        4                 16.2963827186                 16.1870710655 ***
           1        5                 28.7627214838                 28.7627215090
           1        6                 59.5965249172                 59.5965950857
           1        7                 60.2220506392                 60.2220503827
           2        8               -515.4964576505               -515.4964530710
           2        9                 15.3030791347                 15.3030722972
           2       10                -21.7296094581                -21.7296135470
           2       11                 14.2969371730                 14.2969701621
           2       12                 21.0679693190                 21.0679697493
           2       13                 -2.3833606469                 -2.3833613176
           2       14                 13.7067136422                 13.7066766629
           2       15                 45.8013116808                 45.8013116965
           2       16                 52.2309815402                 52.2309831494
           2       17                 85.4120732416                 85.4120732763
           2       18                142.1019167745                142.1019167817
 * Note: Onsite integrals marked "***" above are less accurate than
 * onsite_accuracy_threshold =    0.03000 eV. Usually, this is harmless.
 * When in doubt, tighten the "radial" and/or "radial_multiplier" flags to check.

  Preparing densities etc. for the partition functions (integrals / Hartree potential).

  Preparations completed.
  max(cpu_time)          :      0.172 s.
  Wall clock time (cpu1) :      0.565 s.
------------------------------------------------------------

------------------------------------------------------------
          Begin self-consistency loop: Initialization.

          Date     :  20150727, Time     :  115556.181
------------------------------------------------------------

  Initializing index lists of integration centers etc. from given atomic structure:
  | Number of centers in hartree potential         :        12
  | Number of centers in hartree multipole         :        12
  | Number of centers in electron density summation:        12
  | Number of centers in basis integrals           :        12
  | Number of centers in integrals                 :        12
  Partitioning the integration grid into batches with parallel hashing+maxmin method.
  | Number of batches:     1563
  | Maximal batch size:     200
  | Minimal batch size:      49
  | Average batch size:     100.683
  | Standard deviation of batch sizes:      25.483

  Integration load balanced across     8 MPI tasks.
  Work distribution over tasks is as follows:
  Task     0 has      19647 integration points.
  Task     1 has      19684 integration points.
  Task     2 has      19691 integration points.
  Task     3 has      19642 integration points.
  Task     4 has      19707 integration points.
  Task     5 has      19683 integration points.
  Task     6 has      19625 integration points.
  Task     7 has      19689 integration points.
  Initializing partition tables, free-atom densities, potentials, etc. across the integration grid (initialize_grid_storage).
  | Net number of integration points:   157368
  | of which are non-zero points    :   156839
  Obtaining max. number of non-zero basis functions in each batch (get_n_compute_maxes).
  | Maximal number of non-zero basis functions:      273 in task     0
  | Maximal number of non-zero basis functions:      274 in task     1
  | Maximal number of non-zero basis functions:      274 in task     2
  | Maximal number of non-zero basis functions:      273 in task     3
  | Maximal number of non-zero basis functions:      274 in task     4
  | Maximal number of non-zero basis functions:      273 in task     5
  | Maximal number of non-zero basis functions:      274 in task     6
  | Maximal number of non-zero basis functions:      273 in task     7
  Integrating Hamiltonian matrix: batch-based integration.
  Time summed over all CPUs for integration: real work        4.169 s, elapsed        4.218 s
  Integrating overlap matrix.
  Time summed over all CPUs for integration: real work        2.199 s, elapsed        2.224 s

  Updating Kohn-Sham eigenvalues, eigenvectors, occupation numbers, and Fermi level.
  Solving generalized eigenproblem
  Updating Kohn-Sham eigenvalues and eigenfunctions.
  Transforming overlap matrix and checking for singularities.
  Overlap matrix is nonsingular:
  | Lowest eigenvalue:  0.349480E-03
  Solving real generalised eigenvalue problem by standard LAPACK (fast)
  Determining occupation numbers for Kohn-Sham eigenstates.
  | Chemical potential (Fermi level) in eV                 : -.49589121E+01
  | Error in electron count due to remaining E_F inaccuracy: 0.00000000E+00
  | Maximum occupation number of highest empty state:  0.00E+00

  Writing Kohn-Sham eigenvalues.

  State    Occupation    Eigenvalue [Ha]    Eigenvalue [eV]
      1       2.00000         -19.064795         -518.77948
      2       2.00000         -19.051936         -518.42954
      3       2.00000         -19.044508         -518.22743
      4       2.00000         -19.019664         -517.55140
      5       2.00000          -1.121176          -30.50874
      6       2.00000          -1.098508          -29.89193
      7       2.00000          -1.089095          -29.63578
      8       2.00000          -1.043454          -28.39383
      9       2.00000          -0.650180          -17.69229
     10       2.00000          -0.644500          -17.53773
     11       2.00000          -0.618263          -16.82379
     12       2.00000          -0.596416          -16.22932
     13       2.00000          -0.525169          -14.29058
     14       2.00000          -0.503698          -13.70631
     15       2.00000          -0.501539          -13.64757
     16       2.00000          -0.479100          -13.03698
     17       2.00000          -0.440938          -11.99854
     18       2.00000          -0.438457          -11.93104
     19       2.00000          -0.430153          -11.70506
     20       2.00000          -0.402618          -10.95580
     21       0.00000          -0.093537           -2.54528
     22       0.00000          -0.063283           -1.72201
     23       0.00000          -0.059199           -1.61090
     24       0.00000          -0.034236           -0.93160
     25       0.00000          -0.013975           -0.38029
     26       0.00000          -0.001052           -0.02862
     27       0.00000           0.027124            0.73807
     28       0.00000           0.042860            1.16629
     29       0.00000           0.078330            2.13146
     30       0.00000           0.086395            2.35094
     31       0.00000           0.094098            2.56053
     32       0.00000           0.099702            2.71302
     33       0.00000           0.104511            2.84389
     34       0.00000           0.107510            2.92549
     35       0.00000           0.118003            3.21104
     36       0.00000           0.123013            3.34734
     37       0.00000           0.129060            3.51190
     38       0.00000           0.147238            4.00655
     39       0.00000           0.152877            4.16000
     40       0.00000           0.172812            4.70245
     41       0.00000           0.190501            5.18378
     42       0.00000           0.207814            5.65491
     43       0.00000           0.211864            5.76512
     44       0.00000           0.234588            6.38346
     45       0.00000           0.259096            7.05035
     46       0.00000           0.270224            7.35317
     47       0.00000           0.288314            7.84541
     48       0.00000           0.307469            8.36666
     49       0.00000           0.329721            8.97217
     50       0.00000           0.336883            9.16704
     51       0.00000           0.365398            9.94299
     52       0.00000           0.373402           10.16080
     53       0.00000           0.382661           10.41274
     54       0.00000           0.402945           10.96470
     55       0.00000           0.422356           11.49290
     56       0.00000           0.425990           11.59179
     57       0.00000           0.440309           11.98141
     58       0.00000           0.446663           12.15431
     59       0.00000           0.478861           13.03047
     60       0.00000           0.493933           13.44061
     61       0.00000           0.518171           14.10016
     62       0.00000           0.526106           14.31606
     63       0.00000           0.549932           14.96441
     64       0.00000           0.566268           15.40894
     65       0.00000           0.570642           15.52796
     66       0.00000           0.587383           15.98351
     67       0.00000           0.656404           17.86165
     68       0.00000           0.693236           18.86391

  Highest occupied state (VBM) at    -10.95579960 eV
  | Occupation number:      2.00000000

  Lowest unoccupied state (CBM) at    -2.54527788 eV
  | Occupation number:      0.00000000

  Overall HOMO-LUMO gap:      8.41052172 eV.
  Calculating total energy contributions from superposition of free atom densities.

  Total energy components:
  | Sum of eigenvalues            :        -173.52833427 Ha       -4721.94622551 eV
  | XC energy correction          :         -36.43432289 Ha        -991.42836918 eV
  | XC potential correction       :          46.54925726 Ha        1266.66973761 eV
  | Free-atom electrostatic energy:        -143.05691770 Ha       -3892.77679295 eV
  | Hartree energy correction     :           0.00000000 Ha           0.00000000 eV
  | van der Waals energy corr.    :           0.00000000 Ha           0.00000000 eV
  | Entropy correction            :           0.00000000 Ha           0.00000000 eV
  | ---------------------------
  | Total energy                  :        -306.47031760 Ha       -8339.48165003 eV
  | Total energy, T -> 0          :        -306.47031760 Ha       -8339.48165003 eV  <-- do not rely on this value for anything but (periodic) metals
  | Electronic free energy        :        -306.47031760 Ha       -8339.48165003 eV

  Derived energy quantities:
  | Kinetic energy                :         303.27133789 Ha        8252.43298315 eV
  | Electrostatic energy          :        -573.30733260 Ha      -15600.48626400 eV
  | Energy correction for multipole
  | error in Hartree potential    :           0.00000000 Ha           0.00000000 eV
  | Sum of eigenvalues per atom                           :        -393.49551879 eV
  | Total energy (T->0) per atom                          :        -694.95680417 eV  <-- do not rely on this value for anything but (periodic) metals
  | Electronic free energy per atom                       :        -694.95680417 eV
  Initialize hartree_potential_storage
  Max. number of atoms included in rho_multipole:           12

  End scf initialization - timings             :  max(cpu_time)    wall_clock(cpu1)
  | Time for scf. initialization               :        1.186 s           1.186 s
  | Boundary condition initialization          :        0.000 s           0.000 s
  | Integration                                :        0.808 s           0.808 s
  | Solution of K.-S. eqns.                    :        0.119 s           0.119 s
  | Grid partitioning                          :        0.111 s           0.111 s
  | Preloading free-atom quantities on grid    :        0.013 s           0.013 s
  | Free-atom superposition energy             :        0.046 s           0.046 s
  | Total energy evaluation                    :        0.000 s           0.000 s
------------------------------------------------------------

------------------------------------------------------------
          Begin self-consistency iteration #    1

  Date     :  20150727, Time     :  115557.367
------------------------------------------------------------
  Evaluating new KS density.
  Integration grid: deviation in total charge (<rho> - N_e) =   7.105427E-15
  Pulay mixing of updated and previous charge densities.

  Evaluating partitioned Hartree potential by multipole expansion.
  | Analytical far-field extrapolation by fixed multipoles:
  | Hartree multipole sum: apparent total charge =  -0.141381E-05
  Summing up the Hartree potential.
  Time summed over all CPUs for potential: real work        1.653 s, elapsed        1.660 s
  | RMS charge density error from multipole expansion :   0.146945E-02

  Integrating Hamiltonian matrix: batch-based integration.
  Time summed over all CPUs for integration: real work        4.155 s, elapsed        4.198 s

  Updating Kohn-Sham eigenvalues, eigenvectors, occupation numbers, and Fermi level.
  Solving generalized eigenproblem
  Updating Kohn-Sham eigenvalues and eigenfunctions.
  Solving real generalised eigenvalue problem by standard LAPACK (fast)
  Determining occupation numbers for Kohn-Sham eigenstates.
  | Chemical potential (Fermi level) in eV                 : -.44977075E+01
  | Error in electron count due to remaining E_F inaccuracy: 0.00000000E+00
  | Maximum occupation number of highest empty state:  0.00E+00

  Writing Kohn-Sham eigenvalues.

  State    Occupation    Eigenvalue [Ha]    Eigenvalue [eV]
      1       2.00000         -18.998423         -516.97340
      2       2.00000         -18.968286         -516.15333
      3       2.00000         -18.964216         -516.04258
      4       2.00000         -18.929442         -515.09632
      5       2.00000          -1.090637          -29.67775
      6       2.00000          -1.052365          -28.63632
      7       2.00000          -1.052214          -28.63220
      8       2.00000          -0.993824          -27.04332
      9       2.00000          -0.624267          -16.98716
     10       2.00000          -0.604348          -16.44514
     11       2.00000          -0.587194          -15.97836
     12       2.00000          -0.560166          -15.24288
     13       2.00000          -0.485594          -13.21368
     14       2.00000          -0.464390          -12.63670
     15       2.00000          -0.457474          -12.44851
     16       2.00000          -0.439174          -11.95052
     17       2.00000          -0.398216          -10.83602
     18       2.00000          -0.391223          -10.64573
     19       2.00000          -0.390280          -10.62005
     20       2.00000          -0.350410           -9.53515
     21       0.00000          -0.087205           -2.37298
     22       0.00000          -0.052747           -1.43532
     23       0.00000          -0.051728           -1.40760
     24       0.00000          -0.023762           -0.64661
     25       0.00000          -0.009180           -0.24981
     26       0.00000           0.008980            0.24436
     27       0.00000           0.032735            0.89077
     28       0.00000           0.053162            1.44660
     29       0.00000           0.089426            2.43342
     30       0.00000           0.096785            2.63366
     31       0.00000           0.105415            2.86848
     32       0.00000           0.108536            2.95342
     33       0.00000           0.114174            3.10683
     34       0.00000           0.118205            3.21653
     35       0.00000           0.128162            3.48746
     36       0.00000           0.134236            3.65275
     37       0.00000           0.138040            3.75627
     38       0.00000           0.155691            4.23656
     39       0.00000           0.164395            4.47342
     40       0.00000           0.182550            4.96743
     41       0.00000           0.201519            5.48362
     42       0.00000           0.216513            5.89161
     43       0.00000           0.223756            6.08870
     44       0.00000           0.246405            6.70502
     45       0.00000           0.269015            7.32026
     46       0.00000           0.280039            7.62025
     47       0.00000           0.300027            8.16414
     48       0.00000           0.317895            8.65036
     49       0.00000           0.337971            9.19665
     50       0.00000           0.347589            9.45838
     51       0.00000           0.376830           10.25405
     52       0.00000           0.382134           10.39840
     53       0.00000           0.392361           10.67667
     54       0.00000           0.412048           11.21239
     55       0.00000           0.434567           11.82517
     56       0.00000           0.436717           11.88368
     57       0.00000           0.446880           12.16021
     58       0.00000           0.457213           12.44139
     59       0.00000           0.489192           13.31160
     60       0.00000           0.504931           13.73988
     61       0.00000           0.529020           14.39537
     62       0.00000           0.537775           14.63361
     63       0.00000           0.563145           15.32396
     64       0.00000           0.581729           15.82964
     65       0.00000           0.588246           16.00698
     66       0.00000           0.600112           16.32989
     67       0.00000           0.671688           18.27757
     68       0.00000           0.707893           19.26276

  Highest occupied state (VBM) at     -9.53514952 eV
  | Occupation number:      2.00000000

  Lowest unoccupied state (CBM) at    -2.37297910 eV
  | Occupation number:      0.00000000

  Overall HOMO-LUMO gap:      7.16217042 eV.

  Total energy components:
  | Sum of eigenvalues            :        -171.60428739 Ha       -4669.59024606 eV
  | XC energy correction          :         -36.63474763 Ha        -996.88220375 eV
  | XC potential correction       :          46.81190821 Ha        1273.81683358 eV
  | Free-atom electrostatic energy:        -143.05691770 Ha       -3892.77679295 eV
  | Hartree energy correction     :          -1.85789650 Ha         -50.55593604 eV
  | van der Waals energy corr.    :           0.00000000 Ha           0.00000000 eV
  | Entropy correction            :           0.00000000 Ha           0.00000000 eV
  | ---------------------------
  | Total energy                  :        -306.34194101 Ha       -8335.98834521 eV
  | Total energy, T -> 0          :        -306.34194101 Ha       -8335.98834521 eV  <-- do not rely on this value for anything but (periodic) metals
  | Electronic free energy        :        -306.34194101 Ha       -8335.98834521 eV

  Derived energy quantities:
  | Kinetic energy                :         304.46899055 Ha        8285.02277016 eV
  | Electrostatic energy          :        -574.17618393 Ha      -15624.12891162 eV
  | Energy correction for multipole
  | error in Hartree potential    :          -0.00012466 Ha          -0.00339209 eV
  | Sum of eigenvalues per atom                           :        -389.13252050 eV
  | Total energy (T->0) per atom                          :        -694.66569543 eV  <-- do not rely on this value for anything but (periodic) metals
  | Electronic free energy per atom                       :        -694.66569543 eV

  Self-consistency convergence accuracy:
  | Change of charge density      : 0.6091E+00
  | Change of sum of eigenvalues  : 0.5236E+02 eV
  | Change of total energy        : 0.3493E+01 eV

  End self-consistency iteration #     1       :  max(cpu_time)    wall_clock(cpu1)
  | Time for this iteration                    :        1.136 s           1.136 s
  | Charge density update                      :        0.363 s           0.363 s
  | Density mixing                             :        0.003 s           0.003 s
  | Hartree multipole update                   :        0.004 s           0.004 s
  | Hartree multipole summation                :        0.208 s           0.208 s
  | Integration                                :        0.526 s           0.526 s
  | Solution of K.-S. eqns.                    :        0.031 s           0.031 s
  | Total energy evaluation                    :        0.001 s           0.001 s
------------------------------------------------------------

------------------------------------------------------------
          Begin self-consistency iteration #    2

  Date     :  20150727, Time     :  115558.503
------------------------------------------------------------
  Evaluating new KS density.
  Integration grid: deviation in total charge (<rho> - N_e) =   7.105427E-15
  Pulay mixing of updated and previous charge densities.

  Evaluating partitioned Hartree potential by multipole expansion.
  | Analytical far-field extrapolation by fixed multipoles:
  | Hartree multipole sum: apparent total charge =  -0.384387E-05
  Summing up the Hartree potential.
  Time summed over all CPUs for potential: real work        1.653 s, elapsed        1.660 s
  | RMS charge density error from multipole expansion :   0.584585E-02

  Integrating Hamiltonian matrix: batch-based integration.
  Time summed over all CPUs for integration: real work        4.147 s, elapsed        4.189 s

  Updating Kohn-Sham eigenvalues, eigenvectors, occupation numbers, and Fermi level.
  Solving generalized eigenproblem
  Updating Kohn-Sham eigenvalues and eigenfunctions.
  Solving real generalised eigenvalue problem by standard LAPACK (fast)
  Determining occupation numbers for Kohn-Sham eigenstates.
  | Chemical potential (Fermi level) in eV                 : -.33318805E+01
  | Error in electron count due to remaining E_F inaccuracy: 0.00000000E+00
  | Maximum occupation number of highest empty state:  0.00E+00

  Highest occupied state (VBM) at     -6.18375454 eV
  | Occupation number:      2.00000000

  Lowest unoccupied state (CBM) at    -2.02359255 eV
  | Occupation number:      0.00000000

  Overall HOMO-LUMO gap:      4.16016199 eV.

  Total energy components:
  | Sum of eigenvalues            :        -167.10824771 Ha       -4547.24678161 eV
  | XC energy correction          :         -37.12311796 Ha       -1010.17143667 eV
  | XC potential correction       :          47.45150816 Ha        1291.22123371 eV
  | Free-atom electrostatic energy:        -143.05691770 Ha       -3892.77679295 eV
  | Hartree energy correction     :          -6.35637592 Ha        -172.96578928 eV
  | van der Waals energy corr.    :           0.00000000 Ha           0.00000000 eV
  | Entropy correction            :           0.00000000 Ha           0.00000000 eV
  | ---------------------------
  | Total energy                  :        -306.19315113 Ha       -8331.93956680 eV
  | Total energy, T -> 0          :        -306.19315113 Ha       -8331.93956680 eV  <-- do not rely on this value for anything but (periodic) metals
  | Electronic free energy        :        -306.19315113 Ha       -8331.93956680 eV

  Derived energy quantities:
  | Kinetic energy                :         306.84120102 Ha        8349.57390148 eV
  | Electrostatic energy          :        -575.91123420 Ha      -15671.34203161 eV
  | Energy correction for multipole
  | error in Hartree potential    :          -0.00103510 Ha          -0.02816654 eV
  | Sum of eigenvalues per atom                           :        -378.93723180 eV
  | Total energy (T->0) per atom                          :        -694.32829723 eV  <-- do not rely on this value for anything but (periodic) metals
  | Electronic free energy per atom                       :        -694.32829723 eV

  Self-consistency convergence accuracy:
  | Change of charge density      : 0.4597E+00
  | Change of sum of eigenvalues  : 0.1223E+03 eV
  | Change of total energy        : 0.4049E+01 eV

  End self-consistency iteration #     2       :  max(cpu_time)    wall_clock(cpu1)
  | Time for this iteration                    :        1.131 s           1.131 s
  | Charge density update                      :        0.359 s           0.358 s
  | Density mixing                             :        0.004 s           0.005 s
  | Hartree multipole update                   :        0.004 s           0.004 s
  | Hartree multipole summation                :        0.209 s           0.208 s
  | Integration                                :        0.524 s           0.525 s
  | Solution of K.-S. eqns.                    :        0.031 s           0.031 s
  | Total energy evaluation                    :        0.000 s           0.000 s
------------------------------------------------------------

------------------------------------------------------------
          Begin self-consistency iteration #    3

  Date     :  20150727, Time     :  115559.634
------------------------------------------------------------
  Evaluating new KS density.
  Integration grid: deviation in total charge (<rho> - N_e) =  -1.421085E-14
  Pulay mixing of updated and previous charge densities.

  Evaluating partitioned Hartree potential by multipole expansion.
  | Analytical far-field extrapolation by fixed multipoles:
  | Hartree multipole sum: apparent total charge =  -0.289445E-05
  Summing up the Hartree potential.
  Time summed over all CPUs for potential: real work        1.653 s, elapsed        1.660 s
  | RMS charge density error from multipole expansion :   0.118136E-01

  Integrating Hamiltonian matrix: batch-based integration.
  Time summed over all CPUs for integration: real work        4.150 s, elapsed        4.195 s

  Updating Kohn-Sham eigenvalues, eigenvectors, occupation numbers, and Fermi level.
  Solving generalized eigenproblem
  Updating Kohn-Sham eigenvalues and eigenfunctions.
  Solving real generalised eigenvalue problem by standard LAPACK (fast)
  Determining occupation numbers for Kohn-Sham eigenstates.
  | Chemical potential (Fermi level) in eV                 : -.30776394E+01
  | Error in electron count due to remaining E_F inaccuracy: 0.00000000E+00
  | Maximum occupation number of highest empty state:  0.00E+00

  Highest occupied state (VBM) at     -6.06984582 eV
  | Occupation number:      2.00000000

  Lowest unoccupied state (CBM) at    -2.00090729 eV
  | Occupation number:      0.00000000

  Overall HOMO-LUMO gap:      4.06893853 eV.

  Total energy components:
  | Sum of eigenvalues            :        -167.37430753 Ha       -4554.48663774 eV
  | XC energy correction          :         -37.08532336 Ha       -1009.14299314 eV
  | XC potential correction       :          47.39863721 Ha        1289.78254185 eV
  | Free-atom electrostatic energy:        -143.05691770 Ha       -3892.77679295 eV
  | Hartree energy correction     :          -6.07137403 Ha        -165.21049326 eV
  | van der Waals energy corr.    :           0.00000000 Ha           0.00000000 eV
  | Entropy correction            :           0.00000000 Ha           0.00000000 eV
  | ---------------------------
  | Total energy                  :        -306.18928542 Ha       -8331.83437524 eV
  | Total energy, T -> 0          :        -306.18928542 Ha       -8331.83437524 eV  <-- do not rely on this value for anything but (periodic) metals
  | Electronic free energy        :        -306.18928542 Ha       -8331.83437524 eV

  Derived energy quantities:
  | Kinetic energy                :         305.09984122 Ha        8302.18909019 eV
  | Electrostatic energy          :        -574.20380328 Ha      -15624.88047229 eV
  | Energy correction for multipole
  | error in Hartree potential    :          -0.00437505 Ha          -0.11905115 eV
  | Sum of eigenvalues per atom                           :        -379.54055314 eV
  | Total energy (T->0) per atom                          :        -694.31953127 eV  <-- do not rely on this value for anything but (periodic) metals
  | Electronic free energy per atom                       :        -694.31953127 eV

  Self-consistency convergence accuracy:
  | Change of charge density      : 0.2321E+00
  | Change of sum of eigenvalues  : -.7240E+01 eV
  | Change of total energy        : 0.1052E+00 eV

  End self-consistency iteration #     3       :  max(cpu_time)    wall_clock(cpu1)
  | Time for this iteration                    :        1.132 s           1.132 s
  | Charge density update                      :        0.357 s           0.357 s
  | Density mixing                             :        0.005 s           0.006 s
  | Hartree multipole update                   :        0.005 s           0.004 s
  | Hartree multipole summation                :        0.208 s           0.208 s
  | Integration                                :        0.525 s           0.526 s
  | Solution of K.-S. eqns.                    :        0.031 s           0.030 s
  | Total energy evaluation                    :        0.000 s           0.000 s
------------------------------------------------------------

------------------------------------------------------------
          Begin self-consistency iteration #    4

  Date     :  20150727, Time     :  115600.766
------------------------------------------------------------
  Evaluating new KS density.
  Integration grid: deviation in total charge (<rho> - N_e) =   7.105427E-15
  Pulay mixing of updated and previous charge densities.

  Evaluating partitioned Hartree potential by multipole expansion.
  | Analytical far-field extrapolation by fixed multipoles:
  | Hartree multipole sum: apparent total charge =  -0.338700E-05
  Summing up the Hartree potential.
  Time summed over all CPUs for potential: real work        1.681 s, elapsed        1.816 s
  | RMS charge density error from multipole expansion :   0.153111E-01

  Integrating Hamiltonian matrix: batch-based integration.
  Time summed over all CPUs for integration: real work        4.145 s, elapsed        4.218 s

  Updating Kohn-Sham eigenvalues, eigenvectors, occupation numbers, and Fermi level.
  Solving generalized eigenproblem
  Updating Kohn-Sham eigenvalues and eigenfunctions.
  Solving real generalised eigenvalue problem by standard LAPACK (fast)
  Determining occupation numbers for Kohn-Sham eigenstates.
  | Chemical potential (Fermi level) in eV                 : -.25928831E+01
  | Error in electron count due to remaining E_F inaccuracy: 0.00000000E+00
  | Maximum occupation number of highest empty state:  0.00E+00

  Highest occupied state (VBM) at     -4.84523863 eV
  | Occupation number:      2.00000000

  Lowest unoccupied state (CBM) at    -1.89808704 eV
  | Occupation number:      0.00000000

  Overall HOMO-LUMO gap:      2.94715159 eV.

  Total energy components:
  | Sum of eigenvalues            :        -165.90467017 Ha       -4514.49577023 eV
  | XC energy correction          :         -37.25867890 Ha       -1013.86023750 eV
  | XC potential correction       :          47.62534169 Ha        1295.95148460 eV
  | Free-atom electrostatic energy:        -143.05691770 Ha       -3892.77679295 eV
  | Hartree energy correction     :          -7.58163092 Ha        -206.30667416 eV
  | van der Waals energy corr.    :           0.00000000 Ha           0.00000000 eV
  | Entropy correction            :           0.00000000 Ha           0.00000000 eV
  | ---------------------------
  | Total energy                  :        -306.17655600 Ha       -8331.48799023 eV
  | Total energy, T -> 0          :        -306.17655600 Ha       -8331.48799023 eV  <-- do not rely on this value for anything but (periodic) metals
  | Electronic free energy        :        -306.17655600 Ha       -8331.48799023 eV

  Derived energy quantities:
  | Kinetic energy                :         305.32066263 Ha        8308.19794654 eV
  | Electrostatic energy          :        -574.23853973 Ha      -15625.82569927 eV
  | Energy correction for multipole
  | error in Hartree potential    :          -0.00583943 Ha          -0.15889904 eV
  | Sum of eigenvalues per atom                           :        -376.20798085 eV
  | Total energy (T->0) per atom                          :        -694.29066585 eV  <-- do not rely on this value for anything but (periodic) metals
  | Electronic free energy per atom                       :        -694.29066585 eV

  Self-consistency convergence accuracy:
  | Change of charge density      : 0.1381E+00
  | Change of sum of eigenvalues  : 0.3999E+02 eV
  | Change of total energy        : 0.3464E+00 eV

  End self-consistency iteration #     4       :  max(cpu_time)    wall_clock(cpu1)
  | Time for this iteration                    :        1.154 s           1.154 s
  | Charge density update                      :        0.356 s           0.356 s
  | Density mixing                             :        0.007 s           0.007 s
  | Hartree multipole update                   :        0.004 s           0.004 s
  | Hartree multipole summation                :        0.228 s           0.228 s
  | Integration                                :        0.528 s           0.528 s
  | Solution of K.-S. eqns.                    :        0.031 s           0.031 s
  | Total energy evaluation                    :        0.000 s           0.000 s
------------------------------------------------------------

------------------------------------------------------------
          Begin self-consistency iteration #    5

  Date     :  20150727, Time     :  115601.920
------------------------------------------------------------
  Evaluating new KS density.
  Integration grid: deviation in total charge (<rho> - N_e) =  -2.131628E-14
  Pulay mixing of updated and previous charge densities.

  Evaluating partitioned Hartree potential by multipole expansion.
  | Analytical far-field extrapolation by fixed multipoles:
  | Hartree multipole sum: apparent total charge =  -0.329266E-05
  Summing up the Hartree potential.
  Time summed over all CPUs for potential: real work        1.652 s, elapsed        1.659 s
  | RMS charge density error from multipole expansion :   0.159541E-01

  Integrating Hamiltonian matrix: batch-based integration.
  Time summed over all CPUs for integration: real work        4.134 s, elapsed        4.178 s

  Updating Kohn-Sham eigenvalues, eigenvectors, occupation numbers, and Fermi level.
  Solving generalized eigenproblem
  Updating Kohn-Sham eigenvalues and eigenfunctions.
  Solving real generalised eigenvalue problem by standard LAPACK (fast)
  Determining occupation numbers for Kohn-Sham eigenstates.
  | Chemical potential (Fermi level) in eV                 : -.25608705E+01
  | Error in electron count due to remaining E_F inaccuracy: 0.00000000E+00
  | Maximum occupation number of highest empty state:  0.00E+00

  Highest occupied state (VBM) at     -4.64050098 eV
  | Occupation number:      2.00000000

  Lowest unoccupied state (CBM) at    -1.89360415 eV
  | Occupation number:      0.00000000

  Overall HOMO-LUMO gap:      2.74689683 eV.

  Total energy components:
  | Sum of eigenvalues            :        -165.76653630 Ha       -4510.73695661 eV
  | XC energy correction          :         -37.27762094 Ha       -1014.37567674 eV
  | XC potential correction       :          47.64979755 Ha        1296.61696250 eV
  | Free-atom electrostatic energy:        -143.05691770 Ha       -3892.77679295 eV
  | Hartree energy correction     :          -7.72507922 Ha        -210.21010104 eV
  | van der Waals energy corr.    :           0.00000000 Ha           0.00000000 eV
  | Entropy correction            :           0.00000000 Ha           0.00000000 eV
  | ---------------------------
  | Total energy                  :        -306.17635662 Ha       -8331.48256483 eV
  | Total energy, T -> 0          :        -306.17635662 Ha       -8331.48256483 eV  <-- do not rely on this value for anything but (periodic) metals
  | Electronic free energy        :        -306.17635662 Ha       -8331.48256483 eV

  Derived energy quantities:
  | Kinetic energy                :         305.36306119 Ha        8309.35167002 eV
  | Electrostatic energy          :        -574.26179686 Ha      -15626.45855811 eV
  | Energy correction for multipole
  | error in Hartree potential    :          -0.00596619 Ha          -0.16234833 eV
  | Sum of eigenvalues per atom                           :        -375.89474638 eV
  | Total energy (T->0) per atom                          :        -694.29021374 eV  <-- do not rely on this value for anything but (periodic) metals
  | Electronic free energy per atom                       :        -694.29021374 eV

  Self-consistency convergence accuracy:
  | Change of charge density      : 0.3005E-01
  | Change of sum of eigenvalues  : 0.3759E+01 eV
  | Change of total energy        : 0.5425E-02 eV

  End self-consistency iteration #     5       :  max(cpu_time)    wall_clock(cpu1)
  | Time for this iteration                    :        1.132 s           1.131 s
  | Charge density update                      :        0.357 s           0.357 s
  | Density mixing                             :        0.008 s           0.007 s
  | Hartree multipole update                   :        0.004 s           0.004 s
  | Hartree multipole summation                :        0.208 s           0.209 s
  | Integration                                :        0.524 s           0.523 s
  | Solution of K.-S. eqns.                    :        0.031 s           0.031 s
  | Total energy evaluation                    :        0.000 s           0.000 s
------------------------------------------------------------

------------------------------------------------------------
          Begin self-consistency iteration #    6

  Date     :  20150727, Time     :  115603.052
------------------------------------------------------------
  Evaluating new KS density.
  Integration grid: deviation in total charge (<rho> - N_e) =   2.842171E-14
  Pulay mixing of updated and previous charge densities.

  Evaluating partitioned Hartree potential by multipole expansion.
  | Analytical far-field extrapolation by fixed multipoles:
  | Hartree multipole sum: apparent total charge =  -0.327144E-05
  Summing up the Hartree potential.
  Time summed over all CPUs for potential: real work        1.652 s, elapsed        1.660 s
  | RMS charge density error from multipole expansion :   0.162756E-01

  Integrating Hamiltonian matrix: batch-based integration.
  Time summed over all CPUs for integration: real work        4.135 s, elapsed        4.173 s

  Updating Kohn-Sham eigenvalues, eigenvectors, occupation numbers, and Fermi level.
  Solving generalized eigenproblem
  Updating Kohn-Sham eigenvalues and eigenfunctions.
  Solving real generalised eigenvalue problem by standard LAPACK (fast)
  Determining occupation numbers for Kohn-Sham eigenstates.
  | Chemical potential (Fermi level) in eV                 : -.25337463E+01
  | Error in electron count due to remaining E_F inaccuracy: 0.00000000E+00
  | Maximum occupation number of highest empty state:  0.00E+00

  Highest occupied state (VBM) at     -4.57302590 eV
  | Occupation number:      2.00000000

  Lowest unoccupied state (CBM) at    -1.88502767 eV
  | Occupation number:      0.00000000

  Overall HOMO-LUMO gap:      2.68799823 eV.

  Total energy components:
  | Sum of eigenvalues            :        -165.68354518 Ha       -4508.47865331 eV
  | XC energy correction          :         -37.28852840 Ha       -1014.67248382 eV
  | XC potential correction       :          47.66395101 Ha        1297.00209782 eV
  | Free-atom electrostatic energy:        -143.05691770 Ha       -3892.77679295 eV
  | Hartree energy correction     :          -7.81145317 Ha        -212.56045575 eV
  | van der Waals energy corr.    :           0.00000000 Ha           0.00000000 eV
  | Entropy correction            :           0.00000000 Ha           0.00000000 eV
  | ---------------------------
  | Total energy                  :        -306.17649345 Ha       -8331.48628800 eV
  | Total energy, T -> 0          :        -306.17649345 Ha       -8331.48628800 eV  <-- do not rely on this value for anything but (periodic) metals
  | Electronic free energy        :        -306.17649345 Ha       -8331.48628800 eV

  Derived energy quantities:
  | Kinetic energy                :         305.38370274 Ha        8309.91335523 eV
  | Electrostatic energy          :        -574.27166778 Ha      -15626.72715941 eV
  | Energy correction for multipole
  | error in Hartree potential    :          -0.00603757 Ha          -0.16429073 eV
  | Sum of eigenvalues per atom                           :        -375.70655444 eV
  | Total energy (T->0) per atom                          :        -694.29052400 eV  <-- do not rely on this value for anything but (periodic) metals
  | Electronic free energy per atom                       :        -694.29052400 eV

  Self-consistency convergence accuracy:
  | Change of charge density      : 0.9826E-02
  | Change of sum of eigenvalues  : 0.2258E+01 eV
  | Change of total energy        : -.3723E-02 eV

  End self-consistency iteration #     6       :  max(cpu_time)    wall_clock(cpu1)
  | Time for this iteration                    :        1.131 s           1.131 s
  | Charge density update                      :        0.357 s           0.357 s
  | Density mixing                             :        0.008 s           0.008 s
  | Hartree multipole update                   :        0.004 s           0.004 s
  | Hartree multipole summation                :        0.209 s           0.209 s
  | Integration                                :        0.522 s           0.522 s
  | Solution of K.-S. eqns.                    :        0.031 s           0.031 s
  | Total energy evaluation                    :        0.000 s           0.000 s
------------------------------------------------------------

------------------------------------------------------------
          Begin self-consistency iteration #    7

  Date     :  20150727, Time     :  115604.183
------------------------------------------------------------
  Evaluating new KS density.
  Integration grid: deviation in total charge (<rho> - N_e) =  -7.105427E-15
  Pulay mixing of updated and previous charge densities.

  Evaluating partitioned Hartree potential by multipole expansion.
  | Analytical far-field extrapolation by fixed multipoles:
  | Hartree multipole sum: apparent total charge =  -0.304263E-05
  Summing up the Hartree potential.
  Time summed over all CPUs for potential: real work        1.652 s, elapsed        1.659 s
  | RMS charge density error from multipole expansion :   0.161426E-01

  Integrating Hamiltonian matrix: batch-based integration.
  Time summed over all CPUs for integration: real work        4.137 s, elapsed        4.171 s

  Updating Kohn-Sham eigenvalues, eigenvectors, occupation numbers, and Fermi level.
  Solving generalized eigenproblem
  Updating Kohn-Sham eigenvalues and eigenfunctions.
  Solving real generalised eigenvalue problem by standard LAPACK (fast)
  Determining occupation numbers for Kohn-Sham eigenstates.
  | Chemical potential (Fermi level) in eV                 : -.25936753E+01
  | Error in electron count due to remaining E_F inaccuracy: 0.00000000E+00
  | Maximum occupation number of highest empty state:  0.00E+00

  Highest occupied state (VBM) at     -4.75888838 eV
  | Occupation number:      2.00000000

  Lowest unoccupied state (CBM) at    -1.89849488 eV
  | Occupation number:      0.00000000

  Overall HOMO-LUMO gap:      2.86039351 eV.

  Total energy components:
  | Sum of eigenvalues            :        -165.84805223 Ha       -4512.95511770 eV
  | XC energy correction          :         -37.27050894 Ha       -1014.18214931 eV
  | XC potential correction       :          47.63996760 Ha        1296.34947581 eV
  | Free-atom electrostatic energy:        -143.05691770 Ha       -3892.77679295 eV
  | Hartree energy correction     :          -7.64078420 Ha        -207.91631674 eV
  | van der Waals energy corr.    :           0.00000000 Ha           0.00000000 eV
  | Entropy correction            :           0.00000000 Ha           0.00000000 eV
  | ---------------------------
  | Total energy                  :        -306.17629547 Ha       -8331.48090088 eV
  | Total energy, T -> 0          :        -306.17629547 Ha       -8331.48090088 eV  <-- do not rely on this value for anything but (periodic) metals
  | Electronic free energy        :        -306.17629547 Ha       -8331.48090088 eV

  Derived energy quantities:
  | Kinetic energy                :         305.41963755 Ha        8310.89119116 eV
  | Electrostatic energy          :        -574.32542408 Ha      -15628.18994274 eV
  | Energy correction for multipole
  | error in Hartree potential    :          -0.00575456 Ha          -0.15658950 eV
  | Sum of eigenvalues per atom                           :        -376.07959314 eV
  | Total energy (T->0) per atom                          :        -694.29007507 eV  <-- do not rely on this value for anything but (periodic) metals
  | Electronic free energy per atom                       :        -694.29007507 eV

  Self-consistency convergence accuracy:
  | Change of charge density      : 0.1325E-01
  | Change of sum of eigenvalues  : -.4476E+01 eV
  | Change of total energy        : 0.5387E-02 eV

  End self-consistency iteration #     7       :  max(cpu_time)    wall_clock(cpu1)
  | Time for this iteration                    :        1.132 s           1.132 s
  | Charge density update                      :        0.357 s           0.356 s
  | Density mixing                             :        0.009 s           0.010 s
  | Hartree multipole update                   :        0.004 s           0.004 s
  | Hartree multipole summation                :        0.209 s           0.208 s
  | Integration                                :        0.522 s           0.523 s
  | Solution of K.-S. eqns.                    :        0.031 s           0.030 s
  | Total energy evaluation                    :        0.000 s           0.000 s
------------------------------------------------------------

------------------------------------------------------------
          Begin self-consistency iteration #    8

  Date     :  20150727, Time     :  115605.316
------------------------------------------------------------
  Evaluating new KS density.
  Integration grid: deviation in total charge (<rho> - N_e) =   7.105427E-15
  Pulay mixing of updated and previous charge densities.

  Evaluating partitioned Hartree potential by multipole expansion.
  | Analytical far-field extrapolation by fixed multipoles:
  | Hartree multipole sum: apparent total charge =  -0.303614E-05
  Summing up the Hartree potential.
  Time summed over all CPUs for potential: real work        1.652 s, elapsed        1.659 s
  | RMS charge density error from multipole expansion :   0.161638E-01

  Integrating Hamiltonian matrix: batch-based integration.
  Time summed over all CPUs for integration: real work        4.127 s, elapsed        4.171 s

  Updating Kohn-Sham eigenvalues, eigenvectors, occupation numbers, and Fermi level.
  Solving generalized eigenproblem
  Updating Kohn-Sham eigenvalues and eigenfunctions.
  Solving real generalised eigenvalue problem by standard LAPACK (fast)
  Determining occupation numbers for Kohn-Sham eigenstates.
  | Chemical potential (Fermi level) in eV                 : -.25922671E+01
  | Error in electron count due to remaining E_F inaccuracy: 0.00000000E+00
  | Maximum occupation number of highest empty state:  0.00E+00

  Highest occupied state (VBM) at     -4.74524478 eV
  | Occupation number:      2.00000000

  Lowest unoccupied state (CBM) at    -1.89950731 eV
  | Occupation number:      0.00000000

  Overall HOMO-LUMO gap:      2.84573747 eV.

  Total energy components:
  | Sum of eigenvalues            :        -165.84457041 Ha       -4512.86037279 eV
  | XC energy correction          :         -37.27084512 Ha       -1014.19129714 eV
  | XC potential correction       :          47.64039144 Ha        1296.36100927 eV
  | Free-atom electrostatic energy:        -143.05691770 Ha       -3892.77679295 eV
  | Hartree energy correction     :          -7.64435296 Ha        -208.01342758 eV
  | van der Waals energy corr.    :           0.00000000 Ha           0.00000000 eV
  | Entropy correction            :           0.00000000 Ha           0.00000000 eV
  | ---------------------------
  | Total energy                  :        -306.17629475 Ha       -8331.48088119 eV
  | Total energy, T -> 0          :        -306.17629475 Ha       -8331.48088119 eV  <-- do not rely on this value for anything but (periodic) metals
  | Electronic free energy        :        -306.17629475 Ha       -8331.48088119 eV

  Derived energy quantities:
  | Kinetic energy                :         305.42200590 Ha        8310.95563736 eV
  | Electrostatic energy          :        -574.32745553 Ha      -15628.24522140 eV
  | Energy correction for multipole
  | error in Hartree potential    :          -0.00575773 Ha          -0.15667573 eV
  | Sum of eigenvalues per atom                           :        -376.07169773 eV
  | Total energy (T->0) per atom                          :        -694.29007343 eV  <-- do not rely on this value for anything but (periodic) metals
  | Electronic free energy per atom                       :        -694.29007343 eV

  Self-consistency convergence accuracy:
  | Change of charge density      : 0.1659E-02
  | Change of sum of eigenvalues  : 0.9474E-01 eV
  | Change of total energy        : 0.1970E-04 eV

  End self-consistency iteration #     8       :  max(cpu_time)    wall_clock(cpu1)
  | Time for this iteration                    :        1.133 s           1.133 s
  | Charge density update                      :        0.357 s           0.356 s
  | Density mixing                             :        0.010 s           0.011 s
  | Hartree multipole update                   :        0.004 s           0.004 s
  | Hartree multipole summation                :        0.208 s           0.208 s
  | Integration                                :        0.522 s           0.522 s
  | Solution of K.-S. eqns.                    :        0.031 s           0.031 s
  | Total energy evaluation                    :        0.000 s           0.000 s
------------------------------------------------------------

------------------------------------------------------------
          Begin self-consistency iteration #    9

  Date     :  20150727, Time     :  115606.449
------------------------------------------------------------
  Evaluating new KS density.
  Integration grid: deviation in total charge (<rho> - N_e) =  -1.421085E-14
  Pulay mixing of updated and previous charge densities.

  Evaluating partitioned Hartree potential by multipole expansion.
  | Analytical far-field extrapolation by fixed multipoles:
  | Hartree multipole sum: apparent total charge =  -0.302474E-05
  Summing up the Hartree potential.
  Time summed over all CPUs for potential: real work        1.652 s, elapsed        1.660 s
  | RMS charge density error from multipole expansion :   0.161694E-01

  Integrating Hamiltonian matrix: batch-based integration.
  Time summed over all CPUs for integration: real work        4.133 s, elapsed        4.171 s

  Updating Kohn-Sham eigenvalues, eigenvectors, occupation numbers, and Fermi level.
  Solving generalized eigenproblem
  Updating Kohn-Sham eigenvalues and eigenfunctions.
  Solving real generalised eigenvalue problem by standard LAPACK (fast)
  Determining occupation numbers for Kohn-Sham eigenstates.
  | Chemical potential (Fermi level) in eV                 : -.25932353E+01
  | Error in electron count due to remaining E_F inaccuracy: 0.00000000E+00
  | Maximum occupation number of highest empty state:  0.00E+00

  Highest occupied state (VBM) at     -4.75221311 eV
  | Occupation number:      2.00000000

  Lowest unoccupied state (CBM) at    -1.89976827 eV
  | Occupation number:      0.00000000

  Overall HOMO-LUMO gap:      2.85244484 eV.

  Total energy components:
  | Sum of eigenvalues            :        -165.84811006 Ha       -4512.95669131 eV
  | XC energy correction          :         -37.27045441 Ha       -1014.18066544 eV
  | XC potential correction       :          47.63985939 Ha        1296.34653134 eV
  | Free-atom electrostatic energy:        -143.05691770 Ha       -3892.77679295 eV
  | Hartree energy correction     :          -7.64067133 Ha        -207.91324536 eV
  | van der Waals energy corr.    :           0.00000000 Ha           0.00000000 eV
  | Entropy correction            :           0.00000000 Ha           0.00000000 eV
  | ---------------------------
  | Total energy                  :        -306.17629411 Ha       -8331.48086372 eV
  | Total energy, T -> 0          :        -306.17629411 Ha       -8331.48086372 eV  <-- do not rely on this value for anything but (periodic) metals
  | Electronic free energy        :        -306.17629411 Ha       -8331.48086372 eV

  Derived energy quantities:
  | Kinetic energy                :         305.42502049 Ha        8311.03766836 eV
  | Electrostatic energy          :        -574.33086018 Ha      -15628.33786663 eV
  | Energy correction for multipole
  | error in Hartree potential    :          -0.00574755 Ha          -0.15639868 eV
  | Sum of eigenvalues per atom                           :        -376.07972428 eV
  | Total energy (T->0) per atom                          :        -694.29007198 eV  <-- do not rely on this value for anything but (periodic) metals
  | Electronic free energy per atom                       :        -694.29007198 eV

  Self-consistency convergence accuracy:
  | Change of charge density      : 0.1077E-02
  | Change of sum of eigenvalues  : -.9632E-01 eV
  | Change of total energy        : 0.1747E-04 eV

  End self-consistency iteration #     9       :  max(cpu_time)    wall_clock(cpu1)
  | Time for this iteration                    :        1.133 s           1.134 s
  | Charge density update                      :        0.356 s           0.356 s
  | Density mixing                             :        0.011 s           0.012 s
  | Hartree multipole update                   :        0.004 s           0.004 s
  | Hartree multipole summation                :        0.208 s           0.208 s
  | Integration                                :        0.522 s           0.523 s
  | Solution of K.-S. eqns.                    :        0.031 s           0.030 s
  | Total energy evaluation                    :        0.000 s           0.000 s
------------------------------------------------------------

------------------------------------------------------------
          Begin self-consistency iteration #   10

  Date     :  20150727, Time     :  115607.583
------------------------------------------------------------
  Evaluating new KS density.
  Integration grid: deviation in total charge (<rho> - N_e) =   1.421085E-14
  Pulay mixing of updated and previous charge densities.

  Evaluating partitioned Hartree potential by multipole expansion.
  | Analytical far-field extrapolation by fixed multipoles:
  | Hartree multipole sum: apparent total charge =  -0.301578E-05
  Summing up the Hartree potential.
  Time summed over all CPUs for potential: real work        1.652 s, elapsed        1.659 s
  | RMS charge density error from multipole expansion :   0.161742E-01

  Integrating Hamiltonian matrix: batch-based integration.
  Time summed over all CPUs for integration: real work        4.130 s, elapsed        4.170 s

  Updating Kohn-Sham eigenvalues, eigenvectors, occupation numbers, and Fermi level.
  Solving generalized eigenproblem
[...]
  |                                 -0.01159405       0.12050630       0.00716084
  |                                 -0.01322153       0.00716084       0.10933579
  ----------------------------------------------------------------------


  Total energy components:
  | Sum of eigenvalues            :        -165.84979106 Ha       -4513.00243384 eV
  | XC energy correction          :         -37.27012540 Ha       -1014.17171252 eV
  | XC potential correction       :          47.63941500 Ha        1296.33443896 eV
  | Free-atom electrostatic energy:        -143.05691770 Ha       -3892.77679295 eV
  | Hartree energy correction     :          -7.63887411 Ha        -207.86434065 eV
  | van der Waals energy corr.    :          -0.00142907 Ha          -0.03888691 eV
  | Entropy correction            :           0.00000000 Ha           0.00000000 eV
  | ---------------------------
  | Total energy                  :        -306.17772234 Ha       -8331.51972791 eV
  | Total energy, T -> 0          :        -306.17772234 Ha       -8331.51972791 eV  <-- do not rely on this value for anything but (periodic) metals
  | Electronic free energy        :        -306.17772234 Ha       -8331.51972791 eV

  Derived energy quantities:
  | Kinetic energy                :         305.42710955 Ha        8311.09451472 eV
  | Electrostatic energy          :        -574.33327743 Ha      -15628.40364320 eV
  | Energy correction for multipole
  | error in Hartree potential    :          -0.00574561 Ha          -0.15634591 eV
  | Sum of eigenvalues per atom                           :        -376.08353615 eV
  | Total energy (T->0) per atom                          :        -694.29331066 eV  <-- do not rely on this value for anything but (periodic) metals
  | Electronic free energy per atom                       :        -694.29331066 eV

  atomic forces [eV/Ang]:
  -----------------------
  atom #    1
   Hellmann-Feynman + Multipole  : -.721331E+01 -.110180E+02 0.358561E+01
   Pulay + GGA                   : 0.808262E+01 0.138102E+02 -.531889E+01
   Van der Waals               : 0.197593E-02 -.244866E-02 -.400724E-02
   ----------------------------------------------------------------
   Total forces(   1)            : 0.871282E+00 0.278982E+01 -.173729E+01
  atom #    2
   Hellmann-Feynman + Multipole  : 0.192786E+01 -.311585E+01 0.130553E+01
   Pulay + GGA                   : -.334341E-03 0.610660E-01 -.403712E-01
   Van der Waals               : -.277679E-03 0.899421E-03 0.906718E-03
   ----------------------------------------------------------------
   Total forces(   2)            : 0.192725E+01 -.305388E+01 0.126607E+01
  atom #    3
   Hellmann-Feynman + Multipole  : -.218277E+01 -.568489E+00 -.139118E+00
   Pulay + GGA                   : 0.124773E+00 0.641097E-01 -.564580E-02
   Van der Waals               : 0.110839E-02 0.121053E-02 -.740509E-03
   ----------------------------------------------------------------
   Total forces(   3)            : -.205688E+01 -.503169E+00 -.145504E+00
  atom #    4
   Hellmann-Feynman + Multipole  : 0.840332E+01 -.506122E+01 -.154768E+02
   Pulay + GGA                   : -.877222E+01 0.361914E+01 0.151021E+02
   Van der Waals               : -.346612E-02 0.220511E-02 0.562395E-02
   ----------------------------------------------------------------
   Total forces(   4)            : -.372368E+00 -.143987E+01 -.369064E+00
  atom #    5
   Hellmann-Feynman + Multipole  : -.453893E+00 0.457068E+00 0.849345E+00
   Pulay + GGA                   : 0.393252E-01 0.835652E-01 0.112204E+00
   Van der Waals               : -.103154E-02 0.434907E-02 -.128138E-02
   ----------------------------------------------------------------
   Total forces(   5)            : -.415599E+00 0.544982E+00 0.960268E+00
  atom #    6
   Hellmann-Feynman + Multipole  : 0.704263E+00 0.863840E+00 0.250028E+00
   Pulay + GGA                   : -.115980E+00 -.611971E-01 0.638663E-01
   Van der Waals               : 0.364418E-03 0.167030E-02 -.120634E-02
   ----------------------------------------------------------------
   Total forces(   6)            : 0.588647E+00 0.804313E+00 0.312688E+00
  atom #    7
   Hellmann-Feynman + Multipole  : -.621670E+01 -.907988E+01 0.932331E+01
   Pulay + GGA                   : 0.638912E+01 0.101428E+02 -.675363E+01
   Van der Waals               : -.274070E-02 0.372075E-02 0.533253E-02
   ----------------------------------------------------------------
   Total forces(   7)            : 0.169683E+00 0.106664E+01 0.257502E+01
  atom #    8
   Hellmann-Feynman + Multipole  : -.488192E+00 -.788507E+00 -.488156E+00
   Pulay + GGA                   : 0.542527E-01 0.123495E+00 0.397679E-01
   Van der Waals               : -.952950E-04 0.835984E-03 0.336291E-02
   ----------------------------------------------------------------
   Total forces(   8)            : -.434034E+00 -.664176E+00 -.445025E+00
  atom #    9
   Hellmann-Feynman + Multipole  : -.248256E+00 0.407590E+00 -.233617E+01
   Pulay + GGA                   : -.356308E-01 0.393579E-01 -.122627E+00
   Van der Waals               : 0.698700E-03 -.457762E-03 0.120277E-02
   ----------------------------------------------------------------
   Total forces(   9)            : -.283188E+00 0.446490E+00 -.245759E+01
  atom #   10
   Hellmann-Feynman + Multipole  : 0.112517E+01 -.164054E+02 0.216362E+01
   Pulay + GGA                   : 0.217353E+00 0.165243E+02 -.402485E+01
   Van der Waals               : 0.269535E-02 -.746663E-02 -.583194E-02
   ----------------------------------------------------------------
   Total forces(  10)            : 0.134522E+01 0.111492E+00 -.186707E+01
  atom #   11
   Hellmann-Feynman + Multipole  : -.245223E+00 0.563173E+00 0.190633E+00
   Pulay + GGA                   : -.709988E-01 0.101396E+00 0.868636E-01
   Van der Waals               : 0.385304E-03 -.972120E-03 -.711309E-03
   ----------------------------------------------------------------
   Total forces(  11)            : -.315836E+00 0.663596E+00 0.276785E+00
  atom #   12
   Hellmann-Feynman + Multipole  : -.107525E+01 -.826520E+00 0.175802E+01
   Pulay + GGA                   : 0.614242E-01 0.706193E-01 -.125704E+00
   Van der Waals               : 0.383243E-03 -.354599E-02 -.265015E-02
   ----------------------------------------------------------------
   Total forces(  12)            : -.101345E+01 -.759447E+00 0.162966E+01
  Timings for vdw_correction_hirshfeld (Tkatchenko-Scheffler 2009):
  | CPU time:        3.006 s, Wall clock time:        3.005 s.
  Removing unitary transformations (pure translations, rotations) from forces on atoms.
  Atomic forces before filtering:
  | Net force on center of mass :  0.107211E-01 0.677926E-02 -.104979E-02 eV/A
  | Net torque on center of mass:  -.221667E-02 0.104288E-02 -.140109E-02 eV
  Atomic forces after filtering:
  | Net force on center of mass :  0.535218E-15 -.713624E-15 0.000000E+00 eV/A
  | Net torque on center of mass:  0.226580E-14 0.566451E-15 0.132172E-14 eV
 
  Energy and forces in a compact form:
  | Total energy uncorrected      :         -0.833151972791219E+04 eV
  | Total energy corrected        :         -0.833151972791219E+04 eV  <-- do not rely on this value for anything but (periodic) metals
  | Electronic free energy        :         -0.833151972791219E+04 eV
  Total atomic forces (unitary forces cleaned) [eV/Ang]:
  |   1          0.870465115915131E+00          0.278930875425739E+01         -0.173723347661639E+01
  |   2          0.192641710000327E+01         -0.305438780256008E+01          0.126614019346527E+01
  |   3         -0.205770944226648E+01         -0.503651480222756E+00         -0.145409238321900E+00
  |   4         -0.373248827906042E+00         -0.144047621965529E+01         -0.369033372380309E+00
  |   5         -0.416516136605500E+00          0.544367948139657E+00          0.960329629004113E+00
  |   6          0.587770109244983E+00          0.803680977476321E+00          0.312679047769865E+00
  |   7          0.168834245263583E+00          0.106612365861952E+01          0.257510712929683E+01
  |   8         -0.434914530364025E+00         -0.664688456662122E+00         -0.444894901502958E+00
  |   9         -0.284013386889079E+00          0.446002693557436E+00         -0.245749813123063E+01
  |  10          0.134421995174512E+01          0.110848280104938E+00         -0.186693666625620E+01
  |  11         -0.316867768161352E+00          0.662924843406192E+00          0.276924712262738E+00
  |  12         -0.101443642997960E+01         -0.760053196461202E+00          0.162982507450956E+01
 
  ------------------------------------ 
  Start decomposition of the XC Energy 
  ------------------------------------ 
  Hartree-Fock part   :          0.000000000 Ha              0.000000000 eV
  ------------------------------------ 
  X Energy            :        -35.965633378 Ha           -978.674678632 eV
  C Energy GGA        :         -1.304492018 Ha            -35.497033888 eV
  Total XC Energy     :        -37.270125396 Ha          -1014.171712520 eV
  LDA X and C from self-consistent density 
  X Energy LDA        :        -32.399714196 Ha           -881.641080685 eV
  C Energy LDA        :         -2.638047773 Ha            -71.784932279 eV
  ------------------------------------ 
  End decomposition of the XC Energy 
  ------------------------------------ 
  Performing Hirshfeld analysis of fragment charges and moments.
  ----------------------------------------------------------------------
  | Atom     1: O
  |   Hirshfeld charge        :     -0.34493988
  |   Free atom volume        :     23.95238533
  |   Hirshfeld volume        :     23.56106641
  |   Hirshfeld dipole vector :      0.01055165       0.05332712       0.02904506
  |   Hirshfeld dipole moment :      0.06163387
  |   Hirshfeld second moments:      0.02975848      -0.01171448       0.01670596
  |                                 -0.01171448      -0.04891503      -0.03112720
  |                                  0.01670596      -0.03112720      -0.07613697
  ----------------------------------------------------------------------
  | Atom     2: H
  |   Hirshfeld charge        :      0.06722712
  |   Free atom volume        :     10.44207651
  |   Hirshfeld volume        :      8.20674800
  |   Hirshfeld dipole vector :     -0.02587841       0.03771406      -0.00877057
  |   Hirshfeld dipole moment :      0.04657215
  |   Hirshfeld second moments:      0.07496769       0.03245482       0.00189578
  |                                  0.03245482       0.03134385       0.00894886
  |                                  0.00189578       0.00894886       0.06491611
  ----------------------------------------------------------------------
  | Atom     3: H
  |   Hirshfeld charge        :      0.09805570
  |   Free atom volume        :     10.44207651
  |   Hirshfeld volume        :      7.37736699
  |   Hirshfeld dipole vector :      0.11166826       0.02850693       0.02110977
  |   Hirshfeld dipole moment :      0.11716684
  |   Hirshfeld second moments:      0.09500284      -0.01005984       0.00151734
  |                                 -0.01005984       0.08853034      -0.00936294
  |                                  0.00151734      -0.00936294       0.07127298
  ----------------------------------------------------------------------
  | Atom     4: O
  |   Hirshfeld charge        :     -0.28396860
  |   Free atom volume        :     23.95238533
  |   Hirshfeld volume        :     21.83826916
  |   Hirshfeld dipole vector :     -0.03056730       0.02198126       0.01842572
  |   Hirshfeld dipole moment :      0.04191709
  |   Hirshfeld second moments:      0.02871320       0.05818987      -0.00726373
  |                                  0.05818987       0.03206510       0.02612772
  |                                 -0.00726373       0.02612772       0.00164504
  ----------------------------------------------------------------------
  | Atom     5: H
  |   Hirshfeld charge        :      0.12932041
  |   Free atom volume        :     10.44207651
  |   Hirshfeld volume        :      6.99962696
  |   Hirshfeld dipole vector :      0.03826268       0.08985859       0.05858217
  |   Hirshfeld dipole moment :      0.11388797
  |   Hirshfeld second moments:      0.11178397       0.02184339      -0.00714566
  |                                  0.02184339       0.08511158       0.00042485
  |                                 -0.00714566       0.00042485       0.09687006
  ----------------------------------------------------------------------
  | Atom     6: H
  |   Hirshfeld charge        :      0.14026037
  |   Free atom volume        :     10.44207651
  |   Hirshfeld volume        :      6.57673840
  |   Hirshfeld dipole vector :     -0.10318812      -0.06351190       0.02084106
  |   Hirshfeld dipole moment :      0.12294673
  |   Hirshfeld second moments:      0.10116590       0.01367280       0.00060457
  |                                  0.01367280       0.11526850       0.01330854
  |                                  0.00060457       0.01330854       0.10595738
  ----------------------------------------------------------------------
  | Atom     7: O
  |   Hirshfeld charge        :     -0.16965890
  |   Free atom volume        :     23.95238533
  |   Hirshfeld volume        :     19.85793731
  |   Hirshfeld dipole vector :      0.02664936      -0.01076986      -0.01457905
  |   Hirshfeld dipole moment :      0.03222929
  |   Hirshfeld second moments:      0.05256822       0.02089222       0.02921831
  |                                  0.02089222       0.09676208       0.01152456
  |                                  0.02921831       0.01152456       0.11249756
  ----------------------------------------------------------------------
  | Atom     8: H
  |   Hirshfeld charge        :      0.17922658
  |   Free atom volume        :     10.44207651
  |   Hirshfeld volume        :      5.86554781
  |   Hirshfeld dipole vector :      0.06011305       0.09043467       0.04293860
  |   Hirshfeld dipole moment :      0.11677214
  |   Hirshfeld second moments:      0.12051232      -0.00022305       0.00676079
  |                                 -0.00022305       0.12602383      -0.00472992
  |                                  0.00676079      -0.00472992       0.13984180
  ----------------------------------------------------------------------
  | Atom     9: H
  |   Hirshfeld charge        :      0.17605080
  |   Free atom volume        :     10.44207651
  |   Hirshfeld volume        :      5.60965097
  |   Hirshfeld dipole vector :     -0.01932380       0.00874044      -0.12011328
  |   Hirshfeld dipole moment :      0.12197132
  |   Hirshfeld second moments:      0.12880866       0.01140308       0.00820655
  |                                  0.01140308       0.14259522       0.00420913
  |                                  0.00820655       0.00420913       0.13089313
  ----------------------------------------------------------------------
  | Atom    10: O
  |   Hirshfeld charge        :     -0.28256452
  |   Free atom volume        :     23.95238533
  |   Hirshfeld volume        :     21.64118224
  |   Hirshfeld dipole vector :     -0.00509992       0.04637250      -0.00586933
  |   Hirshfeld dipole moment :      0.04701986
  |   Hirshfeld second moments:      0.00402845      -0.01607503      -0.06298939
  |                                 -0.01607503       0.01947029       0.00357452
  |                                 -0.06298939       0.00357452       0.04194408
  ----------------------------------------------------------------------
  | Atom    11: H
  |   Hirshfeld charge        :      0.14519504
  |   Free atom volume        :     10.44207651
  |   Hirshfeld volume        :      6.11864565
  |   Hirshfeld dipole vector :     -0.06411418       0.08564034       0.06769568
  |   Hirshfeld dipole moment :      0.12660016
  |   Hirshfeld second moments:      0.11066718       0.00283481      -0.01707562
  |                                  0.00283481       0.11551807      -0.00849946
  |                                 -0.01707562      -0.00849946       0.12465432
  ----------------------------------------------------------------------
  | Atom    12: H
  |   Hirshfeld charge        :      0.14575656
  |   Free atom volume        :     10.44207651
  |   Hirshfeld volume        :      6.29752038
  |   Hirshfeld dipole vector :      0.05833554       0.05197277      -0.09141167
  |   Hirshfeld dipole moment :      0.12025098
  |   Hirshfeld second moments:      0.11023710      -0.01159405      -0.01322153
  |                                 -0.01159405       0.12050630       0.00716084
  |                                 -0.01322153       0.00716084       0.10933579
  ----------------------------------------------------------------------


------------------------------------------------------------------------------
  Final output of selected total energy values:

  The following output summarizes some interesting total energy values
  at the end of a run (AFTER all relaxation, molecular dynamics, etc.).

  | Total energy of the DFT / Hartree-Fock s.c.f. calculation      :          -8331.519727912 eV
  | Final zero-broadening corrected energy (caution - metals only) :          -8331.519727912 eV
  | For reference only, the value of 1 Hartree used in FHI-aims is :             27.211384500 eV

  Before relying on these values, please be sure to understand exactly which
  total energy value is referred to by a given number. Different objects may
  all carry the same name 'total energy'. Definitions:

  Total energy of the DFT / Hartree-Fock s.c.f. calculation:
  | Note that this energy does not include ANY quantities calculated after the
  | s.c.f. cycle, in particular not ANY RPA, MP2, etc. many-body perturbation terms.

  Final zero-broadening corrected energy:
  | For metallic systems only, a broadening of the occupation numbers at the Fermi
  | level can be extrapolated back to zero broadening by an electron-gas inspired
  | formula. For all systems that are not real metals, this value can be
  | meaningless and should be avoided.

------------------------------------------------------------------------------

------------------------------------------------------------
          Leaving FHI-aims.
          Date     :  20150727, Time     :  115617.844

          Computational steps:
          | Number of self-consistency cycles          :           16

          Detailed time accounting                     :  max(cpu_time)    wall_clock(cpu1)
          | Total time                                 :       22.225 s          22.238 s
          | Preparation time                           :        0.172 s           0.565 s
          | Grid partitioning                          :        0.111 s           0.111 s
          | Preloading free-atom quantities on grid    :        0.013 s           0.013 s
          | Free-atom superposition energy             :        0.046 s           0.046 s
          | Total time for integrations                :        9.178 s           9.180 s
          | Total time for solution of K.-S. equations :        0.611 s           0.608 s
          | Total time for density & force components  :        7.237 s           7.234 s
          | Total time for mixing                      :        0.160 s           0.165 s
          | Total time for Hartree multipole update    :        0.067 s           0.065 s
          | Total time for Hartree multipole sum       :        4.042 s           4.042 s
          | Total time for total energy evaluation     :        0.005 s           0.004 s
          | Total time for scaled ZORA corrections     :        0.000 s           0.000 s
          | Total time for TS (2009) vdW correction    :        0.034 s           0.035 s

          Have a nice day.
------------------------------------------------------------
