  MPI-parallelism will be employed.
------------------------------------------------------------
          Invoking FHI-aims ...
          Version 081213
          Compiled on 2013/08/29 at 17:41:06 on host generoso.

          When using FHI-aims, please cite the following reference:

          Volker Blum, Ralf Gehrke, Felix Hanke, Paula Havu,
          Ville Havu, Xinguo Ren, Karsten Reuter, and Matthias Scheffler,
          'Ab Initio Molecular Simulations with Numeric Atom-Centered Orbitals: FHI-aims',
          Computer Physics Communications 180, 2175-2196 (2009)

          For any questions about FHI-aims, please visit the aimsclub website
          with its forums and wiki. Contributions to both the forums and the
          wiki are warmly encouraged - they are for you, and everyone is welcome there.

------------------------------------------------------------

  Date     :  20150727, Time     :  121253.192
  Time zero on CPU 1             :   0.419930000000000E-01  s.
  Internal wall clock time zero  :           207231173.192  s.

  Using        8 parallel tasks.
  Task        0 on host gen60 reporting.
  Task        1 on host gen60 reporting.
  Task        2 on host gen60 reporting.
  Task        3 on host gen60 reporting.
  Task        4 on host gen60 reporting.
  Task        5 on host gen60 reporting.
  Task        6 on host gen60 reporting.
  Task        7 on host gen60 reporting.

  Performing system and environment tests:
  | Environment variable OMP_NUM_THREADS correctly set to 1.
  | Checking for scalapack...
  | No scalapack compiled in.

  Obtaining array dimensions for all initial allocations:
  
  -----------------------------------------------------------------------
  Parsing control.in (first pass over file, find array dimensions only).
  The contents of control.in will be repeated verbatim below
  unless switched off by setting 'verbatim_writeout .false.' .
  in the first line of control.in .
  -----------------------------------------------------------------------
  
  #########################################################################################
  #
  #  Volker Blum, FHI 2008 : Test run input file control.in
  #
  #########################################################################################
  #
  #  Physical model
  #
    xc                 rpbe
    spin               none
    relativistic       atomic_zora scalar
    charge             0.
   vdw_correction_hirshfeld
  #
  #  SCF convergence
  #
    occupation_type    gaussian 0.01
    mixer              pulay
      n_max_pulay        10
      charge_mix_param   0.1
    sc_accuracy_rho    5E-5
    sc_accuracy_eev    5E-3
    sc_accuracy_etot   5E-6
    sc_iter_limit      3000
  #
  #  Eigenvalue solver
  #
    KS_method          lapack
      empty_states       8
      basis_threshold    0.e-5
  #
  #  Efficiency
  #
  #   all previous settings are now default, except stratmann still
  #   undecided. Continue to handle stratmann with care, if at all.
  #
  #  partition_type stratmann
    partition_type rho_r2
  #  hartree_partition_type stratmann
  #
  #  Oprions for large clusters (100's of atoms: memory saving / better scaling)
  #
  # for periodic systems:
  #
    density_update_method orbital
    packed_matrix_format none
  #  k_grid 6 6 6
  #  output k_eigenvalue 1
  #  distributed_spline_storage .true.
  #
  #  Relaxation
  #
  #  relax_geometry   bfgs 5.e-3
    sc_accuracy_forces 5.E-4
    final_forces_cleaned .true.
  #
  #  Output options
  #
  #  output mulliken
    output Hirshfeld
  #  output dipole
  
  #harmonic_length_scale 0.001
  
  ################################################################################
  #
  #  FHI-aims code project
  #  VB, Fritz-Haber Institut, 2007
  #
  #  Suggested "safe" defaults for H atom (to be pasted into control.in file)
  #  Basis constructed for a non-relativistic H2 molecule using the
  #  PW-LDA functional.
  #
  ################################################################################
    species        H
  #     global species definitions
      nucleus             1
      cut_pot             4.0  2.0  1.0
      cut_free_atom       finite 8.0
      logarithmic         0.00010000 100.00  1.0123
      basis_dep_cutoff    1d-4  # 1d-4 is safe default - please check 5d-4 if you wish!
      radial_base         24 7.0
      radial_multiplier   2
      angular_grids       specified
        division   0.2783  110
        division   0.3822  194
        division   0.5626  302
  #      division   0.5922  434
  #      division   0.6227  590
  #      division   0.7206  770
        outer_grid  302
      l_hartree           4
  ################################################################################
  #
  #  Definition of "minimal" basis
  #
  ################################################################################
  #     valence basis states
      valence      1  s   1.
  #     ion occupancy
      ion_occ      1  s   0.5
  ################################################################################
  #
  #  Suggested additional basis functions. For production calculations,
  #  uncomment them one after another (the most important basis functions are
  #  listed first).
  #
  ################################################################################
  #  "First tier" - improvements: -1014.90 meV to -62.69 meV
       hydro 2 s 2.1
       hydro 2 p 3.5
  #  "Second tier" - improvements: -12.89 meV to -1.83 meV
       hydro 1 s 0.85
       hydro 2 p 3.7
       hydro 2 s 1.2
       hydro 3 d 7
  #  "Third tier" - improvements: -0.25 meV to -0.12 meV
  #     hydro 4 f 11.2
  #     hydro 3 p 4.8
  #     hydro 4 d 9
  #     hydro 3 s 3.2
  
  ################################################################################
  #
  #  FHI-aims code project
  #  VB, Fritz-Haber Institut, 2007
  #
  #  Suggested "safe" defaults for O atom (to be pasted into control.in file)
  #  All values have been tested for a non-relativistic, non-spinpolarized O2
  #  molecule using the PW-LDA functional. Validity for PBE is expected.
  #
  #  Constructed for dimers: 1.0 A, 1.208 A, 1.5 A, 2.0 A, 3.0 A
  #
  ################################################################################
    species        O
  #     global species definitions
      nucleus             8
      mass                15.9994
      l_hartree           4
      cut_pot             4.0  2.0  1.0
      cut_free_atom       finite 8.0
      basis_dep_cutoff    1d-4  # 1d-4 is safe default - please check 5d-4 if you wish!
      logarithmic         0.00010000 100.00  1.0123
      radial_base         36 7.0
      radial_multiplier   2
       angular_grids specified
        division   0.4087  110
        division   0.5181  194
        division   0.6184  302
  #      division   0.7315  434
  #      division   0.7934  590
  #      division   0.9656  770
  #      division   1.4041  974
  #      outer_grid 974
        outer_grid 302
  ################################################################################
  #
  #  Definition of "minimal" basis
  #
  ################################################################################
  #     valence basis states
      valence      2  s   2.
      valence      2  p   4.
  #     ion occupancy
      ion_occ      2  s   1.
      ion_occ      2  p   3.
  ################################################################################
  #
  #  Suggested additional basis functions. For production calculations,
  #  uncomment them one after another (the most important basis functions are
  #  listed first).
  #
  ################################################################################
  #  "First tier" - improvements: -699.05 meV to -159.38 meV
       hydro 2 p 1.8
       hydro 3 d 7.6
       hydro 3 s 6.4
  #  "Second tier" - improvements: -49.91 meV to -5.39 meV
       hydro 4 f 11.6
       hydro 3 p 6.2
       hydro 3 d 5.6
       hydro 5 g 17.6
       hydro 1 s 0.75
  #  "Third tier" - improvements: -2.83 meV to -0.50 meV
  #     ionic 2 p auto
  #     hydro 4 f 10.8
  #     hydro 4 d 4.7
  #     hydro 2 s 6.8
  #  "Fourth tier" - improvements: -0.40 meV to -0.12 meV
  #     hydro 3 p 5
  #     hydro 3 s 3.3
  #     hydro 5 g 15.6
  #     hydro 4 f 17.6
  #     hydro 4 d 14
  # Further basis functions - -0.08 meV and below
  #     hydro 3 s 2.1
  #     hydro 4 d 11.6
  #     hydro 3 p 16
  #     hydro 2 s 17.2
  
  
  -----------------------------------------------------------------------
  Completed first pass over input file control.in .
  -----------------------------------------------------------------------
  
  
  -----------------------------------------------------------------------
  Parsing geometry.in (first pass over file, find array dimensions only).
  The contents of geometry.in will be repeated verbatim below
  unless switched off by setting 'verbatim_writeout .false.' .
  in the first line of geometry.in .
  -----------------------------------------------------------------------
  
  atom      -4.053030000      0.065001000     -1.525160000  O
  atom      -4.566710000      0.974813000     -1.912820000  H
  atom      -3.067820000      0.330172000     -1.477310000  H
  atom      -4.581760000     -0.256435000      0.939478000  O
  atom      -4.349860000      0.471090000      1.504340000  H
  atom      -5.393870000     -0.726611000      1.228070000  H
  atom      -4.066610000      4.258280000     -0.900064000  O
  atom      -3.224110000      3.876870000     -0.569443000  H
  atom      -3.737450000      5.116530000     -1.322720000  H
  atom      -5.628340000      3.730740000      1.385610000  O
  atom      -6.090650000      4.418470000      1.860350000  H
  atom      -5.158540000      4.200260000      0.615875000  H
  
  -----------------------------------------------------------------------
  Completed first pass over input file geometry.in .
  -----------------------------------------------------------------------
  
 
  Basic array size parameters: 
  | Number of species                 :        2
  | Number of atoms                   :       12
  | Max. basis fn. angular momentum   :        4
  | Max. atomic/ionic basis occupied n:        2
  | Max. number of basis fn. types    :        2
  | Max. radial fns per species/type  :        8
  | Max. logarithmic grid size        :     1301
  | Max. radial integration grid size :       73
  | Max. angular integration grid size:      302
  | Max. angular grid division number :        8
  | Radial grid for Hartree potential :     1301
  | Number of spin channels           :        1

------------------------------------------------------------
          Reading file control.in.
------------------------------------------------------------
  XC: Using RPBE gradient-corrected functionals.
  Spin treatment: No spin polarisation.
  Scalar relativistic treatment of kinetic energy: on-site free-atom approximation to ZORA.
  Charge =   0.000000E+00: Neutral system requested explicitly.
  Using non-empirical van der Waals correction (Hirshfeld partitioning):
  Occupation type: Gaussian broadening, width =   0.100000E-01 eV.
  Using pulay charge density mixing.
  Pulay mixing - number of memorized iterations:   10
  Charge density mixing - mixing parameter:     0.1000
  Convergence accuracy of self-consistent charge density: 0.5000E-04
  Convergence accuracy of sum of eigenvalues: 0.5000E-02
  Convergence accuracy of total energy: 0.5000E-05
  Maximum number of s.-c. iterations  :  3000
  Kohn-Sham eigenvalues and eigenfunctions calculated by lapack diagonalisation (D&C).
  Number of empty states per atom:        8
  Threshold for basis singularities: 0.0000E+00
  Partition function in integrals calculations: rho / r^2
 Using packed matrix format           0
  Convergence accuracy of forces: 0.5000E-03
  Cleaning forces before final output.
  Hirshfeld charge analysis will be performed.
 
  Reading configuration options for species H                   .
  | Found nuclear charge :   1.0000
  | Found cutoff potl. onset [A], width [A], scale factor :    4.00000    2.00000    1.00000
  | Found cutoff specification for free atom: Cutoff potential begins at    8.00000 A.
  | Found logarithmic grid data [bohr] : 0.1000E-03 0.1000E+03 0.1012E+01
  | Threshold for basis-dependent cutoff potential is   0.100000E-03
  | Found data for basic radial integration grid :    24 points, outermost radius =    7.000 A
  | Found multiplier for basic radial grid :   2
  | Found angular grid specification: user-specified.
  | Specified grid contains     4 separate shells.
  | Check grid settings after all constraints further below.
  | Found l_max for Hartree potential  :   4
  | Found free-atom valence shell :  1 s   1.000
  | No ionic wave fns used. Skipping ion_occ.
  | Found hydrogenic basis function :  2 s   2.100
  | Found hydrogenic basis function :  2 p   3.500
  | Found hydrogenic basis function :  1 s   0.850
  | Found hydrogenic basis function :  2 p   3.700
  | Found hydrogenic basis function :  2 s   1.200
  | Found hydrogenic basis function :  3 d   7.000
  Species H                   : Missing cutoff potential type.
  Defaulting to exp(1/x)/(1-x)^2 type cutoff potential.
  Species H : On-site basis accuracy parameter (for Gram-Schmidt orthonormalisation) not specified.
  Using default value basis_acc =  0.1000000E-03.
  Species H                   : Using default innermost maximum threshold i_radial=  2 for radial functions.
  Species H                   : Basic radial grid will be enhanced according to radial_multiplier =   2, to contain    49 grid points.
 
  Reading configuration options for species O                   .
  | Found nuclear charge :   8.0000
  | Found atomic mass :    15.9994000000000      amu
  | Found l_max for Hartree potential  :   4
  | Found cutoff potl. onset [A], width [A], scale factor :    4.00000    2.00000    1.00000
  | Found cutoff specification for free atom: Cutoff potential begins at    8.00000 A.
  | Threshold for basis-dependent cutoff potential is   0.100000E-03
  | Found logarithmic grid data [bohr] : 0.1000E-03 0.1000E+03 0.1012E+01
  | Found data for basic radial integration grid :    36 points, outermost radius =    7.000 A
  | Found multiplier for basic radial grid :   2
  | Found angular grid specification: user-specified.
  | Specified grid contains     4 separate shells.
  | Check grid settings after all constraints further below.
  | Found free-atom valence shell :  2 s   2.000
  | Found free-atom valence shell :  2 p   4.000
  | No ionic wave fns used. Skipping ion_occ.
  | No ionic wave fns used. Skipping ion_occ.
  | Found hydrogenic basis function :  2 p   1.800
  | Found hydrogenic basis function :  3 d   7.600
  | Found hydrogenic basis function :  3 s   6.400
  | Found hydrogenic basis function :  4 f  11.600
  | Found hydrogenic basis function :  3 p   6.200
  | Found hydrogenic basis function :  3 d   5.600
  | Found hydrogenic basis function :  5 g  17.600
  | Found hydrogenic basis function :  1 s   0.750
  Species O                   : Missing cutoff potential type.
  Defaulting to exp(1/x)/(1-x)^2 type cutoff potential.
  Species O : On-site basis accuracy parameter (for Gram-Schmidt orthonormalisation) not specified.
  Using default value basis_acc =  0.1000000E-03.
  Species O                   : Using default innermost maximum threshold i_radial=  2 for radial functions.
  Species O                   : Basic radial grid will be enhanced according to radial_multiplier =   2, to contain    73 grid points.
 
  Finished reading input file 'control.in'. Consistency checks are next.
 
  Target number of points in a grid batch is not set. Defaulting to  100
  Method for grid partitioning is not set. Defaulting to parallel hash+maxmin partitioning.
  Batch size limit is not set. Defaulting to    200
  By default, will store active basis functions for each batch.
  If in need of memory, prune_basis_once .false. can be used to disable this option.
  communication_type for Hartree potential was not specified.
  Defaulting to calc_hartree .
  Pulay mixer: Number of initial linear mixing iterations not set.
  Defaulting to    0 iterations.
  Work space size for distributed Hartree potential not set.
  Defaulting to   0.200000E+03 MB.
  Algorithm-dependent basis array size parameters:
  | n_max_pulay                         :       10
  Geometry relaxation not requested: no relaxation will be performed.
  Handling of forces: Unphysical translation and rotation will be removed from forces.
  No accuracy limit for integral partition fn. given. Defaulting to 0.1000E-14.
  No threshold value for u(r) in integrations given. Defaulting to 0.1000E-05.
  No accuracy for occupation numbers given. Defaulting to 0.1000E-07.
  No threshold value for occupation numbers given. Defaulting to 0.0000E+00.
  No accuracy for fermi level given. Defaulting to 0.1000E-19.
  Maximum # of iterations to find E_F not set. Defaulting to  200.
  Will not use alltoall communication since running on < 1024 CPUs.
  Partitioning for Hartree potential was not defined. Using partition_type for integrals.
  | Reporting present value of keyword multip_moments_threshold  :       0.10000000E-09
  | This value may affect high angular momentum components of the Hartree potential in periodic systems.
  No q(lm)/r^(l+1) cutoff set for long-range Hartree potential.
  | Using default value of  0.100000E-09 .
  | Verify using the multipole_threshold keyword.
  Defaulting to new monopole extrapolation.
  Density update method: Loop over occupied states selected for charge density update.
------------------------------------------------------------


------------------------------------------------------------
          Reading geometry description geometry.in.
------------------------------------------------------------
  Input structure read successfully.
  The structure contains       12 atoms,  and a total of         40.000 electrons.

  Input geometry:
  | No unit cell requested.
  | Atomic structure:
  |       Atom                x [A]            y [A]            z [A]
  |    1: Species O             -4.053030         0.065001        -1.525160
  |    2: Species H             -4.566710         0.974813        -1.912820
  |    3: Species H             -3.067820         0.330172        -1.477310
  |    4: Species O             -4.581760        -0.256435         0.939478
  |    5: Species H             -4.349860         0.471090         1.504340
  |    6: Species H             -5.393870        -0.726611         1.228070
  |    7: Species O             -4.066610         4.258280        -0.900064
  |    8: Species H             -3.224110         3.876870        -0.569443
  |    9: Species H             -3.737450         5.116530        -1.322720
  |   10: Species O             -5.628340         3.730740         1.385610
  |   11: Species H             -6.090650         4.418470         1.860350
  |   12: Species H             -5.158540         4.200260         0.615875
  |

  | The smallest distance between any two atoms is         0.94981015 AA.
  |
  | The first atom of this pair is atom number                      4 .
  | The second atom of this pair is atom number                     5 .

  Structure-dependent array size parameters: 
  | Maximum number of distinct radial functions  :       18
  | Maximum number of basis functions            :      276
  | Number of Kohn-Sham states (occupied + empty):       68
------------------------------------------------------------

------------------------------------------------------------
          Preparing all fixed parts of the calculation.
------------------------------------------------------------
  Determining machine precision:
    2.225073858507201E-308
  Setting up grids for atomic and cluster calculations.

  Creating wave function, potential, and density for free atoms.

  Species: H

  List of occupied orbitals and eigenvalues:
    n    l              occ      energy [Ha]    energy [eV]
    1    0           1.0000        -0.241408        -6.5691


  Species: O

  List of occupied orbitals and eigenvalues:
    n    l              occ      energy [Ha]    energy [eV]
    1    0           2.0000       -18.944147      -515.4965
    2    0           2.0000        -0.883529       -24.0421
    2    1           4.0000        -0.330176        -8.9845

  Creating fixed part of basis set: Ionic, confined, hydrogenic.
 
  H                    hydrogenic:
 
  List of hydrogenic basis orbitals: 
    n    l      effective z      eigenvalue [eV]  inner max. [A]     outer max. [A]     outer radius [A]   
    2    0         2.100000       -14.9965           0.193241           1.317192           5.372934
    2    1         3.500000       -41.6672           0.602363           0.602363           4.056010
    1    0         0.850000        -9.8292           0.624864           0.624864           5.372934
    2    1         3.700000       -46.5653           0.573616           0.573616           3.909951
    2    0         1.200000        -4.5995           0.334977           2.228160           5.505921
    3    2         7.000000       -74.0753           0.680692           0.680692           3.769152
 
 
  O                    hydrogenic:
 
  List of hydrogenic basis orbitals: 
    n    l      effective z      eigenvalue [eV]  inner max. [A]     outer max. [A]     outer radius [A]   
    2    1         1.800000       -11.0118           1.178546           1.178546           5.432516
    3    2         7.600000       -87.3182           0.624117           0.624117           3.541422
    3    0         6.400000       -61.9209           0.061166           1.081887           4.306510
    4    3        11.600000      -114.4238           0.731621           0.731621           3.584982
    3    1         6.200000       -58.1113           0.255677           1.030255           4.306510
    3    2         5.600000       -47.4081           0.847222           0.847222           4.413102
    5    4        17.600000      -168.5799           0.749730           0.749730           3.372413
    1    0         0.750000        -7.6499           0.705275           0.705275           5.366508
 

  Adding cutoff potential to free-atom effective potential.
  Creating atomic-like basis functions for current effective potential.

  Species H                   :

  List of atomic basis orbitals and eigenvalues:
    n    l      energy [Ha]    energy [eV]    outer radius [A]
    1    0        -0.241374        -6.5681       5.372934


  Species O                   :

  List of atomic basis orbitals and eigenvalues:
    n    l      energy [Ha]    energy [eV]    outer radius [A]
    1    0       -18.944147      -515.4965       1.415745
    2    0        -0.883529       -24.0421       5.048305
    2    1        -0.330173        -8.9845       5.301302

  Assembling full basis from fixed parts.
  | Species H :   atomic orbital   1 s accepted.
  | Species H :    hydro orbital   2 s accepted.
  | Species H :    hydro orbital   1 s accepted.
  | Species H :    hydro orbital   2 s accepted.
  | Species H :    hydro orbital   2 p accepted.
  | Species H :    hydro orbital   2 p accepted.
  | Species H :    hydro orbital   3 d accepted.
  | Species O :   atomic orbital   1 s accepted.
  | Species O :    hydro orbital   3 s accepted.
  | Species O :   atomic orbital   2 s accepted.
  | Species O :    hydro orbital   1 s accepted.
  | Species O :    hydro orbital   3 p accepted.
  | Species O :   atomic orbital   2 p accepted.
  | Species O :    hydro orbital   2 p accepted.
  | Species O :    hydro orbital   3 d accepted.
  | Species O :    hydro orbital   3 d accepted.
  | Species O :    hydro orbital   4 f accepted.
  | Species O :    hydro orbital   5 g accepted.
 
  Basis size parameters after reduction:
  | Total number of radial functions:       18
  | Total number of basis functions :      276
 
  Testing on-site integration grid accuracy.
  |  Species  Function  <phi|h_atom|phi> (log., in eV)  <phi|h_atom|phi> (rad., in eV)
           1        1                 -6.5683835025                 -6.5684759159
           1        2                 13.3711789951                 13.3708738703
           1        3                 23.6590910787                 23.6532055418
           1        4                 16.2963827186                 16.1870710655 ***
           1        5                 28.7627214838                 28.7627215090
           1        6                 59.5965249172                 59.5965950857
           1        7                 60.2220506392                 60.2220503827
           2        8               -515.4964576505               -515.4964530710
           2        9                 15.3030791347                 15.3030722972
           2       10                -21.7296094581                -21.7296135470
           2       11                 14.2969371730                 14.2969701621
           2       12                 21.0679693190                 21.0679697493
           2       13                 -2.3833606469                 -2.3833613176
           2       14                 13.7067136422                 13.7066766629
           2       15                 45.8013116808                 45.8013116965
           2       16                 52.2309815402                 52.2309831494
           2       17                 85.4120732416                 85.4120732763
           2       18                142.1019167745                142.1019167817
 * Note: Onsite integrals marked "***" above are less accurate than
 * onsite_accuracy_threshold =    0.03000 eV. Usually, this is harmless.
 * When in doubt, tighten the "radial" and/or "radial_multiplier" flags to check.

  Preparing densities etc. for the partition functions (integrals / Hartree potential).

  Preparations completed.
  max(cpu_time)          :      0.173 s.
  Wall clock time (cpu1) :      0.509 s.
------------------------------------------------------------

------------------------------------------------------------
          Begin self-consistency loop: Initialization.

          Date     :  20150727, Time     :  121253.729
------------------------------------------------------------

  Initializing index lists of integration centers etc. from given atomic structure:
  | Number of centers in hartree potential         :        12
  | Number of centers in hartree multipole         :        12
  | Number of centers in electron density summation:        12
  | Number of centers in basis integrals           :        12
  | Number of centers in integrals                 :        12
  Partitioning the integration grid into batches with parallel hashing+maxmin method.
  | Number of batches:     1540
  | Maximal batch size:     180
  | Minimal batch size:      53
  | Average batch size:     102.187
  | Standard deviation of batch sizes:      27.954

  Integration load balanced across     8 MPI tasks.
  Work distribution over tasks is as follows:
  Task     0 has      19688 integration points.
  Task     1 has      19705 integration points.
  Task     2 has      19592 integration points.
  Task     3 has      19702 integration points.
  Task     4 has      19646 integration points.
  Task     5 has      19671 integration points.
  Task     6 has      19633 integration points.
  Task     7 has      19731 integration points.
  Initializing partition tables, free-atom densities, potentials, etc. across the integration grid (initialize_grid_storage).
  | Net number of integration points:   157368
  | of which are non-zero points    :   156825
  Obtaining max. number of non-zero basis functions in each batch (get_n_compute_maxes).
  | Maximal number of non-zero basis functions:      273 in task     0
  | Maximal number of non-zero basis functions:      274 in task     1
  | Maximal number of non-zero basis functions:      274 in task     2
  | Maximal number of non-zero basis functions:      273 in task     3
  | Maximal number of non-zero basis functions:      274 in task     4
  | Maximal number of non-zero basis functions:      273 in task     5
  | Maximal number of non-zero basis functions:      274 in task     6
  | Maximal number of non-zero basis functions:      272 in task     7
  Integrating Hamiltonian matrix: batch-based integration.
  Time summed over all CPUs for integration: real work        4.005 s, elapsed        4.113 s
  Integrating overlap matrix.
  Time summed over all CPUs for integration: real work        2.109 s, elapsed        2.163 s

  Updating Kohn-Sham eigenvalues, eigenvectors, occupation numbers, and Fermi level.
  Solving generalized eigenproblem
  Updating Kohn-Sham eigenvalues and eigenfunctions.
  Transforming overlap matrix and checking for singularities.
  Overlap matrix is nonsingular:
  | Lowest eigenvalue:  0.378340E-03
  Solving real generalised eigenvalue problem by standard LAPACK (fast)
  Determining occupation numbers for Kohn-Sham eigenstates.
  | Chemical potential (Fermi level) in eV                 : -.59244586E+01
  | Error in electron count due to remaining E_F inaccuracy: 0.00000000E+00
  | Maximum occupation number of highest empty state:  0.00E+00

  Writing Kohn-Sham eigenvalues.

  State    Occupation    Eigenvalue [Ha]    Eigenvalue [eV]
      1       2.00000         -19.051934         -518.42951
      2       2.00000         -19.044609         -518.23018
      3       2.00000         -19.042492         -518.17256
      4       2.00000         -19.019439         -517.54526
      5       2.00000          -1.098513          -29.89206
      6       2.00000          -1.092163          -29.71927
      7       2.00000          -1.083996          -29.49702
      8       2.00000          -1.043114          -28.38457
      9       2.00000          -0.644500          -17.53774
     10       2.00000          -0.623208          -16.95835
     11       2.00000          -0.604560          -16.45091
     12       2.00000          -0.569963          -15.50947
     13       2.00000          -0.515012          -14.01420
     14       2.00000          -0.505299          -13.74989
     15       2.00000          -0.497904          -13.54865
     16       2.00000          -0.474645          -12.91574
     17       2.00000          -0.438896          -11.94298
     18       2.00000          -0.433384          -11.79299
     19       2.00000          -0.429323          -11.68248
     20       2.00000          -0.402351          -10.94853
     21       0.00000          -0.097280           -2.64712
     22       0.00000          -0.069852           -1.90078
     23       0.00000          -0.059954           -1.63143
     24       0.00000          -0.040424           -1.10000
     25       0.00000          -0.025882           -0.70428
     26       0.00000          -0.006261           -0.17037
     27       0.00000           0.007234            0.19685
     28       0.00000           0.036047            0.98090
     29       0.00000           0.072790            1.98072
     30       0.00000           0.078607            2.13900
     31       0.00000           0.088068            2.39646
     32       0.00000           0.096270            2.61963
     33       0.00000           0.099639            2.71131
     34       0.00000           0.103208            2.80843
     35       0.00000           0.113990            3.10183
     36       0.00000           0.124055            3.37570
     37       0.00000           0.128817            3.50528
     38       0.00000           0.146000            3.97287
     39       0.00000           0.154910            4.21531
     40       0.00000           0.159539            4.34127
     41       0.00000           0.187933            5.11390
     42       0.00000           0.202922            5.52178
     43       0.00000           0.225215            6.12841
     44       0.00000           0.237848            6.47216
     45       0.00000           0.241645            6.57551
     46       0.00000           0.264820            7.20611
     47       0.00000           0.284204            7.73359
     48       0.00000           0.290461            7.90384
     49       0.00000           0.312032            8.49083
     50       0.00000           0.343488            9.34680
     51       0.00000           0.352376            9.58864
     52       0.00000           0.366204            9.96492
     53       0.00000           0.385963           10.50258
     54       0.00000           0.395953           10.77444
     55       0.00000           0.401390           10.92238
     56       0.00000           0.419550           11.41653
     57       0.00000           0.434014           11.81011
     58       0.00000           0.440027           11.97374
     59       0.00000           0.455995           12.40824
     60       0.00000           0.471938           12.84209
     61       0.00000           0.495094           13.47218
     62       0.00000           0.528222           14.37366
     63       0.00000           0.543119           14.77903
     64       0.00000           0.554728           15.09492
     65       0.00000           0.566452           15.41393
     66       0.00000           0.583423           15.87575
     67       0.00000           0.615134           16.73864
     68       0.00000           0.655511           17.83737

  Highest occupied state (VBM) at    -10.94853411 eV
  | Occupation number:      2.00000000

  Lowest unoccupied state (CBM) at    -2.64712368 eV
  | Occupation number:      0.00000000

  Overall HOMO-LUMO gap:      8.30141044 eV.
  Calculating total energy contributions from superposition of free atom densities.

  Total energy components:
  | Sum of eigenvalues            :        -173.23060957 Ha       -4713.84472409 eV
  | XC energy correction          :         -36.39108727 Ha        -990.25186818 eV
  | XC potential correction       :          46.48833994 Ha        1265.01209282 eV
  | Free-atom electrostatic energy:        -143.32833612 Ha       -3900.16246400 eV
  | Hartree energy correction     :           0.00000000 Ha           0.00000000 eV
  | van der Waals energy corr.    :           0.00000000 Ha           0.00000000 eV
  | Entropy correction            :           0.00000000 Ha           0.00000000 eV
  | ---------------------------
  | Total energy                  :        -306.46169303 Ha       -8339.24696346 eV
  | Total energy, T -> 0          :        -306.46169303 Ha       -8339.24696346 eV  <-- do not rely on this value for anything but (periodic) metals
  | Electronic free energy        :        -306.46169303 Ha       -8339.24696346 eV

  Derived energy quantities:
  | Kinetic energy                :         303.19449191 Ha        8250.34189754 eV
  | Electrostatic energy          :        -573.26509766 Ha      -15599.33699282 eV
  | Energy correction for multipole
  | error in Hartree potential    :           0.00000000 Ha           0.00000000 eV
  | Sum of eigenvalues per atom                           :        -392.82039367 eV
  | Total energy (T->0) per atom                          :        -694.93724695 eV  <-- do not rely on this value for anything but (periodic) metals
  | Electronic free energy per atom                       :        -694.93724695 eV
  Initialize hartree_potential_storage
  Max. number of atoms included in rho_multipole:           12

  End scf initialization - timings             :  max(cpu_time)    wall_clock(cpu1)
  | Time for scf. initialization               :        1.159 s           1.158 s
  | Boundary condition initialization          :        0.000 s           0.000 s
  | Integration                                :        0.787 s           0.787 s
  | Solution of K.-S. eqns.                    :        0.118 s           0.118 s
  | Grid partitioning                          :        0.105 s           0.105 s
  | Preloading free-atom quantities on grid    :        0.014 s           0.013 s
  | Free-atom superposition energy             :        0.046 s           0.047 s
  | Total energy evaluation                    :        0.001 s           0.000 s
------------------------------------------------------------

------------------------------------------------------------
          Begin self-consistency iteration #    1

  Date     :  20150727, Time     :  121254.887
------------------------------------------------------------
  Evaluating new KS density.
  Integration grid: deviation in total charge (<rho> - N_e) =  -7.105427E-15
  Pulay mixing of updated and previous charge densities.

  Evaluating partitioned Hartree potential by multipole expansion.
  | Analytical far-field extrapolation by fixed multipoles:
  | Hartree multipole sum: apparent total charge =  -0.146797E-05
  Summing up the Hartree potential.
  Time summed over all CPUs for potential: real work        1.653 s, elapsed        1.665 s
  | RMS charge density error from multipole expansion :   0.141879E-02

  Integrating Hamiltonian matrix: batch-based integration.
  Time summed over all CPUs for integration: real work        3.993 s, elapsed        4.091 s

  Updating Kohn-Sham eigenvalues, eigenvectors, occupation numbers, and Fermi level.
  Solving generalized eigenproblem
  Updating Kohn-Sham eigenvalues and eigenfunctions.
  Solving real generalised eigenvalue problem by standard LAPACK (fast)
  Determining occupation numbers for Kohn-Sham eigenstates.
  | Chemical potential (Fermi level) in eV                 : -.55826352E+01
  | Error in electron count due to remaining E_F inaccuracy: 0.00000000E+00
  | Maximum occupation number of highest empty state:  0.00E+00

  Writing Kohn-Sham eigenvalues.

  State    Occupation    Eigenvalue [Ha]    Eigenvalue [eV]
      1       2.00000         -18.974933         -516.33418
      2       2.00000         -18.965798         -516.08562
      3       2.00000         -18.962887         -516.00640
      4       2.00000         -18.941066         -515.41262
      5       2.00000          -1.057076          -28.76449
      6       2.00000          -1.053777          -28.67473
      7       2.00000          -1.046102          -28.46587
      8       2.00000          -1.001532          -27.25307
      9       2.00000          -0.605720          -16.48247
     10       2.00000          -0.588818          -16.02254
     11       2.00000          -0.576976          -15.70032
     12       2.00000          -0.535475          -14.57100
     13       2.00000          -0.481555          -13.10379
     14       2.00000          -0.460810          -12.53928
     15       2.00000          -0.458061          -12.46446
     16       2.00000          -0.432484          -11.76849
     17       2.00000          -0.398969          -10.85649
     18       2.00000          -0.392626          -10.68390
     19       2.00000          -0.386668          -10.52178
     20       2.00000          -0.357080           -9.71665
     21       0.00000          -0.088624           -2.41158
     22       0.00000          -0.061383           -1.67030
     23       0.00000          -0.049665           -1.35144
     24       0.00000          -0.032369           -0.88081
     25       0.00000          -0.017679           -0.48107
     26       0.00000           0.002448            0.06660
     27       0.00000           0.015419            0.41957
     28       0.00000           0.046415            1.26303
     29       0.00000           0.082152            2.23547
     30       0.00000           0.088288            2.40244
     31       0.00000           0.096336            2.62145
     32       0.00000           0.106154            2.88861
     33       0.00000           0.107323            2.92039
     34       0.00000           0.114014            3.10248
     35       0.00000           0.122590            3.33584
     36       0.00000           0.132530            3.60633
     37       0.00000           0.137515            3.74199
     38       0.00000           0.155796            4.23941
     39       0.00000           0.164968            4.48901
     40       0.00000           0.169159            4.60304
     41       0.00000           0.196882            5.35742
     42       0.00000           0.213451            5.80830
     43       0.00000           0.233899            6.36472
     44       0.00000           0.248118            6.75164
     45       0.00000           0.250052            6.80427
     46       0.00000           0.274315            7.46449
     47       0.00000           0.294637            8.01747
     48       0.00000           0.299925            8.16137
     49       0.00000           0.323534            8.80382
     50       0.00000           0.349252            9.50363
     51       0.00000           0.361195            9.82861
     52       0.00000           0.375112           10.20731
     53       0.00000           0.394856           10.74459
     54       0.00000           0.404082           10.99563
     55       0.00000           0.411899           11.20835
     56       0.00000           0.430544           11.71569
     57       0.00000           0.443623           12.07160
     58       0.00000           0.450554           12.26021
     59       0.00000           0.465153           12.65745
     60       0.00000           0.484147           13.17431
     61       0.00000           0.507151           13.80028
     62       0.00000           0.539519           14.68106
     63       0.00000           0.556897           15.15395
     64       0.00000           0.567764           15.44965
     65       0.00000           0.577936           15.72645
     66       0.00000           0.596997           16.24510
     67       0.00000           0.631346           17.17979
     68       0.00000           0.665085           18.09789

  Highest occupied state (VBM) at     -9.71665125 eV
  | Occupation number:      2.00000000

  Lowest unoccupied state (CBM) at    -2.41157989 eV
  | Occupation number:      0.00000000

  Overall HOMO-LUMO gap:      7.30507136 eV.

  Total energy components:
  | Sum of eigenvalues            :        -171.35682174 Ha       -4662.85636310 eV
  | XC energy correction          :         -36.58915134 Ha        -995.64146551 eV
  | XC potential correction       :          46.74808253 Ha        1272.08004846 eV
  | Free-atom electrostatic energy:        -143.32833612 Ha       -3900.16246400 eV
  | Hartree energy correction     :          -1.81236355 Ha         -49.31692150 eV
  | van der Waals energy corr.    :           0.00000000 Ha           0.00000000 eV
  | Entropy correction            :           0.00000000 Ha           0.00000000 eV
  | ---------------------------
  | Total energy                  :        -306.33859022 Ha       -8335.89716564 eV
  | Total energy, T -> 0          :        -306.33859022 Ha       -8335.89716564 eV  <-- do not rely on this value for anything but (periodic) metals
  | Electronic free energy        :        -306.33859022 Ha       -8335.89716564 eV

  Derived energy quantities:
  | Kinetic energy                :         304.36554507 Ha        8282.20787537 eV
  | Electrostatic energy          :        -574.11498395 Ha      -15622.46357551 eV
  | Energy correction for multipole
  | error in Hartree potential    :          -0.00007638 Ha          -0.00207833 eV
  | Sum of eigenvalues per atom                           :        -388.57136359 eV
  | Total energy (T->0) per atom                          :        -694.65809714 eV  <-- do not rely on this value for anything but (periodic) metals
  | Electronic free energy per atom                       :        -694.65809714 eV

  Self-consistency convergence accuracy:
  | Change of charge density      : 0.6031E+00
  | Change of sum of eigenvalues  : 0.5099E+02 eV
  | Change of total energy        : 0.3350E+01 eV

  End self-consistency iteration #     1       :  max(cpu_time)    wall_clock(cpu1)
  | Time for this iteration                    :        1.120 s           1.120 s
  | Charge density update                      :        0.360 s           0.360 s
  | Density mixing                             :        0.003 s           0.003 s
  | Hartree multipole update                   :        0.004 s           0.004 s
  | Hartree multipole summation                :        0.209 s           0.209 s
  | Integration                                :        0.513 s           0.513 s
  | Solution of K.-S. eqns.                    :        0.030 s           0.030 s
  | Total energy evaluation                    :        0.000 s           0.000 s
------------------------------------------------------------

------------------------------------------------------------
          Begin self-consistency iteration #    2

  Date     :  20150727, Time     :  121256.007
------------------------------------------------------------
  Evaluating new KS density.
  Integration grid: deviation in total charge (<rho> - N_e) =   2.131628E-14
  Pulay mixing of updated and previous charge densities.

  Evaluating partitioned Hartree potential by multipole expansion.
  | Analytical far-field extrapolation by fixed multipoles:
  | Hartree multipole sum: apparent total charge =  -0.400052E-05
  Summing up the Hartree potential.
  Time summed over all CPUs for potential: real work        1.653 s, elapsed        1.664 s
  | RMS charge density error from multipole expansion :   0.557523E-02

  Integrating Hamiltonian matrix: batch-based integration.
  Time summed over all CPUs for integration: real work        3.983 s, elapsed        4.086 s

  Updating Kohn-Sham eigenvalues, eigenvectors, occupation numbers, and Fermi level.
  Solving generalized eigenproblem
  Updating Kohn-Sham eigenvalues and eigenfunctions.
  Solving real generalised eigenvalue problem by standard LAPACK (fast)
  Determining occupation numbers for Kohn-Sham eigenstates.
  | Chemical potential (Fermi level) in eV                 : -.47756474E+01
  | Error in electron count due to remaining E_F inaccuracy: 0.00000000E+00
  | Maximum occupation number of highest empty state:  0.00E+00

  Highest occupied state (VBM) at     -6.90460160 eV
  | Occupation number:      2.00000000

  Lowest unoccupied state (CBM) at    -1.93554828 eV
  | Occupation number:      0.00000000

  Overall HOMO-LUMO gap:      4.96905332 eV.

  Total energy components:
  | Sum of eigenvalues            :        -167.09786587 Ha       -4546.96427730 eV
  | XC energy correction          :         -37.05924691 Ha       -1008.43341706 eV
  | XC potential correction       :          47.36418294 Ha        1288.84499343 eV
  | Free-atom electrostatic energy:        -143.32833612 Ha       -3900.16246400 eV
  | Hartree energy correction     :          -6.07993163 Ha        -165.44335729 eV
  | van der Waals energy corr.    :           0.00000000 Ha           0.00000000 eV
  | Entropy correction            :           0.00000000 Ha           0.00000000 eV
  | ---------------------------
  | Total energy                  :        -306.20119760 Ha       -8332.15852222 eV
  | Total energy, T -> 0          :        -306.20119760 Ha       -8332.15852222 eV  <-- do not rely on this value for anything but (periodic) metals
  | Electronic free energy        :        -306.20119760 Ha       -8332.15852222 eV

  Derived energy quantities:
  | Kinetic energy                :         306.61975163 Ha        8343.54795678 eV
  | Electrostatic energy          :        -575.76170231 Ha      -15667.27306194 eV
  | Energy correction for multipole
  | error in Hartree potential    :          -0.00083507 Ha          -0.02272345 eV
  | Sum of eigenvalues per atom                           :        -378.91368978 eV
  | Total energy (T->0) per atom                          :        -694.34654352 eV  <-- do not rely on this value for anything but (periodic) metals
  | Electronic free energy per atom                       :        -694.34654352 eV

  Self-consistency convergence accuracy:
  | Change of charge density      : 0.4543E+00
  | Change of sum of eigenvalues  : 0.1159E+03 eV
  | Change of total energy        : 0.3739E+01 eV

  End self-consistency iteration #     2       :  max(cpu_time)    wall_clock(cpu1)
  | Time for this iteration                    :        1.114 s           1.115 s
  | Charge density update                      :        0.354 s           0.355 s
  | Density mixing                             :        0.005 s           0.004 s
  | Hartree multipole update                   :        0.004 s           0.004 s
  | Hartree multipole summation                :        0.209 s           0.209 s
  | Integration                                :        0.512 s           0.512 s
  | Solution of K.-S. eqns.                    :        0.030 s           0.030 s
  | Total energy evaluation                    :        0.000 s           0.001 s
------------------------------------------------------------

------------------------------------------------------------
          Begin self-consistency iteration #    3

  Date     :  20150727, Time     :  121257.122
------------------------------------------------------------
  Evaluating new KS density.
  Integration grid: deviation in total charge (<rho> - N_e) =   1.421085E-14
  Pulay mixing of updated and previous charge densities.

  Evaluating partitioned Hartree potential by multipole expansion.
  | Analytical far-field extrapolation by fixed multipoles:
  | Hartree multipole sum: apparent total charge =  -0.328183E-05
  Summing up the Hartree potential.
  Time summed over all CPUs for potential: real work        1.653 s, elapsed        1.665 s
  | RMS charge density error from multipole expansion :   0.115584E-01

  Integrating Hamiltonian matrix: batch-based integration.
  Time summed over all CPUs for integration: real work        3.988 s, elapsed        4.097 s

  Updating Kohn-Sham eigenvalues, eigenvectors, occupation numbers, and Fermi level.
  Solving generalized eigenproblem
  Updating Kohn-Sham eigenvalues and eigenfunctions.
  Solving real generalised eigenvalue problem by standard LAPACK (fast)
  Determining occupation numbers for Kohn-Sham eigenstates.
  | Chemical potential (Fermi level) in eV                 : -.46057377E+01
  | Error in electron count due to remaining E_F inaccuracy: 0.00000000E+00
  | Maximum occupation number of highest empty state:  0.00E+00

  Highest occupied state (VBM) at     -6.90235622 eV
  | Occupation number:      2.00000000

  Lowest unoccupied state (CBM) at    -1.86382347 eV
  | Occupation number:      0.00000000

  Overall HOMO-LUMO gap:      5.03853275 eV.

  Total energy components:
  | Sum of eigenvalues            :        -167.31278764 Ha       -4552.81259613 eV
  | XC energy correction          :         -37.03293397 Ha       -1007.71740535 eV
  | XC potential correction       :          47.32636974 Ha        1287.81604386 eV
  | Free-atom electrostatic energy:        -143.32833612 Ha       -3900.16246400 eV
  | Hartree energy correction     :          -5.84964912 Ha        -159.17705132 eV
  | van der Waals energy corr.    :           0.00000000 Ha           0.00000000 eV
  | Entropy correction            :           0.00000000 Ha           0.00000000 eV
  | ---------------------------
  | Total energy                  :        -306.19733711 Ha       -8332.05347294 eV
  | Total energy, T -> 0          :        -306.19733711 Ha       -8332.05347294 eV  <-- do not rely on this value for anything but (periodic) metals
  | Electronic free energy        :        -306.19733711 Ha       -8332.05347294 eV

  Derived energy quantities:
  | Kinetic energy                :         304.92523267 Ha        8297.43774984 eV
  | Electrostatic energy          :        -574.08963581 Ha      -15621.77381743 eV
  | Energy correction for multipole
  | error in Hartree potential    :          -0.00408250 Ha          -0.11109038 eV
  | Sum of eigenvalues per atom                           :        -379.40104968 eV
  | Total energy (T->0) per atom                          :        -694.33778941 eV  <-- do not rely on this value for anything but (periodic) metals
  | Electronic free energy per atom                       :        -694.33778941 eV

  Self-consistency convergence accuracy:
  | Change of charge density      : 0.2343E+00
  | Change of sum of eigenvalues  : -.5848E+01 eV
  | Change of total energy        : 0.1050E+00 eV

  End self-consistency iteration #     3       :  max(cpu_time)    wall_clock(cpu1)
  | Time for this iteration                    :        1.115 s           1.115 s
  | Charge density update                      :        0.352 s           0.352 s
  | Density mixing                             :        0.006 s           0.006 s
  | Hartree multipole update                   :        0.004 s           0.004 s
  | Hartree multipole summation                :        0.209 s           0.209 s
  | Integration                                :        0.513 s           0.513 s
  | Solution of K.-S. eqns.                    :        0.031 s           0.031 s
  | Total energy evaluation                    :        0.000 s           0.000 s
------------------------------------------------------------

------------------------------------------------------------
          Begin self-consistency iteration #    4

  Date     :  20150727, Time     :  121258.237
------------------------------------------------------------
  Evaluating new KS density.
  Integration grid: deviation in total charge (<rho> - N_e) =   1.421085E-14
  Pulay mixing of updated and previous charge densities.

  Evaluating partitioned Hartree potential by multipole expansion.
  | Analytical far-field extrapolation by fixed multipoles:
  | Hartree multipole sum: apparent total charge =  -0.391234E-05
  Summing up the Hartree potential.
  Time summed over all CPUs for potential: real work        1.652 s, elapsed        1.664 s
  | RMS charge density error from multipole expansion :   0.148603E-01

  Integrating Hamiltonian matrix: batch-based integration.
  Time summed over all CPUs for integration: real work        3.976 s, elapsed        4.079 s

  Updating Kohn-Sham eigenvalues, eigenvectors, occupation numbers, and Fermi level.
  Solving generalized eigenproblem
  Updating Kohn-Sham eigenvalues and eigenfunctions.
  Solving real generalised eigenvalue problem by standard LAPACK (fast)
  Determining occupation numbers for Kohn-Sham eigenstates.
  | Chemical potential (Fermi level) in eV                 : -.42570466E+01
  | Error in electron count due to remaining E_F inaccuracy: 0.00000000E+00
  | Maximum occupation number of highest empty state:  0.00E+00

  Highest occupied state (VBM) at     -5.86744942 eV
  | Occupation number:      2.00000000

  Lowest unoccupied state (CBM) at    -1.70898651 eV
  | Occupation number:      0.00000000

  Overall HOMO-LUMO gap:      4.15846291 eV.

  Total energy components:
  | Sum of eigenvalues            :        -165.91809602 Ha       -4514.86110620 eV
  | XC energy correction          :         -37.20200806 Ha       -1012.31814539 eV
  | XC potential correction       :          47.54748184 Ha        1293.83281034 eV
  | Free-atom electrostatic energy:        -143.32833612 Ha       -3900.16246400 eV
  | Hartree energy correction     :          -7.28546666 Ha        -198.24763459 eV
  | van der Waals energy corr.    :           0.00000000 Ha           0.00000000 eV
  | Entropy correction            :           0.00000000 Ha           0.00000000 eV
  | ---------------------------
  | Total energy                  :        -306.18642502 Ha       -8331.75653984 eV
  | Total energy, T -> 0          :        -306.18642502 Ha       -8331.75653984 eV  <-- do not rely on this value for anything but (periodic) metals
  | Electronic free energy        :        -306.18642502 Ha       -8331.75653984 eV

  Derived energy quantities:
  | Kinetic energy                :         305.14632314 Ha        8303.45392765 eV
  | Electrostatic energy          :        -574.13074010 Ha      -15622.89232210 eV
  | Energy correction for multipole
  | error in Hartree potential    :          -0.00538700 Ha          -0.14658774 eV
  | Sum of eigenvalues per atom                           :        -376.23842552 eV
  | Total energy (T->0) per atom                          :        -694.31304499 eV  <-- do not rely on this value for anything but (periodic) metals
  | Electronic free energy per atom                       :        -694.31304499 eV

  Self-consistency convergence accuracy:
  | Change of charge density      : 0.1319E+00
  | Change of sum of eigenvalues  : 0.3795E+02 eV
  | Change of total energy        : 0.2969E+00 eV

  End self-consistency iteration #     4       :  max(cpu_time)    wall_clock(cpu1)
  | Time for this iteration                    :        1.115 s           1.115 s
  | Charge density update                      :        0.354 s           0.353 s
  | Density mixing                             :        0.006 s           0.006 s
  | Hartree multipole update                   :        0.004 s           0.004 s
  | Hartree multipole summation                :        0.209 s           0.209 s
  | Integration                                :        0.511 s           0.511 s
  | Solution of K.-S. eqns.                    :        0.031 s           0.030 s
  | Total energy evaluation                    :        0.000 s           0.001 s
------------------------------------------------------------

------------------------------------------------------------
          Begin self-consistency iteration #    5

  Date     :  20150727, Time     :  121259.352
------------------------------------------------------------
  Evaluating new KS density.
  Integration grid: deviation in total charge (<rho> - N_e) =   0.000000E+00
  Pulay mixing of updated and previous charge densities.

  Evaluating partitioned Hartree potential by multipole expansion.
  | Analytical far-field extrapolation by fixed multipoles:
  | Hartree multipole sum: apparent total charge =  -0.383305E-05
  Summing up the Hartree potential.
  Time summed over all CPUs for potential: real work        1.652 s, elapsed        1.664 s
  | RMS charge density error from multipole expansion :   0.154376E-01

  Integrating Hamiltonian matrix: batch-based integration.
  Time summed over all CPUs for integration: real work        3.971 s, elapsed        4.072 s

  Updating Kohn-Sham eigenvalues, eigenvectors, occupation numbers, and Fermi level.
  Solving generalized eigenproblem
  Updating Kohn-Sham eigenvalues and eigenfunctions.
  Solving real generalised eigenvalue problem by standard LAPACK (fast)
  Determining occupation numbers for Kohn-Sham eigenstates.
  | Chemical potential (Fermi level) in eV                 : -.42372235E+01
  | Error in electron count due to remaining E_F inaccuracy: 0.00000000E+00
  | Maximum occupation number of highest empty state:  0.00E+00

  Highest occupied state (VBM) at     -5.70416206 eV
  | Occupation number:      2.00000000

  Lowest unoccupied state (CBM) at    -1.69942805 eV
  | Occupation number:      0.00000000

  Overall HOMO-LUMO gap:      4.00473402 eV.

  Total energy components:
  | Sum of eigenvalues            :        -165.84019562 Ha       -4512.74132860 eV
  | XC energy correction          :         -37.21316415 Ha       -1012.62171801 eV
  | XC potential correction       :          47.56173471 Ha        1294.22065061 eV
  | Free-atom electrostatic energy:        -143.32833612 Ha       -3900.16246400 eV
  | Hartree energy correction     :          -7.36614797 Ha        -200.44308465 eV
  | van der Waals energy corr.    :           0.00000000 Ha           0.00000000 eV
  | Entropy correction            :           0.00000000 Ha           0.00000000 eV
  | ---------------------------
  | Total energy                  :        -306.18610915 Ha       -8331.74794465 eV
  | Total energy, T -> 0          :        -306.18610915 Ha       -8331.74794465 eV  <-- do not rely on this value for anything but (periodic) metals
  | Electronic free energy        :        -306.18610915 Ha       -8331.74794465 eV

  Derived energy quantities:
  | Kinetic energy                :         305.14846797 Ha        8303.51229150 eV
  | Electrostatic energy          :        -574.12141297 Ha      -15622.63851813 eV
  | Energy correction for multipole
  | error in Hartree potential    :          -0.00550736 Ha          -0.14986280 eV
  | Sum of eigenvalues per atom                           :        -376.06177738 eV
  | Total energy (T->0) per atom                          :        -694.31232872 eV  <-- do not rely on this value for anything but (periodic) metals
  | Electronic free energy per atom                       :        -694.31232872 eV

  Self-consistency convergence accuracy:
  | Change of charge density      : 0.3217E-01
  | Change of sum of eigenvalues  : 0.2120E+01 eV
  | Change of total energy        : 0.8595E-02 eV

  End self-consistency iteration #     5       :  max(cpu_time)    wall_clock(cpu1)
  | Time for this iteration                    :        1.116 s           1.115 s
  | Charge density update                      :        0.354 s           0.354 s
  | Density mixing                             :        0.008 s           0.007 s
  | Hartree multipole update                   :        0.004 s           0.005 s
  | Hartree multipole summation                :        0.209 s           0.208 s
  | Integration                                :        0.510 s           0.510 s
  | Solution of K.-S. eqns.                    :        0.030 s           0.031 s
  | Total energy evaluation                    :        0.000 s           0.000 s
------------------------------------------------------------

------------------------------------------------------------
          Begin self-consistency iteration #    6

  Date     :  20150727, Time     :  121300.468
------------------------------------------------------------
  Evaluating new KS density.
  Integration grid: deviation in total charge (<rho> - N_e) =   1.421085E-14
  Pulay mixing of updated and previous charge densities.

  Evaluating partitioned Hartree potential by multipole expansion.
  | Analytical far-field extrapolation by fixed multipoles:
  | Hartree multipole sum: apparent total charge =  -0.384807E-05
  Summing up the Hartree potential.
  Time summed over all CPUs for potential: real work        1.653 s, elapsed        1.666 s
  | RMS charge density error from multipole expansion :   0.156903E-01

  Integrating Hamiltonian matrix: batch-based integration.
  Time summed over all CPUs for integration: real work        3.973 s, elapsed        4.075 s

  Updating Kohn-Sham eigenvalues, eigenvectors, occupation numbers, and Fermi level.
  Solving generalized eigenproblem
  Updating Kohn-Sham eigenvalues and eigenfunctions.
  Solving real generalised eigenvalue problem by standard LAPACK (fast)
  Determining occupation numbers for Kohn-Sham eigenstates.
  | Chemical potential (Fermi level) in eV                 : -.42151239E+01
  | Error in electron count due to remaining E_F inaccuracy: 0.00000000E+00
  | Maximum occupation number of highest empty state:  0.00E+00

  Highest occupied state (VBM) at     -5.66190005 eV
  | Occupation number:      2.00000000

  Lowest unoccupied state (CBM) at    -1.68820817 eV
  | Occupation number:      0.00000000

  Overall HOMO-LUMO gap:      3.97369188 eV.

  Total energy components:
  | Sum of eigenvalues            :        -165.76910728 Ha       -4510.80691647 eV
  | XC energy correction          :         -37.22236822 Ha       -1012.87217365 eV
  | XC potential correction       :          47.57371639 Ha        1294.54668870 eV
  | Free-atom electrostatic energy:        -143.32833612 Ha       -3900.16246400 eV
  | Hartree energy correction     :          -7.44010131 Ha        -202.45545756 eV
  | van der Waals energy corr.    :           0.00000000 Ha           0.00000000 eV
  | Entropy correction            :           0.00000000 Ha           0.00000000 eV
  | ---------------------------
  | Total energy                  :        -306.18619655 Ha       -8331.75032298 eV
  | Total energy, T -> 0          :        -306.18619655 Ha       -8331.75032298 eV  <-- do not rely on this value for anything but (periodic) metals
  | Electronic free energy        :        -306.18619655 Ha       -8331.75032298 eV

  Derived energy quantities:
  | Kinetic energy                :         305.15377909 Ha        8303.65681432 eV
  | Electrostatic energy          :        -574.11760742 Ha      -15622.53496366 eV
  | Energy correction for multipole
  | error in Hartree potential    :          -0.00559326 Ha          -0.15220037 eV
  | Sum of eigenvalues per atom                           :        -375.90057637 eV
  | Total energy (T->0) per atom                          :        -694.31252692 eV  <-- do not rely on this value for anything but (periodic) metals
  | Electronic free energy per atom                       :        -694.31252692 eV

  Self-consistency convergence accuracy:
  | Change of charge density      : 0.8639E-02
  | Change of sum of eigenvalues  : 0.1934E+01 eV
  | Change of total energy        : -.2378E-02 eV

  End self-consistency iteration #     6       :  max(cpu_time)    wall_clock(cpu1)
  | Time for this iteration                    :        1.118 s           1.117 s
  | Charge density update                      :        0.354 s           0.354 s
  | Density mixing                             :        0.009 s           0.009 s
  | Hartree multipole update                   :        0.004 s           0.004 s
  | Hartree multipole summation                :        0.209 s           0.209 s
  | Integration                                :        0.511 s           0.510 s
  | Solution of K.-S. eqns.                    :        0.030 s           0.031 s
  | Total energy evaluation                    :        0.001 s           0.000 s
------------------------------------------------------------

------------------------------------------------------------
          Begin self-consistency iteration #    7

  Date     :  20150727, Time     :  121301.585
------------------------------------------------------------
  Evaluating new KS density.
  Integration grid: deviation in total charge (<rho> - N_e) =   1.421085E-14
  Pulay mixing of updated and previous charge densities.

  Evaluating partitioned Hartree potential by multipole expansion.
  | Analytical far-field extrapolation by fixed multipoles:
  | Hartree multipole sum: apparent total charge =  -0.362133E-05
  Summing up the Hartree potential.
  Time summed over all CPUs for potential: real work        1.664 s, elapsed        1.700 s
  | RMS charge density error from multipole expansion :   0.156407E-01

  Integrating Hamiltonian matrix: batch-based integration.
  Time summed over all CPUs for integration: real work        3.979 s, elapsed        4.075 s

  Updating Kohn-Sham eigenvalues, eigenvectors, occupation numbers, and Fermi level.
  Solving generalized eigenproblem
  Updating Kohn-Sham eigenvalues and eigenfunctions.
  Solving real generalised eigenvalue problem by standard LAPACK (fast)
  Determining occupation numbers for Kohn-Sham eigenstates.
  | Chemical potential (Fermi level) in eV                 : -.42656395E+01
  | Error in electron count due to remaining E_F inaccuracy: 0.00000000E+00
  | Maximum occupation number of highest empty state:  0.00E+00

  Highest occupied state (VBM) at     -5.77360279 eV
  | Occupation number:      2.00000000

  Lowest unoccupied state (CBM) at    -1.71028763 eV
  | Occupation number:      0.00000000

  Overall HOMO-LUMO gap:      4.06331517 eV.

  Total energy components:
  | Sum of eigenvalues            :        -165.91413469 Ha       -4514.75331299 eV
  | XC energy correction          :         -37.20566467 Ha       -1012.41764696 eV
  | XC potential correction       :          47.55138985 Ha        1293.93915260 eV
  | Free-atom electrostatic energy:        -143.32833612 Ha       -3900.16246400 eV
  | Hartree energy correction     :          -7.28933272 Ha        -198.35283532 eV
  | van der Waals energy corr.    :           0.00000000 Ha           0.00000000 eV
  | Entropy correction            :           0.00000000 Ha           0.00000000 eV
  | ---------------------------
  | Total energy                  :        -306.18607835 Ha       -8331.74710666 eV
  | Total energy, T -> 0          :        -306.18607835 Ha       -8331.74710666 eV  <-- do not rely on this value for anything but (periodic) metals
  | Electronic free energy        :        -306.18607835 Ha       -8331.74710666 eV

  Derived energy quantities:
  | Kinetic energy                :         305.20097401 Ha        8304.94105352 eV
  | Electrostatic energy          :        -574.18138769 Ha      -15624.27051322 eV
  | Energy correction for multipole
  | error in Hartree potential    :          -0.00536255 Ha          -0.14592247 eV
  | Sum of eigenvalues per atom                           :        -376.22944275 eV
  | Total energy (T->0) per atom                          :        -694.31225889 eV  <-- do not rely on this value for anything but (periodic) metals
  | Electronic free energy per atom                       :        -694.31225889 eV

  Self-consistency convergence accuracy:
  | Change of charge density      : 0.1054E-01
  | Change of sum of eigenvalues  : -.3946E+01 eV
  | Change of total energy        : 0.3216E-02 eV

  End self-consistency iteration #     7       :  max(cpu_time)    wall_clock(cpu1)
  | Time for this iteration                    :        1.131 s           1.131 s
  | Charge density update                      :        0.361 s           0.361 s
  | Density mixing                             :        0.009 s           0.010 s
  | Hartree multipole update                   :        0.004 s           0.004 s
  | Hartree multipole summation                :        0.215 s           0.215 s
  | Integration                                :        0.510 s           0.510 s
  | Solution of K.-S. eqns.                    :        0.031 s           0.031 s
  | Total energy evaluation                    :        0.000 s           0.000 s
------------------------------------------------------------

------------------------------------------------------------
          Begin self-consistency iteration #    8

  Date     :  20150727, Time     :  121302.717
------------------------------------------------------------
  Evaluating new KS density.
  Integration grid: deviation in total charge (<rho> - N_e) =   1.421085E-14
  Pulay mixing of updated and previous charge densities.

  Evaluating partitioned Hartree potential by multipole expansion.
  | Analytical far-field extrapolation by fixed multipoles:
  | Hartree multipole sum: apparent total charge =  -0.362517E-05
  Summing up the Hartree potential.
  Time summed over all CPUs for potential: real work        1.652 s, elapsed        1.664 s
  | RMS charge density error from multipole expansion :   0.156715E-01

  Integrating Hamiltonian matrix: batch-based integration.
  Time summed over all CPUs for integration: real work        3.977 s, elapsed        4.067 s

  Updating Kohn-Sham eigenvalues, eigenvectors, occupation numbers, and Fermi level.
  Solving generalized eigenproblem
  Updating Kohn-Sham eigenvalues and eigenfunctions.
  Solving real generalised eigenvalue problem by standard LAPACK (fast)
  Determining occupation numbers for Kohn-Sham eigenstates.
  | Chemical potential (Fermi level) in eV                 : -.42627757E+01
  | Error in electron count due to remaining E_F inaccuracy: 0.00000000E+00
  | Maximum occupation number of highest empty state:  0.00E+00

  Highest occupied state (VBM) at     -5.76251990 eV
  | Occupation number:      2.00000000

  Lowest unoccupied state (CBM) at    -1.70908618 eV
  | Occupation number:      0.00000000

  Overall HOMO-LUMO gap:      4.05343371 eV.

  Total energy components:
  | Sum of eigenvalues            :        -165.90380256 Ha       -4514.47216156 eV
  | XC energy correction          :         -37.20690927 Ha       -1012.45151407 eV
  | XC potential correction       :          47.55301864 Ha        1293.98347435 eV
  | Free-atom electrostatic energy:        -143.32833612 Ha       -3900.16246400 eV
  | Hartree energy correction     :          -7.30004912 Ha        -198.64444360 eV
  | van der Waals energy corr.    :           0.00000000 Ha           0.00000000 eV
  | Entropy correction            :           0.00000000 Ha           0.00000000 eV
  | ---------------------------
  | Total energy                  :        -306.18607844 Ha       -8331.74710888 eV
  | Total energy, T -> 0          :        -306.18607844 Ha       -8331.74710888 eV  <-- do not rely on this value for anything but (periodic) metals
  | Electronic free energy        :        -306.18607844 Ha       -8331.74710888 eV

  Derived energy quantities:
  | Kinetic energy                :         305.20071401 Ha        8304.93397848 eV
  | Electrostatic energy          :        -574.17988318 Ha      -15624.22957328 eV
  | Energy correction for multipole
  | error in Hartree potential    :          -0.00537548 Ha          -0.14627435 eV
  | Sum of eigenvalues per atom                           :        -376.20601346 eV
  | Total energy (T->0) per atom                          :        -694.31225907 eV  <-- do not rely on this value for anything but (periodic) metals
  | Electronic free energy per atom                       :        -694.31225907 eV

  Self-consistency convergence accuracy:
  | Change of charge density      : 0.1500E-02
  | Change of sum of eigenvalues  : 0.2812E+00 eV
  | Change of total energy        : -.2217E-05 eV

  End self-consistency iteration #     8       :  max(cpu_time)    wall_clock(cpu1)
  | Time for this iteration                    :        1.119 s           1.118 s
  | Charge density update                      :        0.355 s           0.354 s
  | Density mixing                             :        0.010 s           0.010 s
  | Hartree multipole update                   :        0.004 s           0.004 s
  | Hartree multipole summation                :        0.208 s           0.208 s
  | Integration                                :        0.510 s           0.510 s
  | Solution of K.-S. eqns.                    :        0.030 s           0.030 s
  | Total energy evaluation                    :        0.001 s           0.000 s
------------------------------------------------------------

------------------------------------------------------------
          Begin self-consistency iteration #    9

  Date     :  20150727, Time     :  121303.835
------------------------------------------------------------
  Evaluating new KS density.
  Integration grid: deviation in total charge (<rho> - N_e) =   0.000000E+00
  Pulay mixing of updated and previous charge densities.

  Evaluating partitioned Hartree potential by multipole expansion.
  | Analytical far-field extrapolation by fixed multipoles:
  | Hartree multipole sum: apparent total charge =  -0.362546E-05
  Summing up the Hartree potential.
  Time summed over all CPUs for potential: real work        1.652 s, elapsed        1.664 s
  | RMS charge density error from multipole expansion :   0.156816E-01

  Integrating Hamiltonian matrix: batch-based integration.
  Time summed over all CPUs for integration: real work        3.978 s, elapsed        4.080 s

  Updating Kohn-Sham eigenvalues, eigenvectors, occupation numbers, and Fermi level.
  Solving generalized eigenproblem
  Updating Kohn-Sham eigenvalues and eigenfunctions.
  Solving real generalised eigenvalue problem by standard LAPACK (fast)
  Determining occupation numbers for Kohn-Sham eigenstates.
  | Chemical potential (Fermi level) in eV                 : -.42616048E+01
  | Error in electron count due to remaining E_F inaccuracy: 0.00000000E+00
  | Maximum occupation number of highest empty state:  0.00E+00

  Highest occupied state (VBM) at     -5.75999265 eV
  | Occupation number:      2.00000000

  Lowest unoccupied state (CBM) at    -1.70867429 eV
  | Occupation number:      0.00000000

  Overall HOMO-LUMO gap:      4.05131836 eV.

  Total energy components:
  | Sum of eigenvalues            :        -165.89828596 Ha       -4514.32204707 eV
  | XC energy correction          :         -37.20750551 Ha       -1012.46773881 eV
  | XC potential correction       :          47.55379924 Ha        1294.00471562 eV
  | Free-atom electrostatic energy:        -143.32833612 Ha       -3900.16246400 eV
  | Hartree energy correction     :          -7.30574991 Ha        -198.79956998 eV
  | van der Waals energy corr.    :           0.00000000 Ha           0.00000000 eV
  | Entropy correction            :           0.00000000 Ha           0.00000000 eV
  | ---------------------------
  | Total energy                  :        -306.18607827 Ha       -8331.74710424 eV
  | Total energy, T -> 0          :        -306.18607827 Ha       -8331.74710424 eV  <-- do not rely on this value for anything but (periodic) metals
  | Electronic free energy        :        -306.18607827 Ha       -8331.74710424 eV

  Derived energy quantities:
  | Kinetic energy                :         305.20296983 Ha        8304.99536253 eV
  | Electrostatic energy          :        -574.18154258 Ha      -15624.27472797 eV
  | Energy correction for multipole
  | error in Hartree potential    :          -0.00537723 Ha          -0.14632197 eV
  | Sum of eigenvalues per atom                           :        -376.19350392 eV
  | Total energy (T->0) per atom                          :        -694.31225869 eV  <-- do not rely on this value for anything but (periodic) metals
  | Electronic free energy per atom                       :        -694.31225869 eV

  Self-consistency convergence accuracy:
  | Change of charge density      : 0.8411E-03
  | Change of sum of eigenvalues  : 0.1501E+00 eV
  | Change of total energy        : 0.4638E-05 eV

  End self-consistency iteration #     9       :  max(cpu_time)    wall_clock(cpu1)
  | Time for this iteration                    :        1.121 s           1.121 s
  | Charge density update                      :        0.354 s           0.354 s
  | Density mixing                             :        0.012 s           0.012 s
  | Hartree multipole update                   :        0.004 s           0.004 s
  | Hartree multipole summation                :        0.209 s           0.209 s
  | Integration                                :        0.511 s           0.511 s
  | Solution of K.-S. eqns.                    :        0.031 s           0.031 s
  | Total energy evaluation                    :        0.000 s           0.000 s
------------------------------------------------------------

------------------------------------------------------------
          Begin self-consistency iteration #   10

  Date     :  20150727, Time     :  121304.956
------------------------------------------------------------
  Evaluating new KS density.
  Integration grid: deviation in total charge (<rho> - N_e) =   1.421085E-14
  Pulay mixing of updated and previous charge densities.

  Evaluating partitioned Hartree potential by multipole expansion.
  | Analytical far-field extrapolation by fixed multipoles:
  | Hartree multipole sum: apparent total charge =  -0.361683E-05
  Summing up the Hartree potential.
  Time summed over all CPUs for potential: real work        1.652 s, elapsed        1.664 s
  | RMS charge density error from multipole expansion :   0.156805E-01

  Integrating Hamiltonian matrix: batch-based integration.
  Time summed over all CPUs for integration: real work        3.966 s, elapsed        4.069 s

  Updating Kohn-Sham eigenvalues, eigenvectors, occupation numbers, and Fermi level.
  Solving generalized eigenproblem
[...]
  |                                 -0.01986944       0.09660716       0.01372364
  |                                  0.01383373       0.01372364       0.04883980
  ----------------------------------------------------------------------


  Total energy components:
  | Sum of eigenvalues            :        -165.90171639 Ha       -4514.41539402 eV
  | XC energy correction          :         -37.20704149 Ha       -1012.45511221 eV
  | XC potential correction       :          47.55317893 Ha        1293.98783594 eV
  | Free-atom electrostatic energy:        -143.32833612 Ha       -3900.16246400 eV
  | Hartree energy correction     :          -7.30216250 Ha        -198.70195157 eV
  | van der Waals energy corr.    :          -0.00133737 Ha          -0.03639158 eV
  | Entropy correction            :           0.00000000 Ha           0.00000000 eV
  | ---------------------------
  | Total energy                  :        -306.18741496 Ha       -8331.78347744 eV
  | Total energy, T -> 0          :        -306.18741496 Ha       -8331.78347744 eV  <-- do not rely on this value for anything but (periodic) metals
  | Electronic free energy        :        -306.18741496 Ha       -8331.78347744 eV

  Derived energy quantities:
  | Kinetic energy                :         305.20444090 Ha        8305.03539251 eV
  | Electrostatic energy          :        -574.18347700 Ha      -15624.32736616 eV
  | Energy correction for multipole
  | error in Hartree potential    :          -0.00536930 Ha          -0.14610602 eV
  | Sum of eigenvalues per atom                           :        -376.20128284 eV
  | Total energy (T->0) per atom                          :        -694.31528979 eV  <-- do not rely on this value for anything but (periodic) metals
  | Electronic free energy per atom                       :        -694.31528979 eV

  atomic forces [eV/Ang]:
  -----------------------
  atom #    1
   Hellmann-Feynman + Multipole  : -.757903E+01 -.118284E+02 0.394934E+01
   Pulay + GGA                   : 0.754733E+01 0.156418E+02 -.608867E+01
   Van der Waals               : 0.599439E-03 0.382489E-02 -.320941E-02
   ----------------------------------------------------------------
   Total forces(   1)            : -.310998E-01 0.381721E+01 -.214254E+01
  atom #    2
   Hellmann-Feynman + Multipole  : 0.228764E+01 -.350161E+01 0.155952E+01
   Pulay + GGA                   : -.339342E-01 0.101086E+00 -.663009E-01
   Van der Waals               : 0.511359E-03 0.486593E-02 0.276314E-02
   ----------------------------------------------------------------
   Total forces(   2)            : 0.225421E+01 -.339566E+01 0.149599E+01
  atom #    3
   Hellmann-Feynman + Multipole  : -.218639E+01 -.346792E+00 -.200103E+00
   Pulay + GGA                   : 0.139015E+00 0.552064E-01 -.521581E-03
   Van der Waals               : 0.393240E-03 0.296409E-02 -.409245E-03
   ----------------------------------------------------------------
   Total forces(   3)            : -.204698E+01 -.288622E+00 -.201034E+00
  atom #    4
   Hellmann-Feynman + Multipole  : 0.821385E+01 -.497726E+01 -.150001E+02
   Pulay + GGA                   : -.855726E+01 0.352003E+01 0.145754E+02
   Van der Waals               : -.293916E-02 0.215577E-02 0.635233E-02
   ----------------------------------------------------------------
   Total forces(   4)            : -.346354E+00 -.145507E+01 -.418292E+00
  atom #    5
   Hellmann-Feynman + Multipole  : -.494430E+00 0.469585E+00 0.846592E+00
   Pulay + GGA                   : 0.453304E-01 0.829811E-01 0.109487E+00
   Van der Waals               : -.615627E-03 0.474117E-02 -.122754E-02
   ----------------------------------------------------------------
   Total forces(   5)            : -.449715E+00 0.557307E+00 0.954852E+00
  atom #    6
   Hellmann-Feynman + Multipole  : 0.721520E+00 0.882619E+00 0.252289E+00
   Pulay + GGA                   : -.115850E+00 -.642365E-01 0.595555E-01
   Van der Waals               : 0.614578E-03 0.155612E-02 -.126473E-02
   ----------------------------------------------------------------
   Total forces(   6)            : 0.606284E+00 0.819939E+00 0.310580E+00
  atom #    7
   Hellmann-Feynman + Multipole  : -.129660E+02 -.522213E+01 -.118745E+01
   Pulay + GGA                   : 0.142473E+02 0.663507E+01 0.497953E+00
   Van der Waals               : 0.279295E-03 -.544092E-02 -.145751E-02
   ----------------------------------------------------------------
   Total forces(   7)            : 0.128158E+01 0.140750E+01 -.690960E+00
  atom #    8
   Hellmann-Feynman + Multipole  : -.580552E+00 0.620098E-01 -.109220E+00
   Pulay + GGA                   : 0.127419E+00 -.621025E-01 0.227180E-01
   Van der Waals               : 0.112196E-04 -.395483E-02 -.126310E-02
   ----------------------------------------------------------------
   Total forces(   8)            : -.453122E+00 -.404756E-02 -.877650E-01
  atom #    9
   Hellmann-Feynman + Multipole  : -.756953E+00 -.146772E+01 0.706850E+00
   Pulay + GGA                   : 0.508552E-01 0.100933E+00 -.694496E-01
   Van der Waals               : 0.147515E-03 -.572447E-03 -.288171E-03
   ----------------------------------------------------------------
   Total forces(   9)            : -.705950E+00 -.136736E+01 0.637112E+00
  atom #   10
   Hellmann-Feynman + Multipole  : 0.103746E+01 -.155355E+02 0.159674E+01
   Pulay + GGA                   : 0.862573E-03 0.156944E+02 -.294983E+01
   Van der Waals               : 0.455232E-03 -.587146E-02 0.582618E-03
   ----------------------------------------------------------------
   Total forces(  10)            : 0.103878E+01 0.153044E+00 -.135251E+01
  atom #   11
   Hellmann-Feynman + Multipole  : -.256687E+00 0.441329E+00 0.243296E+00
   Pulay + GGA                   : -.677446E-01 0.963361E-01 0.833597E-01
   Van der Waals               : 0.255847E-02 -.899968E-03 -.301235E-02
   ----------------------------------------------------------------
   Total forces(  11)            : -.321873E+00 0.536765E+00 0.323644E+00
  atom #   12
   Hellmann-Feynman + Multipole  : -.850442E+00 -.840110E+00 0.122776E+01
   Pulay + GGA                   : 0.367021E-01 0.679707E-01 -.630537E-01
   Van der Waals               : -.201556E-02 -.336834E-02 0.243397E-02
   ----------------------------------------------------------------
   Total forces(  12)            : -.815756E+00 -.775508E+00 0.116714E+01
  Timings for vdw_correction_hirshfeld (Tkatchenko-Scheffler 2009):
  | CPU time:        2.961 s, Wall clock time:        2.961 s.
  Removing unitary transformations (pure translations, rotations) from forces on atoms.
  Atomic forces before filtering:
  | Net force on center of mass :  0.100011E-01 0.550969E-02 -.378290E-02 eV/A
  | Net torque on center of mass:  0.829907E-03 0.710513E-02 -.139781E-01 eV
  Atomic forces after filtering:
  | Net force on center of mass :  0.713624E-15 -.802828E-15 -.178406E-15 eV/A
  | Net torque on center of mass:  0.604214E-14 0.000000E+00 0.151054E-14 eV
 
  Energy and forces in a compact form:
  | Total energy uncorrected      :         -0.833178347743690E+04 eV
  | Total energy corrected        :         -0.833178347743690E+04 eV  <-- do not rely on this value for anything but (periodic) metals
  | Electronic free energy        :         -0.833178347743690E+04 eV
  Total atomic forces (unitary forces cleaned) [eV/Ang]:
  |   1         -0.311227199600053E-01          0.381679882948661E+01         -0.214205400203947E+01
  |   2          0.225407420127318E+01         -0.339619902671421E+01          0.149632984126828E+01
  |   3         -0.204707517927122E+01         -0.288814978118262E+00         -0.200337010262428E+00
  |   4         -0.346848025493807E+00         -0.145551684284808E+01         -0.417907682810307E+00
  |   5         -0.450496659411507E+00          0.556934154067036E+00          0.955260459206300E+00
  |   6          0.605831282188919E+00          0.819323213402521E+00          0.310801941554923E+00
  |   7          0.128048273130224E+01          0.140710794720068E+01         -0.690623886950530E+00
  |   8         -0.454206347110258E+00         -0.424335152272530E-02         -0.872299931568414E-01
  |   9         -0.707145287235460E+00         -0.136769536033964E+01          0.637489612071583E+00
  |  10          0.103729355717292E+01          0.152381761247024E+00         -0.135249545784979E+01
  |  11         -0.323613995395418E+00          0.536016509708301E+00          0.323527675999651E+00
  |  12         -0.817173558059587E+00         -0.776092855569261E+00          0.116723850296864E+01
 
  ------------------------------------ 
  Start decomposition of the XC Energy 
  ------------------------------------ 
  Hartree-Fock part   :          0.000000000 Ha              0.000000000 eV
  ------------------------------------ 
  X Energy            :        -35.909190772 Ha           -977.138797178 eV
  C Energy GGA        :         -1.297850722 Ha            -35.316315029 eV
  Total XC Energy     :        -37.207041494 Ha          -1012.455112207 eV
  LDA X and C from self-consistent density 
  X Energy LDA        :        -32.334727477 Ha           -879.872702092 eV
  C Energy LDA        :         -2.633994020 Ha            -71.674624049 eV
  ------------------------------------ 
  End decomposition of the XC Energy 
  ------------------------------------ 
  Performing Hirshfeld analysis of fragment charges and moments.
  ----------------------------------------------------------------------
  | Atom     1: O
  |   Hirshfeld charge        :     -0.27349199
  |   Free atom volume        :     23.95238533
  |   Hirshfeld volume        :     22.47069180
  |   Hirshfeld dipole vector :      0.01554626       0.03724069       0.02482916
  |   Hirshfeld dipole moment :      0.04738188
  |   Hirshfeld second moments:      0.05660561      -0.01903943       0.01998887
  |                                 -0.01903943      -0.00265499      -0.03292038
  |                                  0.01998887      -0.03292038      -0.04984949
  ----------------------------------------------------------------------
  | Atom     2: H
  |   Hirshfeld charge        :      0.13886653
  |   Free atom volume        :     10.44207651
  |   Hirshfeld volume        :      7.03434837
  |   Hirshfeld dipole vector :     -0.06567153       0.08517157      -0.03228982
  |   Hirshfeld dipole moment :      0.11229238
  |   Hirshfeld second moments:      0.12226653       0.00704488       0.00704652
  |                                  0.00704488       0.07814116      -0.00638013
  |                                  0.00704652      -0.00638013       0.08863644
  ----------------------------------------------------------------------
  | Atom     3: H
  |   Hirshfeld charge        :      0.12815745
  |   Free atom volume        :     10.44207651
  |   Hirshfeld volume        :      6.78119600
  |   Hirshfeld dipole vector :      0.11676810       0.02278743       0.01911970
  |   Hirshfeld dipole moment :      0.12049738
  |   Hirshfeld second moments:      0.10858708      -0.00958897       0.00246519
  |                                 -0.00958897       0.10755240      -0.00774516
  |                                  0.00246519      -0.00774516       0.08804877
  ----------------------------------------------------------------------
  | Atom     4: O
  |   Hirshfeld charge        :     -0.28611467
  |   Free atom volume        :     23.95238533
  |   Hirshfeld volume        :     21.69289247
  |   Hirshfeld dipole vector :     -0.03249649       0.02328172       0.02174974
  |   Hirshfeld dipole moment :      0.04550946
  |   Hirshfeld second moments:      0.03056903       0.05815501      -0.00800654
  |                                  0.05815501       0.03388412       0.02624225
  |                                 -0.00800654       0.02624225       0.00652311
  ----------------------------------------------------------------------
  | Atom     5: H
  |   Hirshfeld charge        :      0.13471383
  |   Free atom volume        :     10.44207651
  |   Hirshfeld volume        :      6.90755792
  |   Hirshfeld dipole vector :      0.03822897       0.08963207       0.06045359
  |   Hirshfeld dipole moment :      0.11467345
  |   Hirshfeld second moments:      0.11477425       0.02266421      -0.00741318
  |                                  0.02266421       0.08574515      -0.00083615
  |                                 -0.00741318      -0.00083615       0.10090331
  ----------------------------------------------------------------------
  | Atom     6: H
  |   Hirshfeld charge        :      0.14540486
  |   Free atom volume        :     10.44207651
  |   Hirshfeld volume        :      6.42162399
  |   Hirshfeld dipole vector :     -0.10449017      -0.06358975       0.02273550
  |   Hirshfeld dipole moment :      0.12441365
  |   Hirshfeld second moments:      0.10410900       0.01328728       0.00067969
  |                                  0.01328728       0.11789776       0.01348190
  |                                  0.00067969       0.01348190       0.11124850
  ----------------------------------------------------------------------
  | Atom     7: O
  |   Hirshfeld charge        :     -0.21848051
  |   Free atom volume        :     23.95238533
  |   Hirshfeld volume        :     20.46470124
  |   Hirshfeld dipole vector :      0.01480747       0.01174383       0.02610671
  |   Hirshfeld dipole moment :      0.03222947
  |   Hirshfeld second moments:      0.06748213      -0.01486545      -0.00056584
  |                                 -0.01486545       0.07753183      -0.04260704
  |                                 -0.00056584      -0.04260704       0.03611322
  ----------------------------------------------------------------------
  | Atom     8: H
  |   Hirshfeld charge        :      0.16355962
  |   Free atom volume        :     10.44207651
  |   Hirshfeld volume        :      5.92166144
  |   Hirshfeld dipole vector :      0.10034122      -0.04826056       0.04330008
  |   Hirshfeld dipole moment :      0.11946689
  |   Hirshfeld second moments:      0.12530482       0.00369206      -0.00317885
  |                                  0.00369206       0.13299615      -0.00919670
  |                                 -0.00317885      -0.00919670       0.11630672
  ----------------------------------------------------------------------
  | Atom     9: H
  |   Hirshfeld charge        :      0.16607927
  |   Free atom volume        :     10.44207651
  |   Hirshfeld volume        :      5.60908989
  |   Hirshfeld dipole vector :      0.03400906       0.10520519      -0.04964835
  |   Hirshfeld dipole moment :      0.12120110
  |   Hirshfeld second moments:      0.14118885      -0.01062215       0.00444293
  |                                 -0.01062215       0.12445157      -0.00744072
  |                                  0.00444293      -0.00744072       0.12385329
  ----------------------------------------------------------------------
  | Atom    10: O
  |   Hirshfeld charge        :     -0.32027912
  |   Free atom volume        :     23.95238533
  |   Hirshfeld volume        :     22.44707087
  |   Hirshfeld dipole vector :     -0.00510564       0.05400308      -0.01342140
  |   Hirshfeld dipole moment :      0.05587965
  |   Hirshfeld second moments:     -0.01751269      -0.02128757      -0.05841865
  |                                 -0.02128757       0.00087306       0.00884401
  |                                 -0.05841865       0.00884401       0.01428301
  ----------------------------------------------------------------------
  | Atom    11: H
  |   Hirshfeld charge        :      0.12810583
  |   Free atom volume        :     10.44207651
  |   Hirshfeld volume        :      6.55783022
  |   Hirshfeld dipole vector :     -0.06365875       0.08763831       0.06378784
  |   Hirshfeld dipole moment :      0.12570521
  |   Hirshfeld second moments:      0.09923869       0.00149048      -0.01726805
  |                                  0.00149048       0.10522194      -0.00719683
  |                                 -0.01726805      -0.00719683       0.11358496
  ----------------------------------------------------------------------
  | Atom    12: H
  |   Hirshfeld charge        :      0.09340195
  |   Free atom volume        :     10.44207651
  |   Hirshfeld volume        :      7.71266062
  |   Hirshfeld dipole vector :      0.02066191       0.04225759      -0.04217004
  |   Hirshfeld dipole moment :      0.06317381
  |   Hirshfeld second moments:      0.06912372      -0.01986944       0.01383373
  |                                 -0.01986944       0.09660716       0.01372364
  |                                  0.01383373       0.01372364       0.04883980
  ----------------------------------------------------------------------


------------------------------------------------------------------------------
  Final output of selected total energy values:

  The following output summarizes some interesting total energy values
  at the end of a run (AFTER all relaxation, molecular dynamics, etc.).

  | Total energy of the DFT / Hartree-Fock s.c.f. calculation      :          -8331.783477437 eV
  | Final zero-broadening corrected energy (caution - metals only) :          -8331.783477437 eV
  | For reference only, the value of 1 Hartree used in FHI-aims is :             27.211384500 eV

  Before relying on these values, please be sure to understand exactly which
  total energy value is referred to by a given number. Different objects may
  all carry the same name 'total energy'. Definitions:

  Total energy of the DFT / Hartree-Fock s.c.f. calculation:
  | Note that this energy does not include ANY quantities calculated after the
  | s.c.f. cycle, in particular not ANY RPA, MP2, etc. many-body perturbation terms.

  Final zero-broadening corrected energy:
  | For metallic systems only, a broadening of the occupation numbers at the Fermi
  | level can be extrapolated back to zero broadening by an electron-gas inspired
  | formula. For all systems that are not real metals, this value can be
  | meaningless and should be avoided.

------------------------------------------------------------------------------

------------------------------------------------------------
          Leaving FHI-aims.
          Date     :  20150727, Time     :  121313.967

          Computational steps:
          | Number of self-consistency cycles          :           15

          Detailed time accounting                     :  max(cpu_time)    wall_clock(cpu1)
          | Total time                                 :       20.746 s          20.775 s
          | Preparation time                           :        0.173 s           0.509 s
          | Grid partitioning                          :        0.105 s           0.105 s
          | Preloading free-atom quantities on grid    :        0.014 s           0.013 s
          | Free-atom superposition energy             :        0.046 s           0.047 s
          | Total time for integrations                :        8.446 s           8.446 s
          | Total time for solution of K.-S. equations :        0.576 s           0.575 s
          | Total time for density & force components  :        6.813 s           6.812 s
          | Total time for mixing                      :        0.150 s           0.149 s
          | Total time for Hartree multipole update    :        0.061 s           0.061 s
          | Total time for Hartree multipole sum       :        3.833 s           3.833 s
          | Total time for total energy evaluation     :        0.004 s           0.005 s
          | Total time for scaled ZORA corrections     :        0.000 s           0.000 s
          | Total time for TS (2009) vdW correction    :        0.034 s           0.034 s

          Have a nice day.
------------------------------------------------------------
