begin 
comment This RuNNer input has been created automatically by fhiaims2runner 
comment relativistic  atomic zora scalar 
atom    -7.659119727    0.122834137   -2.882135845   O   -0.292647720    0.000000000   -0.003789493    0.071723480   -0.025632869 
atom    -8.629834630    1.842130327   -3.614707366   H    0.150475840    0.000000000    0.043744677   -0.065958697    0.029791597 
atom    -5.797341910    0.623934903   -2.791712414   H    0.135753230    0.000000000   -0.039922490   -0.005144982   -0.003988542 
atom    -7.684782218    8.046986169   -1.700875133   O   -0.285140870    0.000000000    0.022616428    0.025058919   -0.011452475 
atom    -6.092687324    7.326225441   -1.076091742   H    0.142539410    0.000000000   -0.009328948    0.001623446   -0.001609799 
atom    -7.062759719    9.668844262   -2.499579536   H    0.148998120    0.000000000   -0.013320174   -0.027302165    0.012892087 
energy   -153.09097280 
charge      0.00000000 
end 
