  MPI-parallelism will be employed.
------------------------------------------------------------
          Invoking FHI-aims ...
          Version 081213
          Compiled on 2013/08/29 at 17:41:06 on host generoso.

          When using FHI-aims, please cite the following reference:

          Volker Blum, Ralf Gehrke, Felix Hanke, Paula Havu,
          Ville Havu, Xinguo Ren, Karsten Reuter, and Matthias Scheffler,
          'Ab Initio Molecular Simulations with Numeric Atom-Centered Orbitals: FHI-aims',
          Computer Physics Communications 180, 2175-2196 (2009)

          For any questions about FHI-aims, please visit the aimsclub website
          with its forums and wiki. Contributions to both the forums and the
          wiki are warmly encouraged - they are for you, and everyone is welcome there.

------------------------------------------------------------

  Date     :  20150727, Time     :  124008.172
  Time zero on CPU 1             :   0.469920000000000E-01  s.
  Internal wall clock time zero  :           207232808.172  s.

  Using        8 parallel tasks.
  Task        0 on host gen60 reporting.
  Task        1 on host gen60 reporting.
  Task        2 on host gen60 reporting.
  Task        3 on host gen60 reporting.
  Task        4 on host gen60 reporting.
  Task        5 on host gen60 reporting.
  Task        6 on host gen60 reporting.
  Task        7 on host gen60 reporting.

  Performing system and environment tests:
  | Environment variable OMP_NUM_THREADS correctly set to 1.
  | Checking for scalapack...
  | No scalapack compiled in.

  Obtaining array dimensions for all initial allocations:
  
  -----------------------------------------------------------------------
  Parsing control.in (first pass over file, find array dimensions only).
  The contents of control.in will be repeated verbatim below
  unless switched off by setting 'verbatim_writeout .false.' .
  in the first line of control.in .
  -----------------------------------------------------------------------
  
  #########################################################################################
  #
  #  Volker Blum, FHI 2008 : Test run input file control.in
  #
  #########################################################################################
  #
  #  Physical model
  #
    xc                 rpbe
    spin               none
    relativistic       atomic_zora scalar
    charge             0.
   vdw_correction_hirshfeld
  #
  #  SCF convergence
  #
    occupation_type    gaussian 0.01
    mixer              pulay
      n_max_pulay        10
      charge_mix_param   0.1
    sc_accuracy_rho    5E-5
    sc_accuracy_eev    5E-3
    sc_accuracy_etot   5E-6
    sc_iter_limit      3000
  #
  #  Eigenvalue solver
  #
    KS_method          lapack
      empty_states       8
      basis_threshold    0.e-5
  #
  #  Efficiency
  #
  #   all previous settings are now default, except stratmann still
  #   undecided. Continue to handle stratmann with care, if at all.
  #
  #  partition_type stratmann
    partition_type rho_r2
  #  hartree_partition_type stratmann
  #
  #  Oprions for large clusters (100's of atoms: memory saving / better scaling)
  #
  # for periodic systems:
  #
    density_update_method orbital
    packed_matrix_format none
  #  k_grid 6 6 6
  #  output k_eigenvalue 1
  #  distributed_spline_storage .true.
  #
  #  Relaxation
  #
  #  relax_geometry   bfgs 5.e-3
    sc_accuracy_forces 5.E-4
    final_forces_cleaned .true.
  #
  #  Output options
  #
  #  output mulliken
    output Hirshfeld
  #  output dipole
  
  #harmonic_length_scale 0.001
  
  ################################################################################
  #
  #  FHI-aims code project
  #  VB, Fritz-Haber Institut, 2007
  #
  #  Suggested "safe" defaults for H atom (to be pasted into control.in file)
  #  Basis constructed for a non-relativistic H2 molecule using the
  #  PW-LDA functional.
  #
  ################################################################################
    species        H
  #     global species definitions
      nucleus             1
      cut_pot             4.0  2.0  1.0
      cut_free_atom       finite 8.0
      logarithmic         0.00010000 100.00  1.0123
      basis_dep_cutoff    1d-4  # 1d-4 is safe default - please check 5d-4 if you wish!
      radial_base         24 7.0
      radial_multiplier   2
      angular_grids       specified
        division   0.2783  110
        division   0.3822  194
        division   0.5626  302
  #      division   0.5922  434
  #      division   0.6227  590
  #      division   0.7206  770
        outer_grid  302
      l_hartree           4
  ################################################################################
  #
  #  Definition of "minimal" basis
  #
  ################################################################################
  #     valence basis states
      valence      1  s   1.
  #     ion occupancy
      ion_occ      1  s   0.5
  ################################################################################
  #
  #  Suggested additional basis functions. For production calculations,
  #  uncomment them one after another (the most important basis functions are
  #  listed first).
  #
  ################################################################################
  #  "First tier" - improvements: -1014.90 meV to -62.69 meV
       hydro 2 s 2.1
       hydro 2 p 3.5
  #  "Second tier" - improvements: -12.89 meV to -1.83 meV
       hydro 1 s 0.85
       hydro 2 p 3.7
       hydro 2 s 1.2
       hydro 3 d 7
  #  "Third tier" - improvements: -0.25 meV to -0.12 meV
  #     hydro 4 f 11.2
  #     hydro 3 p 4.8
  #     hydro 4 d 9
  #     hydro 3 s 3.2
  
  ################################################################################
  #
  #  FHI-aims code project
  #  VB, Fritz-Haber Institut, 2007
  #
  #  Suggested "safe" defaults for O atom (to be pasted into control.in file)
  #  All values have been tested for a non-relativistic, non-spinpolarized O2
  #  molecule using the PW-LDA functional. Validity for PBE is expected.
  #
  #  Constructed for dimers: 1.0 A, 1.208 A, 1.5 A, 2.0 A, 3.0 A
  #
  ################################################################################
    species        O
  #     global species definitions
      nucleus             8
      mass                15.9994
      l_hartree           4
      cut_pot             4.0  2.0  1.0
      cut_free_atom       finite 8.0
      basis_dep_cutoff    1d-4  # 1d-4 is safe default - please check 5d-4 if you wish!
      logarithmic         0.00010000 100.00  1.0123
      radial_base         36 7.0
      radial_multiplier   2
       angular_grids specified
        division   0.4087  110
        division   0.5181  194
        division   0.6184  302
  #      division   0.7315  434
  #      division   0.7934  590
  #      division   0.9656  770
  #      division   1.4041  974
  #      outer_grid 974
        outer_grid 302
  ################################################################################
  #
  #  Definition of "minimal" basis
  #
  ################################################################################
  #     valence basis states
      valence      2  s   2.
      valence      2  p   4.
  #     ion occupancy
      ion_occ      2  s   1.
      ion_occ      2  p   3.
  ################################################################################
  #
  #  Suggested additional basis functions. For production calculations,
  #  uncomment them one after another (the most important basis functions are
  #  listed first).
  #
  ################################################################################
  #  "First tier" - improvements: -699.05 meV to -159.38 meV
       hydro 2 p 1.8
       hydro 3 d 7.6
       hydro 3 s 6.4
  #  "Second tier" - improvements: -49.91 meV to -5.39 meV
       hydro 4 f 11.6
       hydro 3 p 6.2
       hydro 3 d 5.6
       hydro 5 g 17.6
       hydro 1 s 0.75
  #  "Third tier" - improvements: -2.83 meV to -0.50 meV
  #     ionic 2 p auto
  #     hydro 4 f 10.8
  #     hydro 4 d 4.7
  #     hydro 2 s 6.8
  #  "Fourth tier" - improvements: -0.40 meV to -0.12 meV
  #     hydro 3 p 5
  #     hydro 3 s 3.3
  #     hydro 5 g 15.6
  #     hydro 4 f 17.6
  #     hydro 4 d 14
  # Further basis functions - -0.08 meV and below
  #     hydro 3 s 2.1
  #     hydro 4 d 11.6
  #     hydro 3 p 16
  #     hydro 2 s 17.2
  
  
  -----------------------------------------------------------------------
  Completed first pass over input file control.in .
  -----------------------------------------------------------------------
  
  
  -----------------------------------------------------------------------
  Parsing geometry.in (first pass over file, find array dimensions only).
  The contents of geometry.in will be repeated verbatim below
  unless switched off by setting 'verbatim_writeout .false.' .
  in the first line of geometry.in .
  -----------------------------------------------------------------------
  
  atom      -4.053030000      0.065001000     -1.525160000  O
  atom      -4.566710000      0.974813000     -1.912820000  H
  atom      -3.067820000      0.330172000     -1.477310000  H
  atom      -3.818880000      2.024990000      2.187990000  O
  atom      -3.690880000      1.961360000      3.202150000  H
  atom      -4.546490000      2.751300000      2.045370000  H
  atom      -4.066610000      4.258280000     -0.900064000  O
  atom      -3.224110000      3.876870000     -0.569443000  H
  atom      -3.737450000      5.116530000     -1.322720000  H
  
  -----------------------------------------------------------------------
  Completed first pass over input file geometry.in .
  -----------------------------------------------------------------------
  
 
  Basic array size parameters: 
  | Number of species                 :        2
  | Number of atoms                   :        9
  | Max. basis fn. angular momentum   :        4
  | Max. atomic/ionic basis occupied n:        2
  | Max. number of basis fn. types    :        2
  | Max. radial fns per species/type  :        8
  | Max. logarithmic grid size        :     1301
  | Max. radial integration grid size :       73
  | Max. angular integration grid size:      302
  | Max. angular grid division number :        8
  | Radial grid for Hartree potential :     1301
  | Number of spin channels           :        1

------------------------------------------------------------
          Reading file control.in.
------------------------------------------------------------
  XC: Using RPBE gradient-corrected functionals.
  Spin treatment: No spin polarisation.
  Scalar relativistic treatment of kinetic energy: on-site free-atom approximation to ZORA.
  Charge =   0.000000E+00: Neutral system requested explicitly.
  Using non-empirical van der Waals correction (Hirshfeld partitioning):
  Occupation type: Gaussian broadening, width =   0.100000E-01 eV.
  Using pulay charge density mixing.
  Pulay mixing - number of memorized iterations:   10
  Charge density mixing - mixing parameter:     0.1000
  Convergence accuracy of self-consistent charge density: 0.5000E-04
  Convergence accuracy of sum of eigenvalues: 0.5000E-02
  Convergence accuracy of total energy: 0.5000E-05
  Maximum number of s.-c. iterations  :  3000
  Kohn-Sham eigenvalues and eigenfunctions calculated by lapack diagonalisation (D&C).
  Number of empty states per atom:        8
  Threshold for basis singularities: 0.0000E+00
  Partition function in integrals calculations: rho / r^2
 Using packed matrix format           0
  Convergence accuracy of forces: 0.5000E-03
  Cleaning forces before final output.
  Hirshfeld charge analysis will be performed.
 
  Reading configuration options for species H                   .
  | Found nuclear charge :   1.0000
  | Found cutoff potl. onset [A], width [A], scale factor :    4.00000    2.00000    1.00000
  | Found cutoff specification for free atom: Cutoff potential begins at    8.00000 A.
  | Found logarithmic grid data [bohr] : 0.1000E-03 0.1000E+03 0.1012E+01
  | Threshold for basis-dependent cutoff potential is   0.100000E-03
  | Found data for basic radial integration grid :    24 points, outermost radius =    7.000 A
  | Found multiplier for basic radial grid :   2
  | Found angular grid specification: user-specified.
  | Specified grid contains     4 separate shells.
  | Check grid settings after all constraints further below.
  | Found l_max for Hartree potential  :   4
  | Found free-atom valence shell :  1 s   1.000
  | No ionic wave fns used. Skipping ion_occ.
  | Found hydrogenic basis function :  2 s   2.100
  | Found hydrogenic basis function :  2 p   3.500
  | Found hydrogenic basis function :  1 s   0.850
  | Found hydrogenic basis function :  2 p   3.700
  | Found hydrogenic basis function :  2 s   1.200
  | Found hydrogenic basis function :  3 d   7.000
  Species H                   : Missing cutoff potential type.
  Defaulting to exp(1/x)/(1-x)^2 type cutoff potential.
  Species H : On-site basis accuracy parameter (for Gram-Schmidt orthonormalisation) not specified.
  Using default value basis_acc =  0.1000000E-03.
  Species H                   : Using default innermost maximum threshold i_radial=  2 for radial functions.
  Species H                   : Basic radial grid will be enhanced according to radial_multiplier =   2, to contain    49 grid points.
 
  Reading configuration options for species O                   .
  | Found nuclear charge :   8.0000
  | Found atomic mass :    15.9994000000000      amu
  | Found l_max for Hartree potential  :   4
  | Found cutoff potl. onset [A], width [A], scale factor :    4.00000    2.00000    1.00000
  | Found cutoff specification for free atom: Cutoff potential begins at    8.00000 A.
  | Threshold for basis-dependent cutoff potential is   0.100000E-03
  | Found logarithmic grid data [bohr] : 0.1000E-03 0.1000E+03 0.1012E+01
  | Found data for basic radial integration grid :    36 points, outermost radius =    7.000 A
  | Found multiplier for basic radial grid :   2
  | Found angular grid specification: user-specified.
  | Specified grid contains     4 separate shells.
  | Check grid settings after all constraints further below.
  | Found free-atom valence shell :  2 s   2.000
  | Found free-atom valence shell :  2 p   4.000
  | No ionic wave fns used. Skipping ion_occ.
  | No ionic wave fns used. Skipping ion_occ.
  | Found hydrogenic basis function :  2 p   1.800
  | Found hydrogenic basis function :  3 d   7.600
  | Found hydrogenic basis function :  3 s   6.400
  | Found hydrogenic basis function :  4 f  11.600
  | Found hydrogenic basis function :  3 p   6.200
  | Found hydrogenic basis function :  3 d   5.600
  | Found hydrogenic basis function :  5 g  17.600
  | Found hydrogenic basis function :  1 s   0.750
  Species O                   : Missing cutoff potential type.
  Defaulting to exp(1/x)/(1-x)^2 type cutoff potential.
  Species O : On-site basis accuracy parameter (for Gram-Schmidt orthonormalisation) not specified.
  Using default value basis_acc =  0.1000000E-03.
  Species O                   : Using default innermost maximum threshold i_radial=  2 for radial functions.
  Species O                   : Basic radial grid will be enhanced according to radial_multiplier =   2, to contain    73 grid points.
 
  Finished reading input file 'control.in'. Consistency checks are next.
 
  Target number of points in a grid batch is not set. Defaulting to  100
  Method for grid partitioning is not set. Defaulting to parallel hash+maxmin partitioning.
  Batch size limit is not set. Defaulting to    200
  By default, will store active basis functions for each batch.
  If in need of memory, prune_basis_once .false. can be used to disable this option.
  communication_type for Hartree potential was not specified.
  Defaulting to calc_hartree .
  Pulay mixer: Number of initial linear mixing iterations not set.
  Defaulting to    0 iterations.
  Work space size for distributed Hartree potential not set.
  Defaulting to   0.200000E+03 MB.
  Algorithm-dependent basis array size parameters:
  | n_max_pulay                         :       10
  Geometry relaxation not requested: no relaxation will be performed.
  Handling of forces: Unphysical translation and rotation will be removed from forces.
  No accuracy limit for integral partition fn. given. Defaulting to 0.1000E-14.
  No threshold value for u(r) in integrations given. Defaulting to 0.1000E-05.
  No accuracy for occupation numbers given. Defaulting to 0.1000E-07.
  No threshold value for occupation numbers given. Defaulting to 0.0000E+00.
  No accuracy for fermi level given. Defaulting to 0.1000E-19.
  Maximum # of iterations to find E_F not set. Defaulting to  200.
  Will not use alltoall communication since running on < 1024 CPUs.
  Partitioning for Hartree potential was not defined. Using partition_type for integrals.
  | Reporting present value of keyword multip_moments_threshold  :       0.10000000E-09
  | This value may affect high angular momentum components of the Hartree potential in periodic systems.
  No q(lm)/r^(l+1) cutoff set for long-range Hartree potential.
  | Using default value of  0.100000E-09 .
  | Verify using the multipole_threshold keyword.
  Defaulting to new monopole extrapolation.
  Density update method: Loop over occupied states selected for charge density update.
------------------------------------------------------------


------------------------------------------------------------
          Reading geometry description geometry.in.
------------------------------------------------------------
  Input structure read successfully.
  The structure contains        9 atoms,  and a total of         30.000 electrons.

  Input geometry:
  | No unit cell requested.
  | Atomic structure:
  |       Atom                x [A]            y [A]            z [A]
  |    1: Species O             -4.053030         0.065001        -1.525160
  |    2: Species H             -4.566710         0.974813        -1.912820
  |    3: Species H             -3.067820         0.330172        -1.477310
  |    4: Species O             -3.818880         2.024990         2.187990
  |    5: Species H             -3.690880         1.961360         3.202150
  |    6: Species H             -4.546490         2.751300         2.045370
  |    7: Species O             -4.066610         4.258280        -0.900064
  |    8: Species H             -3.224110         3.876870        -0.569443
  |    9: Species H             -3.737450         5.116530        -1.322720
  |

  | The smallest distance between any two atoms is         0.98213547 AA.
  |
  | The first atom of this pair is atom number                      7 .
  | The second atom of this pair is atom number                     8 .

  Structure-dependent array size parameters: 
  | Maximum number of distinct radial functions  :       18
  | Maximum number of basis functions            :      207
  | Number of Kohn-Sham states (occupied + empty):       51
------------------------------------------------------------

------------------------------------------------------------
          Preparing all fixed parts of the calculation.
------------------------------------------------------------
  Determining machine precision:
    2.225073858507201E-308
  Setting up grids for atomic and cluster calculations.

  Creating wave function, potential, and density for free atoms.

  Species: H

  List of occupied orbitals and eigenvalues:
    n    l              occ      energy [Ha]    energy [eV]
    1    0           1.0000        -0.241408        -6.5691


  Species: O

  List of occupied orbitals and eigenvalues:
    n    l              occ      energy [Ha]    energy [eV]
    1    0           2.0000       -18.944147      -515.4965
    2    0           2.0000        -0.883529       -24.0421
    2    1           4.0000        -0.330176        -8.9845

  Creating fixed part of basis set: Ionic, confined, hydrogenic.
 
  H                    hydrogenic:
 
  List of hydrogenic basis orbitals: 
    n    l      effective z      eigenvalue [eV]  inner max. [A]     outer max. [A]     outer radius [A]   
    2    0         2.100000       -14.9965           0.193241           1.317192           5.372934
    2    1         3.500000       -41.6672           0.602363           0.602363           4.056010
    1    0         0.850000        -9.8292           0.624864           0.624864           5.372934
    2    1         3.700000       -46.5653           0.573616           0.573616           3.909951
    2    0         1.200000        -4.5995           0.334977           2.228160           5.505921
    3    2         7.000000       -74.0753           0.680692           0.680692           3.769152
 
 
  O                    hydrogenic:
 
  List of hydrogenic basis orbitals: 
    n    l      effective z      eigenvalue [eV]  inner max. [A]     outer max. [A]     outer radius [A]   
    2    1         1.800000       -11.0118           1.178546           1.178546           5.432516
    3    2         7.600000       -87.3182           0.624117           0.624117           3.541422
    3    0         6.400000       -61.9209           0.061166           1.081887           4.306510
    4    3        11.600000      -114.4238           0.731621           0.731621           3.584982
    3    1         6.200000       -58.1113           0.255677           1.030255           4.306510
    3    2         5.600000       -47.4081           0.847222           0.847222           4.413102
    5    4        17.600000      -168.5799           0.749730           0.749730           3.372413
    1    0         0.750000        -7.6499           0.705275           0.705275           5.366508
 

  Adding cutoff potential to free-atom effective potential.
  Creating atomic-like basis functions for current effective potential.

  Species H                   :

  List of atomic basis orbitals and eigenvalues:
    n    l      energy [Ha]    energy [eV]    outer radius [A]
    1    0        -0.241374        -6.5681       5.372934


  Species O                   :

  List of atomic basis orbitals and eigenvalues:
    n    l      energy [Ha]    energy [eV]    outer radius [A]
    1    0       -18.944147      -515.4965       1.415745
    2    0        -0.883529       -24.0421       5.048305
    2    1        -0.330173        -8.9845       5.301302

  Assembling full basis from fixed parts.
  | Species H :   atomic orbital   1 s accepted.
  | Species H :    hydro orbital   2 s accepted.
  | Species H :    hydro orbital   1 s accepted.
  | Species H :    hydro orbital   2 s accepted.
  | Species H :    hydro orbital   2 p accepted.
  | Species H :    hydro orbital   2 p accepted.
  | Species H :    hydro orbital   3 d accepted.
  | Species O :   atomic orbital   1 s accepted.
  | Species O :    hydro orbital   3 s accepted.
  | Species O :   atomic orbital   2 s accepted.
  | Species O :    hydro orbital   1 s accepted.
  | Species O :    hydro orbital   3 p accepted.
  | Species O :   atomic orbital   2 p accepted.
  | Species O :    hydro orbital   2 p accepted.
  | Species O :    hydro orbital   3 d accepted.
  | Species O :    hydro orbital   3 d accepted.
  | Species O :    hydro orbital   4 f accepted.
  | Species O :    hydro orbital   5 g accepted.
 
  Basis size parameters after reduction:
  | Total number of radial functions:       18
  | Total number of basis functions :      207
 
  Testing on-site integration grid accuracy.
  |  Species  Function  <phi|h_atom|phi> (log., in eV)  <phi|h_atom|phi> (rad., in eV)
           1        1                 -6.5683835025                 -6.5684759159
           1        2                 13.3711789951                 13.3708738703
           1        3                 23.6590910787                 23.6532055418
           1        4                 16.2963827186                 16.1870710655 ***
           1        5                 28.7627214838                 28.7627215090
           1        6                 59.5965249172                 59.5965950857
           1        7                 60.2220506392                 60.2220503827
           2        8               -515.4964576505               -515.4964530710
           2        9                 15.3030791347                 15.3030722972
           2       10                -21.7296094581                -21.7296135470
           2       11                 14.2969371730                 14.2969701621
           2       12                 21.0679693190                 21.0679697493
           2       13                 -2.3833606469                 -2.3833613176
           2       14                 13.7067136422                 13.7066766629
           2       15                 45.8013116808                 45.8013116965
           2       16                 52.2309815402                 52.2309831494
           2       17                 85.4120732416                 85.4120732763
           2       18                142.1019167745                142.1019167817
 * Note: Onsite integrals marked "***" above are less accurate than
 * onsite_accuracy_threshold =    0.03000 eV. Usually, this is harmless.
 * When in doubt, tighten the "radial" and/or "radial_multiplier" flags to check.

  Preparing densities etc. for the partition functions (integrals / Hartree potential).

  Preparations completed.
  max(cpu_time)          :      0.172 s.
  Wall clock time (cpu1) :      0.562 s.
------------------------------------------------------------

------------------------------------------------------------
          Begin self-consistency loop: Initialization.

          Date     :  20150727, Time     :  124008.750
------------------------------------------------------------

  Initializing index lists of integration centers etc. from given atomic structure:
  | Number of centers in hartree potential         :         9
  | Number of centers in hartree multipole         :         9
  | Number of centers in electron density summation:         9
  | Number of centers in basis integrals           :         9
  | Number of centers in integrals                 :         9
  Partitioning the integration grid into batches with parallel hashing+maxmin method.
  | Number of batches:     1222
  | Maximal batch size:     179
  | Minimal batch size:      50
  | Average batch size:      96.584
  | Standard deviation of batch sizes:      30.444

  Integration load balanced across     8 MPI tasks.
  Work distribution over tasks is as follows:
  Task     0 has      14709 integration points.
  Task     1 has      14731 integration points.
  Task     2 has      14702 integration points.
  Task     3 has      14837 integration points.
  Task     4 has      14748 integration points.
  Task     5 has      14858 integration points.
  Task     6 has      14733 integration points.
  Task     7 has      14708 integration points.
  Initializing partition tables, free-atom densities, potentials, etc. across the integration grid (initialize_grid_storage).
  | Net number of integration points:   118026
  | of which are non-zero points    :   117508
  Obtaining max. number of non-zero basis functions in each batch (get_n_compute_maxes).
  | Maximal number of non-zero basis functions:      205 in task     0
  | Maximal number of non-zero basis functions:      205 in task     1
  | Maximal number of non-zero basis functions:      205 in task     2
  | Maximal number of non-zero basis functions:      205 in task     3
  | Maximal number of non-zero basis functions:      205 in task     4
  | Maximal number of non-zero basis functions:      205 in task     5
  | Maximal number of non-zero basis functions:      205 in task     6
  | Maximal number of non-zero basis functions:      206 in task     7
  Integrating Hamiltonian matrix: batch-based integration.
  Time summed over all CPUs for integration: real work        2.178 s, elapsed        2.219 s
  Integrating overlap matrix.
  Time summed over all CPUs for integration: real work        1.121 s, elapsed        1.138 s

  Updating Kohn-Sham eigenvalues, eigenvectors, occupation numbers, and Fermi level.
  Solving generalized eigenproblem
  Updating Kohn-Sham eigenvalues and eigenfunctions.
  Transforming overlap matrix and checking for singularities.
  Overlap matrix is nonsingular:
  | Lowest eigenvalue:  0.498889E-03
  Solving real generalised eigenvalue problem by standard LAPACK (fast)
  Determining occupation numbers for Kohn-Sham eigenstates.
  | Chemical potential (Fermi level) in eV                 : -.91831697E+01
  | Error in electron count due to remaining E_F inaccuracy: 0.00000000E+00
  | Maximum occupation number of highest empty state:  0.00E+00

  Writing Kohn-Sham eigenvalues.

  State    Occupation    Eigenvalue [Ha]    Eigenvalue [eV]
      1       2.00000         -19.040022         -518.10536
      2       2.00000         -19.028676         -517.79662
      3       2.00000         -19.019187         -517.53840
      4       2.00000          -1.083038          -29.47095
      5       2.00000          -1.060051          -28.84546
      6       2.00000          -1.042750          -28.37467
      7       2.00000          -0.603298          -16.41658
      8       2.00000          -0.590360          -16.06451
      9       2.00000          -0.569534          -15.49782
     10       2.00000          -0.504857          -13.73786
     11       2.00000          -0.487736          -13.27197
     12       2.00000          -0.478891          -13.03130
     13       2.00000          -0.426936          -11.61752
     14       2.00000          -0.417403          -11.35811
     15       2.00000          -0.409156          -11.13371
     16       0.00000          -0.095871           -2.60879
     17       0.00000          -0.073303           -1.99468
     18       0.00000          -0.058100           -1.58098
     19       0.00000          -0.025830           -0.70286
     20       0.00000          -0.011793           -0.32090
     21       0.00000           0.001916            0.05214
     22       0.00000           0.072663            1.97726
     23       0.00000           0.080128            2.18040
     24       0.00000           0.085146            2.31695
     25       0.00000           0.094812            2.57996
     26       0.00000           0.103150            2.80686
     27       0.00000           0.105247            2.86391
     28       0.00000           0.120416            3.27668
     29       0.00000           0.128625            3.50007
     30       0.00000           0.133581            3.63493
     31       0.00000           0.170954            4.65190
     32       0.00000           0.185831            5.05673
     33       0.00000           0.198525            5.40213
     34       0.00000           0.228844            6.22715
     35       0.00000           0.251356            6.83975
     36       0.00000           0.278207            7.57039
     37       0.00000           0.313744            8.53740
     38       0.00000           0.336752            9.16350
     39       0.00000           0.347516            9.45639
     40       0.00000           0.378580           10.30168
     41       0.00000           0.379412           10.32432
     42       0.00000           0.405479           11.03365
     43       0.00000           0.412009           11.21135
     44       0.00000           0.425634           11.58209
     45       0.00000           0.442523           12.04166
     46       0.00000           0.449172           12.22260
     47       0.00000           0.459339           12.49925
     48       0.00000           0.485513           13.21149
     49       0.00000           0.513522           13.97365
     50       0.00000           0.527603           14.35681
     51       0.00000           0.530988           14.44893

  Highest occupied state (VBM) at    -11.13370966 eV
  | Occupation number:      2.00000000

  Lowest unoccupied state (CBM) at    -2.60879110 eV
  | Occupation number:      0.00000000

  Overall HOMO-LUMO gap:      8.52491856 eV.
  Calculating total energy contributions from superposition of free atom densities.

  Total energy components:
  | Sum of eigenvalues            :        -129.52379122 Ha       -3524.52168489 eV
  | XC energy correction          :         -27.24154131 Ha        -741.28005498 eV
  | XC potential correction       :          34.79342935 Ha         946.77738403 eV
  | Free-atom electrostatic energy:        -107.85979625 Ha       -2935.01438797 eV
  | Hartree energy correction     :           0.00000000 Ha           0.00000000 eV
  | van der Waals energy corr.    :           0.00000000 Ha           0.00000000 eV
  | Entropy correction            :           0.00000000 Ha           0.00000000 eV
  | ---------------------------
  | Total energy                  :        -229.83169944 Ha       -6254.03874381 eV
  | Total energy, T -> 0          :        -229.83169944 Ha       -6254.03874381 eV  <-- do not rely on this value for anything but (periodic) metals
  | Electronic free energy        :        -229.83169944 Ha       -6254.03874381 eV

  Derived energy quantities:
  | Kinetic energy                :         227.31521719 Ha        6185.56177777 eV
  | Electrostatic energy          :        -429.90537533 Ha      -11698.32046659 eV
  | Energy correction for multipole
  | error in Hartree potential    :           0.00000000 Ha           0.00000000 eV
  | Sum of eigenvalues per atom                           :        -391.61352054 eV
  | Total energy (T->0) per atom                          :        -694.89319376 eV  <-- do not rely on this value for anything but (periodic) metals
  | Electronic free energy per atom                       :        -694.89319376 eV
  Initialize hartree_potential_storage
  Max. number of atoms included in rho_multipole:            9

  End scf initialization - timings             :  max(cpu_time)    wall_clock(cpu1)
  | Time for scf. initialization               :        0.655 s           0.655 s
  | Boundary condition initialization          :        0.000 s           0.001 s
  | Integration                                :        0.421 s           0.421 s
  | Solution of K.-S. eqns.                    :        0.065 s           0.065 s
  | Grid partitioning                          :        0.073 s           0.073 s
  | Preloading free-atom quantities on grid    :        0.014 s           0.014 s
  | Free-atom superposition energy             :        0.030 s           0.030 s
  | Total energy evaluation                    :        0.000 s           0.000 s
------------------------------------------------------------

------------------------------------------------------------
          Begin self-consistency iteration #    1

  Date     :  20150727, Time     :  124009.405
------------------------------------------------------------
  Evaluating new KS density.
  Integration grid: deviation in total charge (<rho> - N_e) =  -2.486900E-14
  Pulay mixing of updated and previous charge densities.

  Evaluating partitioned Hartree potential by multipole expansion.
  | Analytical far-field extrapolation by fixed multipoles:
  | Hartree multipole sum: apparent total charge =  -0.133669E-05
  Summing up the Hartree potential.
  Time summed over all CPUs for potential: real work        0.942 s, elapsed        0.949 s
  | RMS charge density error from multipole expansion :   0.113263E-02

  Integrating Hamiltonian matrix: batch-based integration.
  Time summed over all CPUs for integration: real work        2.176 s, elapsed        2.213 s

  Updating Kohn-Sham eigenvalues, eigenvectors, occupation numbers, and Fermi level.
  Solving generalized eigenproblem
  Updating Kohn-Sham eigenvalues and eigenfunctions.
  Solving real generalised eigenvalue problem by standard LAPACK (fast)
  Determining occupation numbers for Kohn-Sham eigenstates.
  | Chemical potential (Fermi level) in eV                 : -.88481996E+01
  | Error in electron count due to remaining E_F inaccuracy: 0.00000000E+00
  | Maximum occupation number of highest empty state:  0.00E+00

  Writing Kohn-Sham eigenvalues.

  State    Occupation    Eigenvalue [Ha]    Eigenvalue [eV]
      1       2.00000         -18.965488         -516.07720
      2       2.00000         -18.954234         -515.77096
      3       2.00000         -18.944654         -515.51028
      4       2.00000          -1.046893          -28.48742
      5       2.00000          -1.022816          -27.83224
      6       2.00000          -1.004265          -27.32745
      7       2.00000          -0.572671          -15.58316
      8       2.00000          -0.559393          -15.22186
      9       2.00000          -0.537826          -14.63498
     10       2.00000          -0.468663          -12.75297
     11       2.00000          -0.450668          -12.26329
     12       2.00000          -0.441341          -12.00950
     13       2.00000          -0.388815          -10.58019
     14       2.00000          -0.378158          -10.29021
     15       2.00000          -0.368664          -10.03185
     16       0.00000          -0.087628           -2.38448
     17       0.00000          -0.064472           -1.75436
     18       0.00000          -0.051057           -1.38933
     19       0.00000          -0.017150           -0.46668
     20       0.00000          -0.003309           -0.09004
     21       0.00000           0.010021            0.27268
     22       0.00000           0.080913            2.20177
     23       0.00000           0.089457            2.43424
     24       0.00000           0.093785            2.55201
     25       0.00000           0.101832            2.77099
     26       0.00000           0.109602            2.98242
     27       0.00000           0.113122            3.07820
     28       0.00000           0.127650            3.47352
     29       0.00000           0.134583            3.66220
     30       0.00000           0.142111            3.86703
     31       0.00000           0.179769            4.89175
     32       0.00000           0.192684            5.24320
     33       0.00000           0.206066            5.60733
     34       0.00000           0.237511            6.46302
     35       0.00000           0.260277            7.08248
     36       0.00000           0.286358            7.79220
     37       0.00000           0.321562            8.75014
     38       0.00000           0.343791            9.35503
     39       0.00000           0.353169            9.61021
     40       0.00000           0.385008           10.47659
     41       0.00000           0.387009           10.53105
     42       0.00000           0.413976           11.26486
     43       0.00000           0.420054           11.43024
     44       0.00000           0.434337           11.81890
     45       0.00000           0.452231           12.30582
     46       0.00000           0.458758           12.48344
     47       0.00000           0.468348           12.74440
     48       0.00000           0.496193           13.50209
     49       0.00000           0.525239           14.29248
     50       0.00000           0.538467           14.65243
     51       0.00000           0.540409           14.70527

  Highest occupied state (VBM) at    -10.03184857 eV
  | Occupation number:      2.00000000

  Lowest unoccupied state (CBM) at    -2.38448455 eV
  | Occupation number:      0.00000000

  Overall HOMO-LUMO gap:      7.64736402 eV.

  Total energy components:
  | Sum of eigenvalues            :        -128.20909930 Ha       -3488.74709742 eV
  | XC energy correction          :         -27.38568855 Ha        -745.20250081 eV
  | XC potential correction       :          34.98288852 Ha         951.93283053 eV
  | Free-atom electrostatic energy:        -107.85979625 Ha       -2935.01438797 eV
  | Hartree energy correction     :          -1.27238824 Ha         -34.62344555 eV
  | van der Waals energy corr.    :           0.00000000 Ha           0.00000000 eV
  | Entropy correction            :           0.00000000 Ha           0.00000000 eV
  | ---------------------------
  | Total energy                  :        -229.74408381 Ha       -6251.65460122 eV
  | Total energy, T -> 0          :        -229.74408381 Ha       -6251.65460122 eV  <-- do not rely on this value for anything but (periodic) metals
  | Electronic free energy        :        -229.74408381 Ha       -6251.65460122 eV

  Derived energy quantities:
  | Kinetic energy                :         228.15123887 Ha        6208.31108505 eV
  | Electrostatic energy          :        -430.50963414 Ha      -11714.76318546 eV
  | Energy correction for multipole
  | error in Hartree potential    :          -0.00019632 Ha          -0.00534216 eV
  | Sum of eigenvalues per atom                           :        -387.63856638 eV
  | Total energy (T->0) per atom                          :        -694.62828902 eV  <-- do not rely on this value for anything but (periodic) metals
  | Electronic free energy per atom                       :        -694.62828902 eV

  Self-consistency convergence accuracy:
  | Change of charge density      : 0.5078E+00
  | Change of sum of eigenvalues  : 0.3577E+02 eV
  | Change of total energy        : 0.2384E+01 eV

  End self-consistency iteration #     1       :  max(cpu_time)    wall_clock(cpu1)
  | Time for this iteration                    :        0.626 s           0.626 s
  | Charge density update                      :        0.206 s           0.206 s
  | Density mixing                             :        0.002 s           0.002 s
  | Hartree multipole update                   :        0.004 s           0.004 s
  | Hartree multipole summation                :        0.119 s           0.119 s
  | Integration                                :        0.278 s           0.278 s
  | Solution of K.-S. eqns.                    :        0.016 s           0.016 s
  | Total energy evaluation                    :        0.001 s           0.000 s
------------------------------------------------------------

------------------------------------------------------------
          Begin self-consistency iteration #    2

  Date     :  20150727, Time     :  124010.031
------------------------------------------------------------
  Evaluating new KS density.
  Integration grid: deviation in total charge (<rho> - N_e) =  -7.105427E-15
  Pulay mixing of updated and previous charge densities.

  Evaluating partitioned Hartree potential by multipole expansion.
  | Analytical far-field extrapolation by fixed multipoles:
  | Hartree multipole sum: apparent total charge =  -0.377873E-05
  Summing up the Hartree potential.
  Time summed over all CPUs for potential: real work        0.942 s, elapsed        0.949 s
  | RMS charge density error from multipole expansion :   0.434302E-02

  Integrating Hamiltonian matrix: batch-based integration.
  Time summed over all CPUs for integration: real work        2.172 s, elapsed        2.225 s

  Updating Kohn-Sham eigenvalues, eigenvectors, occupation numbers, and Fermi level.
  Solving generalized eigenproblem
  Updating Kohn-Sham eigenvalues and eigenfunctions.
  Solving real generalised eigenvalue problem by standard LAPACK (fast)
  Determining occupation numbers for Kohn-Sham eigenstates.
  | Chemical potential (Fermi level) in eV                 : -.42080064E+01
  | Error in electron count due to remaining E_F inaccuracy: 0.00000000E+00
  | Maximum occupation number of highest empty state:  0.00E+00

  Highest occupied state (VBM) at     -7.64827832 eV
  | Occupation number:      2.00000000

  Lowest unoccupied state (CBM) at    -1.88803194 eV
  | Occupation number:      0.00000000

  Overall HOMO-LUMO gap:      5.76024638 eV.

  Total energy components:
  | Sum of eigenvalues            :        -125.37597453 Ha       -3411.65384999 eV
  | XC energy correction          :         -27.71061663 Ha        -754.04424385 eV
  | XC potential correction       :          35.40972081 Ha         963.54752791 eV
  | Free-atom electrostatic energy:        -107.85979625 Ha       -2935.01438797 eV
  | Hartree energy correction     :          -4.11475431 Ha        -111.96816161 eV
  | van der Waals energy corr.    :           0.00000000 Ha           0.00000000 eV
  | Entropy correction            :           0.00000000 Ha           0.00000000 eV
  | ---------------------------
  | Total energy                  :        -229.65142092 Ha       -6249.13311550 eV
  | Total energy, T -> 0          :        -229.65142092 Ha       -6249.13311550 eV  <-- do not rely on this value for anything but (periodic) metals
  | Electronic free energy        :        -229.65142092 Ha       -6249.13311550 eV

  Derived energy quantities:
  | Kinetic energy                :         229.66965545 Ha        6249.62930230 eV
  | Electrostatic energy          :        -431.61045973 Ha      -11744.71817396 eV
  | Energy correction for multipole
  | error in Hartree potential    :          -0.00110186 Ha          -0.02998304 eV
  | Sum of eigenvalues per atom                           :        -379.07265000 eV
  | Total energy (T->0) per atom                          :        -694.34812394 eV  <-- do not rely on this value for anything but (periodic) metals
  | Electronic free energy per atom                       :        -694.34812394 eV

  Self-consistency convergence accuracy:
  | Change of charge density      : 0.3805E+00
  | Change of sum of eigenvalues  : 0.7709E+02 eV
  | Change of total energy        : 0.2521E+01 eV

  End self-consistency iteration #     2       :  max(cpu_time)    wall_clock(cpu1)
  | Time for this iteration                    :        0.625 s           0.625 s
  | Charge density update                      :        0.203 s           0.203 s
  | Density mixing                             :        0.004 s           0.004 s
  | Hartree multipole update                   :        0.003 s           0.003 s
  | Hartree multipole summation                :        0.120 s           0.120 s
  | Integration                                :        0.279 s           0.279 s
  | Solution of K.-S. eqns.                    :        0.016 s           0.016 s
  | Total energy evaluation                    :        0.000 s           0.000 s
------------------------------------------------------------

------------------------------------------------------------
          Begin self-consistency iteration #    3

  Date     :  20150727, Time     :  124010.656
------------------------------------------------------------
  Evaluating new KS density.
  Integration grid: deviation in total charge (<rho> - N_e) =  -1.421085E-14
  Pulay mixing of updated and previous charge densities.

  Evaluating partitioned Hartree potential by multipole expansion.
  | Analytical far-field extrapolation by fixed multipoles:
  | Hartree multipole sum: apparent total charge =  -0.408791E-05
  Summing up the Hartree potential.
  Time summed over all CPUs for potential: real work        0.942 s, elapsed        0.949 s
  | RMS charge density error from multipole expansion :   0.956248E-02

  Integrating Hamiltonian matrix: batch-based integration.
  Time summed over all CPUs for integration: real work        2.173 s, elapsed        2.222 s

  Updating Kohn-Sham eigenvalues, eigenvectors, occupation numbers, and Fermi level.
  Solving generalized eigenproblem
  Updating Kohn-Sham eigenvalues and eigenfunctions.
  Solving real generalised eigenvalue problem by standard LAPACK (fast)
  Determining occupation numbers for Kohn-Sham eigenstates.
  | Chemical potential (Fermi level) in eV                 : -.59927786E+01
  | Error in electron count due to remaining E_F inaccuracy: 0.00000000E+00
  | Maximum occupation number of highest empty state:  0.00E+00

  Highest occupied state (VBM) at     -7.58680468 eV
  | Occupation number:      2.00000000

  Lowest unoccupied state (CBM) at    -1.73040480 eV
  | Occupation number:      0.00000000

  Overall HOMO-LUMO gap:      5.85639989 eV.

  Total energy components:
  | Sum of eigenvalues            :        -125.53487462 Ha       -3415.97774139 eV
  | XC energy correction          :         -27.69510767 Ha        -753.62222370 eV
  | XC potential correction       :          35.38724704 Ha         962.93598569 eV
  | Free-atom electrostatic energy:        -107.85979625 Ha       -2935.01438797 eV
  | Hartree energy correction     :          -3.94549817 Ha        -107.36246773 eV
  | van der Waals energy corr.    :           0.00000000 Ha           0.00000000 eV
  | Entropy correction            :           0.00000000 Ha           0.00000000 eV
  | ---------------------------
  | Total energy                  :        -229.64802967 Ha       -6249.04083509 eV
  | Total energy, T -> 0          :        -229.64802967 Ha       -6249.04083509 eV  <-- do not rely on this value for anything but (periodic) metals
  | Electronic free energy        :        -229.64802967 Ha       -6249.04083509 eV

  Derived energy quantities:
  | Kinetic energy                :         228.37574780 Ha        6214.42028379 eV
  | Electrostatic energy          :        -430.32866980 Ha      -11709.83889517 eV
  | Energy correction for multipole
  | error in Hartree potential    :          -0.00408100 Ha          -0.11104953 eV
  | Sum of eigenvalues per atom                           :        -379.55308238 eV
  | Total energy (T->0) per atom                          :        -694.33787057 eV  <-- do not rely on this value for anything but (periodic) metals
  | Electronic free energy per atom                       :        -694.33787057 eV

  Self-consistency convergence accuracy:
  | Change of charge density      : 0.2042E+00
  | Change of sum of eigenvalues  : -.4324E+01 eV
  | Change of total energy        : 0.9228E-01 eV

  End self-consistency iteration #     3       :  max(cpu_time)    wall_clock(cpu1)
  | Time for this iteration                    :        0.625 s           0.625 s
  | Charge density update                      :        0.203 s           0.203 s
  | Density mixing                             :        0.004 s           0.004 s
  | Hartree multipole update                   :        0.004 s           0.004 s
  | Hartree multipole summation                :        0.119 s           0.119 s
  | Integration                                :        0.279 s           0.279 s
  | Solution of K.-S. eqns.                    :        0.016 s           0.016 s
  | Total energy evaluation                    :        0.000 s           0.000 s
------------------------------------------------------------

------------------------------------------------------------
          Begin self-consistency iteration #    4

  Date     :  20150727, Time     :  124011.281
------------------------------------------------------------
  Evaluating new KS density.
  Integration grid: deviation in total charge (<rho> - N_e) =  -7.105427E-15
  Pulay mixing of updated and previous charge densities.

  Evaluating partitioned Hartree potential by multipole expansion.
  | Analytical far-field extrapolation by fixed multipoles:
  | Hartree multipole sum: apparent total charge =  -0.508092E-05
  Summing up the Hartree potential.
  Time summed over all CPUs for potential: real work        0.941 s, elapsed        0.948 s
  | RMS charge density error from multipole expansion :   0.124021E-01

  Integrating Hamiltonian matrix: batch-based integration.
  Time summed over all CPUs for integration: real work        2.165 s, elapsed        2.203 s

  Updating Kohn-Sham eigenvalues, eigenvectors, occupation numbers, and Fermi level.
  Solving generalized eigenproblem
  Updating Kohn-Sham eigenvalues and eigenfunctions.
  Solving real generalised eigenvalue problem by standard LAPACK (fast)
  Determining occupation numbers for Kohn-Sham eigenstates.
  | Chemical potential (Fermi level) in eV                 : -.26094912E+01
  | Error in electron count due to remaining E_F inaccuracy: 0.00000000E+00
  | Maximum occupation number of highest empty state:  0.00E+00

  Highest occupied state (VBM) at     -6.62284995 eV
  | Occupation number:      2.00000000

  Lowest unoccupied state (CBM) at    -1.50338673 eV
  | Occupation number:      0.00000000

  Overall HOMO-LUMO gap:      5.11946322 eV.

  Total energy components:
  | Sum of eigenvalues            :        -124.50376958 Ha       -3387.91994566 eV
  | XC energy correction          :         -27.82734805 Ha        -757.22066744 eV
  | XC potential correction       :          35.56076423 Ha         967.65762865 eV
  | Free-atom electrostatic energy:        -107.85979625 Ha       -2935.01438797 eV
  | Hartree energy correction     :          -5.01049639 Ha        -136.34254370 eV
  | van der Waals energy corr.    :           0.00000000 Ha           0.00000000 eV
  | Entropy correction            :           0.00000000 Ha           0.00000000 eV
  | ---------------------------
  | Total energy                  :        -229.64064604 Ha       -6248.83991612 eV
  | Total energy, T -> 0          :        -229.64064604 Ha       -6248.83991612 eV  <-- do not rely on this value for anything but (periodic) metals
  | Electronic free energy        :        -229.64064604 Ha       -6248.83991612 eV

  Derived energy quantities:
  | Kinetic energy                :         228.53840195 Ha        6218.84632854 eV
  | Electrostatic energy          :        -430.35169994 Ha      -11710.46557721 eV
  | Energy correction for multipole
  | error in Hartree potential    :          -0.00535036 Ha          -0.14559067 eV
  | Sum of eigenvalues per atom                           :        -376.43554952 eV
  | Total energy (T->0) per atom                          :        -694.31554624 eV  <-- do not rely on this value for anything but (periodic) metals
  | Electronic free energy per atom                       :        -694.31554624 eV

  Self-consistency convergence accuracy:
  | Change of charge density      : 0.1085E+00
  | Change of sum of eigenvalues  : 0.2806E+02 eV
  | Change of total energy        : 0.2009E+00 eV

  End self-consistency iteration #     4       :  max(cpu_time)    wall_clock(cpu1)
  | Time for this iteration                    :        0.623 s           0.623 s
  | Charge density update                      :        0.202 s           0.203 s
  | Density mixing                             :        0.005 s           0.004 s
  | Hartree multipole update                   :        0.003 s           0.003 s
  | Hartree multipole summation                :        0.120 s           0.119 s
  | Integration                                :        0.276 s           0.276 s
  | Solution of K.-S. eqns.                    :        0.016 s           0.016 s
  | Total energy evaluation                    :        0.000 s           0.000 s
------------------------------------------------------------

------------------------------------------------------------
          Begin self-consistency iteration #    5

  Date     :  20150727, Time     :  124011.904
------------------------------------------------------------
  Evaluating new KS density.
  Integration grid: deviation in total charge (<rho> - N_e) =   1.065814E-14
  Pulay mixing of updated and previous charge densities.

  Evaluating partitioned Hartree potential by multipole expansion.
  | Analytical far-field extrapolation by fixed multipoles:
  | Hartree multipole sum: apparent total charge =  -0.498349E-05
  Summing up the Hartree potential.
  Time summed over all CPUs for potential: real work        0.942 s, elapsed        0.949 s
  | RMS charge density error from multipole expansion :   0.124286E-01

  Integrating Hamiltonian matrix: batch-based integration.
  Time summed over all CPUs for integration: real work        2.168 s, elapsed        2.210 s

  Updating Kohn-Sham eigenvalues, eigenvectors, occupation numbers, and Fermi level.
  Solving generalized eigenproblem
  Updating Kohn-Sham eigenvalues and eigenfunctions.
  Solving real generalised eigenvalue problem by standard LAPACK (fast)
  Determining occupation numbers for Kohn-Sham eigenstates.
  | Chemical potential (Fermi level) in eV                 : -.26451153E+01
  | Error in electron count due to remaining E_F inaccuracy: 0.00000000E+00
  | Maximum occupation number of highest empty state:  0.00E+00

  Highest occupied state (VBM) at     -6.56968734 eV
  | Occupation number:      2.00000000

  Lowest unoccupied state (CBM) at    -1.52071309 eV
  | Occupation number:      0.00000000

  Overall HOMO-LUMO gap:      5.04897425 eV.

  Total energy components:
  | Sum of eigenvalues            :        -124.56292971 Ha       -3389.52977466 eV
  | XC energy correction          :         -27.81969059 Ha        -757.01229723 eV
  | XC potential correction       :          35.55050799 Ha         967.37854220 eV
  | Free-atom electrostatic energy:        -107.85979625 Ha       -2935.01438797 eV
  | Hartree energy correction     :          -4.94856711 Ha        -134.65736241 eV
  | van der Waals energy corr.    :           0.00000000 Ha           0.00000000 eV
  | Entropy correction            :           0.00000000 Ha           0.00000000 eV
  | ---------------------------
  | Total energy                  :        -229.64047566 Ha       -6248.83528007 eV
  | Total energy, T -> 0          :        -229.64047566 Ha       -6248.83528007 eV  <-- do not rely on this value for anything but (periodic) metals
  | Electronic free energy        :        -229.64047566 Ha       -6248.83528007 eV

  Derived energy quantities:
  | Kinetic energy                :         228.54864140 Ha        6219.12495798 eV
  | Electrostatic energy          :        -430.36942647 Ha      -11710.94794082 eV
  | Energy correction for multipole
  | error in Hartree potential    :          -0.00525727 Ha          -0.14305760 eV
  | Sum of eigenvalues per atom                           :        -376.61441941 eV
  | Total energy (T->0) per atom                          :        -694.31503112 eV  <-- do not rely on this value for anything but (periodic) metals
  | Electronic free energy per atom                       :        -694.31503112 eV

  Self-consistency convergence accuracy:
  | Change of charge density      : 0.1837E-01
  | Change of sum of eigenvalues  : -.1610E+01 eV
  | Change of total energy        : 0.4636E-02 eV

  End self-consistency iteration #     5       :  max(cpu_time)    wall_clock(cpu1)
  | Time for this iteration                    :        0.625 s           0.625 s
  | Charge density update                      :        0.203 s           0.203 s
  | Density mixing                             :        0.005 s           0.006 s
  | Hartree multipole update                   :        0.004 s           0.004 s
  | Hartree multipole summation                :        0.119 s           0.119 s
  | Integration                                :        0.277 s           0.277 s
  | Solution of K.-S. eqns.                    :        0.016 s           0.016 s
  | Total energy evaluation                    :        0.000 s           0.000 s
------------------------------------------------------------

------------------------------------------------------------
          Begin self-consistency iteration #    6

  Date     :  20150727, Time     :  124012.530
------------------------------------------------------------
  Evaluating new KS density.
  Integration grid: deviation in total charge (<rho> - N_e) =   0.000000E+00
  Pulay mixing of updated and previous charge densities.

  Evaluating partitioned Hartree potential by multipole expansion.
  | Analytical far-field extrapolation by fixed multipoles:
  | Hartree multipole sum: apparent total charge =  -0.505388E-05
  Summing up the Hartree potential.
  Time summed over all CPUs for potential: real work        0.942 s, elapsed        0.949 s
  | RMS charge density error from multipole expansion :   0.126986E-01

  Integrating Hamiltonian matrix: batch-based integration.
  Time summed over all CPUs for integration: real work        2.164 s, elapsed        2.203 s

  Updating Kohn-Sham eigenvalues, eigenvectors, occupation numbers, and Fermi level.
  Solving generalized eigenproblem
  Updating Kohn-Sham eigenvalues and eigenfunctions.
  Solving real generalised eigenvalue problem by standard LAPACK (fast)
  Determining occupation numbers for Kohn-Sham eigenstates.
  | Chemical potential (Fermi level) in eV                 : -.26148885E+01
  | Error in electron count due to remaining E_F inaccuracy: 0.00000000E+00
  | Maximum occupation number of highest empty state:  0.00E+00

  Highest occupied state (VBM) at     -6.51115467 eV
  | Occupation number:      2.00000000

  Lowest unoccupied state (CBM) at    -1.50244942 eV
  | Occupation number:      0.00000000

  Overall HOMO-LUMO gap:      5.00870525 eV.

  Total energy components:
  | Sum of eigenvalues            :        -124.49475283 Ha       -3387.67458748 eV
  | XC energy correction          :         -27.82880928 Ha        -757.26042956 eV
  | XC potential correction       :          35.56243172 Ha         967.70300340 eV
  | Free-atom electrostatic energy:        -107.85979625 Ha       -2935.01438797 eV
  | Hartree energy correction     :          -5.01963682 Ha        -136.59126755 eV
  | van der Waals energy corr.    :           0.00000000 Ha           0.00000000 eV
  | Entropy correction            :           0.00000000 Ha           0.00000000 eV
  | ---------------------------
  | Total energy                  :        -229.64056346 Ha       -6248.83766915 eV
  | Total energy, T -> 0          :        -229.64056346 Ha       -6248.83766915 eV  <-- do not rely on this value for anything but (periodic) metals
  | Electronic free energy        :        -229.64056346 Ha       -6248.83766915 eV

  Derived energy quantities:
  | Kinetic energy                :         228.55428571 Ha        6219.27854747 eV
  | Electrostatic energy          :        -430.36603989 Ha      -11710.85578706 eV
  | Energy correction for multipole
  | error in Hartree potential    :          -0.00535969 Ha          -0.14584453 eV
  | Sum of eigenvalues per atom                           :        -376.40828750 eV
  | Total energy (T->0) per atom                          :        -694.31529657 eV  <-- do not rely on this value for anything but (periodic) metals
  | Electronic free energy per atom                       :        -694.31529657 eV

  Self-consistency convergence accuracy:
  | Change of charge density      : 0.6261E-02
  | Change of sum of eigenvalues  : 0.1855E+01 eV
  | Change of total energy        : -.2389E-02 eV

  End self-consistency iteration #     6       :  max(cpu_time)    wall_clock(cpu1)
  | Time for this iteration                    :        0.624 s           0.623 s
  | Charge density update                      :        0.202 s           0.201 s
  | Density mixing                             :        0.006 s           0.007 s
  | Hartree multipole update                   :        0.004 s           0.003 s
  | Hartree multipole summation                :        0.119 s           0.120 s
  | Integration                                :        0.276 s           0.276 s
  | Solution of K.-S. eqns.                    :        0.016 s           0.016 s
  | Total energy evaluation                    :        0.000 s           0.000 s
------------------------------------------------------------

------------------------------------------------------------
          Begin self-consistency iteration #    7

  Date     :  20150727, Time     :  124013.153
------------------------------------------------------------
  Evaluating new KS density.
  Integration grid: deviation in total charge (<rho> - N_e) =   3.552714E-15
  Pulay mixing of updated and previous charge densities.

  Evaluating partitioned Hartree potential by multipole expansion.
  | Analytical far-field extrapolation by fixed multipoles:
  | Hartree multipole sum: apparent total charge =  -0.490815E-05
  Summing up the Hartree potential.
  Time summed over all CPUs for potential: real work        0.941 s, elapsed        0.948 s
  | RMS charge density error from multipole expansion :   0.126667E-01

  Integrating Hamiltonian matrix: batch-based integration.
  Time summed over all CPUs for integration: real work        2.163 s, elapsed        2.199 s

  Updating Kohn-Sham eigenvalues, eigenvectors, occupation numbers, and Fermi level.
  Solving generalized eigenproblem
  Updating Kohn-Sham eigenvalues and eigenfunctions.
  Solving real generalised eigenvalue problem by standard LAPACK (fast)
  Determining occupation numbers for Kohn-Sham eigenstates.
  | Chemical potential (Fermi level) in eV                 : -.26590104E+01
  | Error in electron count due to remaining E_F inaccuracy: 0.00000000E+00
  | Maximum occupation number of highest empty state:  0.00E+00

  Highest occupied state (VBM) at     -6.59946852 eV
  | Occupation number:      2.00000000

  Lowest unoccupied state (CBM) at    -1.52687551 eV
  | Occupation number:      0.00000000

  Overall HOMO-LUMO gap:      5.07259301 eV.

  Total energy components:
  | Sum of eigenvalues            :        -124.58608074 Ha       -3390.15974623 eV
  | XC energy correction          :         -27.81650085 Ha        -756.92550009 eV
  | XC potential correction       :          35.54596787 Ha         967.25499905 eV
  | Free-atom electrostatic energy:        -107.85979625 Ha       -2935.01438797 eV
  | Hartree energy correction     :          -4.92405900 Ha        -133.99046265 eV
  | van der Waals energy corr.    :           0.00000000 Ha           0.00000000 eV
  | Entropy correction            :           0.00000000 Ha           0.00000000 eV
  | ---------------------------
  | Total energy                  :        -229.64046897 Ha       -6248.83509788 eV
  | Total energy, T -> 0          :        -229.64046897 Ha       -6248.83509788 eV  <-- do not rely on this value for anything but (periodic) metals
  | Electronic free energy        :        -229.64046897 Ha       -6248.83509788 eV

  Derived energy quantities:
  | Kinetic energy                :         228.58846170 Ha        6220.20852364 eV
  | Electrostatic energy          :        -430.41242982 Ha      -11712.11812143 eV
  | Energy correction for multipole
  | error in Hartree potential    :          -0.00516744 Ha          -0.14061323 eV
  | Sum of eigenvalues per atom                           :        -376.68441625 eV
  | Total energy (T->0) per atom                          :        -694.31501088 eV  <-- do not rely on this value for anything but (periodic) metals
  | Electronic free energy per atom                       :        -694.31501088 eV

  Self-consistency convergence accuracy:
  | Change of charge density      : 0.9616E-02
  | Change of sum of eigenvalues  : -.2485E+01 eV
  | Change of total energy        : 0.2571E-02 eV

  End self-consistency iteration #     7       :  max(cpu_time)    wall_clock(cpu1)
  | Time for this iteration                    :        0.625 s           0.626 s
  | Charge density update                      :        0.203 s           0.203 s
  | Density mixing                             :        0.007 s           0.008 s
  | Hartree multipole update                   :        0.004 s           0.003 s
  | Hartree multipole summation                :        0.119 s           0.119 s
  | Integration                                :        0.276 s           0.276 s
  | Solution of K.-S. eqns.                    :        0.016 s           0.016 s
  | Total energy evaluation                    :        0.000 s           0.000 s
------------------------------------------------------------

------------------------------------------------------------
          Begin self-consistency iteration #    8

  Date     :  20150727, Time     :  124013.779
------------------------------------------------------------
  Evaluating new KS density.
  Integration grid: deviation in total charge (<rho> - N_e) =  -1.065814E-14
  Pulay mixing of updated and previous charge densities.

  Evaluating partitioned Hartree potential by multipole expansion.
  | Analytical far-field extrapolation by fixed multipoles:
  | Hartree multipole sum: apparent total charge =  -0.490494E-05
  Summing up the Hartree potential.
  Time summed over all CPUs for potential: real work        0.941 s, elapsed        0.948 s
  | RMS charge density error from multipole expansion :   0.126734E-01

  Integrating Hamiltonian matrix: batch-based integration.
  Time summed over all CPUs for integration: real work        2.157 s, elapsed        2.191 s

  Updating Kohn-Sham eigenvalues, eigenvectors, occupation numbers, and Fermi level.
  Solving generalized eigenproblem
  Updating Kohn-Sham eigenvalues and eigenfunctions.
  Solving real generalised eigenvalue problem by standard LAPACK (fast)
  Determining occupation numbers for Kohn-Sham eigenstates.
  | Chemical potential (Fermi level) in eV                 : -.26595765E+01
  | Error in electron count due to remaining E_F inaccuracy: 0.00000000E+00
  | Maximum occupation number of highest empty state:  0.00E+00

  Highest occupied state (VBM) at     -6.59783926 eV
  | Occupation number:      2.00000000

  Lowest unoccupied state (CBM) at    -1.52704711 eV
  | Occupation number:      0.00000000

  Overall HOMO-LUMO gap:      5.07079214 eV.

  Total energy components:
  | Sum of eigenvalues            :        -124.58731697 Ha       -3390.19338600 eV
  | XC energy correction          :         -27.81638952 Ha        -756.92247062 eV
  | XC potential correction       :          35.54581251 Ha         967.25077167 eV
  | Free-atom electrostatic energy:        -107.85979625 Ha       -2935.01438797 eV
  | Hartree energy correction     :          -4.92277862 Ha        -133.95562196 eV
  | van der Waals energy corr.    :           0.00000000 Ha           0.00000000 eV
  | Entropy correction            :           0.00000000 Ha           0.00000000 eV
  | ---------------------------
  | Total energy                  :        -229.64046886 Ha       -6248.83509487 eV
  | Total energy, T -> 0          :        -229.64046886 Ha       -6248.83509487 eV  <-- do not rely on this value for anything but (periodic) metals
  | Electronic free energy        :        -229.64046886 Ha       -6248.83509487 eV

  Derived energy quantities:
  | Kinetic energy                :         228.58867596 Ha        6220.21435398 eV
  | Electrostatic energy          :        -430.41275530 Ha      -11712.12697823 eV
  | Energy correction for multipole
  | error in Hartree potential    :          -0.00516474 Ha          -0.14053982 eV
  | Sum of eigenvalues per atom                           :        -376.68815400 eV
  | Total energy (T->0) per atom                          :        -694.31501054 eV  <-- do not rely on this value for anything but (periodic) metals
  | Electronic free energy per atom                       :        -694.31501054 eV

  Self-consistency convergence accuracy:
  | Change of charge density      : 0.7556E-03
  | Change of sum of eigenvalues  : -.3364E-01 eV
  | Change of total energy        : 0.3018E-05 eV

  End self-consistency iteration #     8       :  max(cpu_time)    wall_clock(cpu1)
  | Time for this iteration                    :        0.624 s           0.624 s
  | Charge density update                      :        0.202 s           0.202 s
  | Density mixing                             :        0.008 s           0.008 s
  | Hartree multipole update                   :        0.004 s           0.003 s
  | Hartree multipole summation                :        0.119 s           0.119 s
  | Integration                                :        0.275 s           0.274 s
  | Solution of K.-S. eqns.                    :        0.016 s           0.016 s
  | Total energy evaluation                    :        0.000 s           0.001 s
------------------------------------------------------------

------------------------------------------------------------
          Begin self-consistency iteration #    9

  Date     :  20150727, Time     :  124014.403
------------------------------------------------------------
  Evaluating new KS density.
  Integration grid: deviation in total charge (<rho> - N_e) =  -7.105427E-15
  Pulay mixing of updated and previous charge densities.

  Evaluating partitioned Hartree potential by multipole expansion.
  | Analytical far-field extrapolation by fixed multipoles:
  | Hartree multipole sum: apparent total charge =  -0.489962E-05
  Summing up the Hartree potential.
  Time summed over all CPUs for potential: real work        0.941 s, elapsed        0.948 s
  | RMS charge density error from multipole expansion :   0.126690E-01

  Integrating Hamiltonian matrix: batch-based integration.
  Time summed over all CPUs for integration: real work        2.161 s, elapsed        2.202 s

  Updating Kohn-Sham eigenvalues, eigenvectors, occupation numbers, and Fermi level.
  Solving generalized eigenproblem
  Updating Kohn-Sham eigenvalues and eigenfunctions.
  Solving real generalised eigenvalue problem by standard LAPACK (fast)
  Determining occupation numbers for Kohn-Sham eigenstates.
  | Chemical potential (Fermi level) in eV                 : -.26602472E+01
  | Error in electron count due to remaining E_F inaccuracy: 0.00000000E+00
  | Maximum occupation number of highest empty state:  0.00E+00

  Highest occupied state (VBM) at     -6.60160693 eV
  | Occupation number:      2.00000000

  Lowest unoccupied state (CBM) at    -1.52751539 eV
  | Occupation number:      0.00000000

  Overall HOMO-LUMO gap:      5.07409154 eV.

  Total energy components:
  | Sum of eigenvalues            :        -124.58917865 Ha       -3390.24404469 eV
  | XC energy correction          :         -27.81617309 Ha        -756.91658133 eV
  | XC potential correction       :          35.54552196 Ha         967.24286519 eV
  | Free-atom electrostatic energy:        -107.85979625 Ha       -2935.01438797 eV
  | Hartree energy correction     :          -4.92084227 Ha        -133.90293100 eV
  | van der Waals energy corr.    :           0.00000000 Ha           0.00000000 eV
  | Entropy correction            :           0.00000000 Ha           0.00000000 eV
  | ---------------------------
  | Total energy                  :        -229.64046830 Ha       -6248.83507980 eV
  | Total energy, T -> 0          :        -229.64046830 Ha       -6248.83507980 eV  <-- do not rely on this value for anything but (periodic) metals
  | Electronic free energy        :        -229.64046830 Ha       -6248.83507980 eV

  Derived energy quantities:
  | Kinetic energy                :         228.59042690 Ha        6220.26199937 eV
  | Electrostatic energy          :        -430.41472211 Ha      -11712.18049784 eV
  | Energy correction for multipole
  | error in Hartree potential    :          -0.00515621 Ha          -0.14030764 eV
  | Sum of eigenvalues per atom                           :        -376.69378274 eV
  | Total energy (T->0) per atom                          :        -694.31500887 eV  <-- do not rely on this value for anything but (periodic) metals
  | Electronic free energy per atom                       :        -694.31500887 eV

  Self-consistency convergence accuracy:
  | Change of charge density      : 0.5432E-03
  | Change of sum of eigenvalues  : -.5066E-01 eV
  | Change of total energy        : 0.1507E-04 eV

  End self-consistency iteration #     9       :  max(cpu_time)    wall_clock(cpu1)
  | Time for this iteration                    :        0.626 s           0.626 s
  | Charge density update                      :        0.202 s           0.202 s
  | Density mixing                             :        0.008 s           0.009 s
  | Hartree multipole update                   :        0.004 s           0.003 s
  | Hartree multipole summation                :        0.119 s           0.119 s
  | Integration                                :        0.276 s           0.276 s
  | Solution of K.-S. eqns.                    :        0.017 s           0.017 s
  | Total energy evaluation                    :        0.000 s           0.000 s
------------------------------------------------------------

------------------------------------------------------------
          Begin self-consistency iteration #   10

  Date     :  20150727, Time     :  124015.029
------------------------------------------------------------
  Evaluating new KS density.
  Integration grid: deviation in total charge (<rho> - N_e) =   7.105427E-15
  Pulay mixing of updated and previous charge densities.

  Evaluating partitioned Hartree potential by multipole expansion.
  | Analytical far-field extrapolation by fixed multipoles:
  | Hartree multipole sum: apparent total charge =  -0.489652E-05
  Summing up the Hartree potential.
  Time summed over all CPUs for potential: real work        0.941 s, elapsed        0.947 s
  | RMS charge density error from multipole expansion :   0.126694E-01

  Integrating Hamiltonian matrix: batch-based integration.
  Time summed over all CPUs for integration: real work        2.163 s, elapsed        2.209 s

  Updating Kohn-Sham eigenvalues, eigenvectors, occupation numbers, and Fermi level.
  Solving generalized eigenproblem
  Updating Kohn-Sham eigenvalues and eigenfunctions.
  Solving real generalised eigenvalue problem by standard LAPACK (fast)
  Determining occupation numbers for Kohn-Sham eigenstates.
  | Chemical potential (Fermi level) in eV                 : -.26604724E+01
  | Error in electron count due to remaining E_F inaccuracy: 0.00000000E+00
  | Maximum occupation number of highest empty state:  0.00E+00

  Highest occupied state (VBM) at     -6.60273524 eV
  | Occupation number:      2.00000000

  Lowest unoccupied state (CBM) at    -1.52758541 eV
  | Occupation number:      0.00000000

  Overall HOMO-LUMO gap:      5.07514982 eV.

  Total energy components:
  | Sum of eigenvalues            :        -124.58973075 Ha       -3390.25906808 eV
  | XC energy correction          :         -27.81614099 Ha        -756.91570788 eV
  | XC potential correction       :          35.54547623 Ha         967.24162098 eV
  | Free-atom electrostatic energy:        -107.85979625 Ha       -2935.01438797 eV
  | Hartree energy correction     :          -4.92027644 Ha        -133.88753407 eV
  | van der Waals energy corr.    :           0.00000000 Ha           0.00000000 eV
  | Entropy correction            :           0.00000000 Ha           0.00000000 eV
  | ---------------------------
  | Total energy                  :        -229.64046820 Ha       -6248.83507701 eV
  | Total energy, T -> 0          :        -229.64046820 Ha       -6248.83507701 eV  <-- do not rely on this value for anything but (periodic) metals
  | Electronic free energy        :        -229.64046820 Ha       -6248.83507701 eV

  Derived energy quantities:
  | Kinetic energy                :         228.59096183 Ha        6220.27655550 eV
  | Electrostatic energy          :        -430.41528904 Ha      -11712.19592463 eV
  | Energy correction for multipole
  | error in Hartree potential    :          -0.00515218 Ha          -0.14019802 eV
  | Sum of eigenvalues per atom                           :        -376.69545201 eV
  | Total energy (T->0) per atom                          :        -694.31500856 eV  <-- do not rely on this value for anything but (periodic) metals
  | Electronic free energy per atom                       :        -694.31500856 eV

  Self-consistency convergence accuracy:
  | Change of charge density      : 0.2242E-03
  | Change of sum of eigenvalues  : -.1502E-01 eV
  | Change of total energy        : 0.2788E-05 eV

[...]
  |   Hirshfeld volume        :     22.23675917
  |   Hirshfeld dipole vector :     -0.02805420       0.02606631       0.03589203
  |   Hirshfeld dipole moment :      0.05248551
  |   Hirshfeld second moments:     -0.01158266      -0.05000391       0.02798244
  |                                 -0.05000391      -0.01525851      -0.02639438
  |                                  0.02798244      -0.02639438       0.04093326
  ----------------------------------------------------------------------
  | Atom     5: H
  |   Hirshfeld charge        :      0.14468306
  |   Free atom volume        :     10.44207651
  |   Hirshfeld volume        :      6.31318793
  |   Hirshfeld dipole vector :      0.01986556      -0.01456343       0.12354822
  |   Hirshfeld dipole moment :      0.12597974
  |   Hirshfeld second moments:      0.11412075      -0.01916990       0.00514471
  |                                 -0.01916990       0.11371925      -0.00491132
  |                                  0.00514471      -0.00491132       0.10812351
  ----------------------------------------------------------------------
  | Atom     6: H
  |   Hirshfeld charge        :      0.14575179
  |   Free atom volume        :     10.44207651
  |   Hirshfeld volume        :      6.74157661
  |   Hirshfeld dipole vector :     -0.08593696       0.07951361      -0.01734148
  |   Hirshfeld dipole moment :      0.11835668
  |   Hirshfeld second moments:      0.10227964      -0.00373846       0.00097391
  |                                 -0.00373846       0.09016436       0.00510473
  |                                  0.00097391       0.00510473       0.11983310
  ----------------------------------------------------------------------
  | Atom     7: O
  |   Hirshfeld charge        :     -0.28457587
  |   Free atom volume        :     23.95238533
  |   Hirshfeld volume        :     21.75602187
  |   Hirshfeld dipole vector :      0.04831206       0.01339646      -0.00006271
  |   Hirshfeld dipole moment :      0.05013506
  |   Hirshfeld second moments:      0.01721765      -0.01276098       0.01644866
  |                                 -0.01276098       0.04909232      -0.05197107
  |                                  0.01644866      -0.05197107      -0.01224687
  ----------------------------------------------------------------------
  | Atom     8: H
  |   Hirshfeld charge        :      0.14247986
  |   Free atom volume        :     10.44207651
  |   Hirshfeld volume        :      6.57102301
  |   Hirshfeld dipole vector :      0.10152666      -0.04469935       0.03561124
  |   Hirshfeld dipole moment :      0.11650689
  |   Hirshfeld second moments:      0.11074107       0.00784963      -0.00542005
  |                                  0.00784963       0.11760772      -0.00502858
  |                                 -0.00542005      -0.00502858       0.09587256
  ----------------------------------------------------------------------
  | Atom     9: H
  |   Hirshfeld charge        :      0.14870063
  |   Free atom volume        :     10.44207651
  |   Hirshfeld volume        :      6.10413953
  |   Hirshfeld dipole vector :      0.03791846       0.10629209      -0.05268339
  |   Hirshfeld dipole moment :      0.12454460
  |   Hirshfeld second moments:      0.12680686      -0.01074536       0.00994681
  |                                 -0.01074536       0.11653089      -0.00959157
  |                                  0.00994681      -0.00959157       0.10768717
  ----------------------------------------------------------------------


  Total energy components:
  | Sum of eigenvalues            :        -124.58972203 Ha       -3390.25883100 eV
  | XC energy correction          :         -27.81613878 Ha        -756.91564759 eV
  | XC potential correction       :          35.54547391 Ha         967.24155771 eV
  | Free-atom electrostatic energy:        -107.85979625 Ha       -2935.01438797 eV
  | Hartree energy correction     :          -4.92028502 Ha        -133.88776740 eV
  | van der Waals energy corr.    :          -0.00074582 Ha          -0.02029490 eV
  | Entropy correction            :           0.00000000 Ha           0.00000000 eV
  | ---------------------------
  | Total energy                  :        -229.64121400 Ha       -6248.85537115 eV
  | Total energy, T -> 0          :        -229.64121400 Ha       -6248.85537115 eV  <-- do not rely on this value for anything but (periodic) metals
  | Electronic free energy        :        -229.64121400 Ha       -6248.85537115 eV

  Derived energy quantities:
  | Kinetic energy                :         228.59091488 Ha        6220.27527798 eV
  | Electrostatic energy          :        -430.41524428 Ha      -11712.19470664 eV
  | Energy correction for multipole
  | error in Hartree potential    :          -0.00515158 Ha          -0.14018173 eV
  | Sum of eigenvalues per atom                           :        -376.69542567 eV
  | Total energy (T->0) per atom                          :        -694.31726346 eV  <-- do not rely on this value for anything but (periodic) metals
  | Electronic free energy per atom                       :        -694.31726346 eV

  atomic forces [eV/Ang]:
  -----------------------
  atom #    1
   Hellmann-Feynman + Multipole  : -.735608E+01 -.119424E+02 0.342886E+01
   Pulay + GGA                   : 0.714533E+01 0.156082E+02 -.481495E+01
   Van der Waals               : 0.328183E-03 0.467986E-02 0.307867E-02
   ----------------------------------------------------------------
   Total forces(   1)            : -.210426E+00 0.367045E+01 -.138301E+01
  atom #    2
   Hellmann-Feynman + Multipole  : 0.230956E+01 -.349880E+01 0.160248E+01
   Pulay + GGA                   : -.451560E-01 0.101607E+00 -.578440E-01
   Van der Waals               : 0.109400E-02 0.429595E-02 0.247831E-02
   ----------------------------------------------------------------
   Total forces(   2)            : 0.226550E+01 -.339289E+01 0.154712E+01
  atom #    3
   Hellmann-Feynman + Multipole  : -.220965E+01 -.299297E+00 -.164439E+00
   Pulay + GGA                   : 0.145945E+00 0.473365E-01 0.651227E-02
   Van der Waals               : -.543308E-03 0.274749E-02 0.167590E-02
   ----------------------------------------------------------------
   Total forces(   3)            : -.206425E+01 -.249213E+00 -.156251E+00
  atom #    4
   Hellmann-Feynman + Multipole  : 0.659417E+01 -.820265E+01 -.108948E+02
   Pulay + GGA                   : -.790934E+01 0.972438E+01 0.124302E+02
   Van der Waals               : 0.121621E-03 0.179115E-02 -.827832E-02
   ----------------------------------------------------------------
   Total forces(   4)            : -.131505E+01 0.152352E+01 0.152713E+01
  atom #    5
   Hellmann-Feynman + Multipole  : -.488004E+00 0.331315E+00 -.230233E+01
   Pulay + GGA                   : 0.199058E-01 0.615107E-02 0.144570E+00
   Van der Waals               : 0.293415E-04 0.199854E-03 -.101854E-02
   ----------------------------------------------------------------
   Total forces(   5)            : -.468069E+00 0.337665E+00 -.215878E+01
  atom #    6
   Hellmann-Feynman + Multipole  : 0.190307E+01 -.191896E+01 0.599577E+00
   Pulay + GGA                   : -.960767E-01 0.101445E+00 -.949972E-02
   Van der Waals               : 0.123858E-02 0.119385E-02 -.462018E-02
   ----------------------------------------------------------------
   Total forces(   6)            : 0.180823E+01 -.181632E+01 0.585457E+00
  atom #    7
   Hellmann-Feynman + Multipole  : -.143635E+02 -.493931E+01 0.727084E+00
   Pulay + GGA                   : 0.155133E+02 0.625539E+01 -.129230E+01
   Van der Waals               : -.135352E-03 -.822737E-02 0.361725E-02
   ----------------------------------------------------------------
   Total forces(   7)            : 0.114971E+01 0.130785E+01 -.561603E+00
  atom #    8
   Hellmann-Feynman + Multipole  : -.594349E+00 0.935802E-01 -.851972E-01
   Pulay + GGA                   : 0.127326E+00 -.620732E-01 0.279714E-01
   Van der Waals               : -.197474E-02 -.551001E-02 0.251144E-02
   ----------------------------------------------------------------
   Total forces(   8)            : -.468997E+00 0.259970E-01 -.547144E-01
  atom #    9
   Hellmann-Feynman + Multipole  : -.740654E+00 -.152121E+01 0.730852E+00
   Pulay + GGA                   : 0.506146E-01 0.113740E+00 -.662455E-01
   Van der Waals               : -.158330E-03 -.117078E-02 0.555464E-03
   ----------------------------------------------------------------
   Total forces(   9)            : -.690197E+00 -.140864E+01 0.665162E+00
  Timings for vdw_correction_hirshfeld (Tkatchenko-Scheffler 2009):
  | CPU time:        1.656 s, Wall clock time:        1.656 s.
  Removing unitary transformations (pure translations, rotations) from forces on atoms.
  Atomic forces before filtering:
  | Net force on center of mass :  0.646156E-02 -.158475E-02 0.105187E-01 eV/A
  | Net torque on center of mass:  -.205372E-01 -.367237E-02 -.580450E-02 eV
  Atomic forces after filtering:
  | Net force on center of mass :  -.356812E-15 -.124884E-14 0.535218E-15 eV/A
  | Net torque on center of mass:  -.188817E-14 0.199438E-14 -.377634E-15 eV
 
  Energy and forces in a compact form:
  | Total energy uncorrected      :         -0.624885537115032E+04 eV
  | Total energy corrected        :         -0.624885537115032E+04 eV  <-- do not rely on this value for anything but (periodic) metals
  | Electronic free energy        :         -0.624885537115032E+04 eV
  Total atomic forces (unitary forces cleaned) [eV/Ang]:
  |   1         -0.210847597017476E+00          0.367113685038831E+01         -0.138500018531066E+01
  |   2          0.226483511646956E+01         -0.339217283443380E+01          0.154552434783703E+01
  |   3         -0.206471865359377E+01         -0.248335060146926E+00         -0.158275055350351E+00
  |   4         -0.131540347056778E+01          0.152288615132929E+01          0.152582953815265E+01
  |   5         -0.468282838895766E+00          0.336687034660902E+00         -0.216011895293259E+01
  |   6          0.180770241890442E+01         -0.181705100233412E+01          0.584515688894185E+00
  |   7          0.114848088180722E+01          0.130830645435832E+01         -0.562051322188572E+00
  |   8         -0.470103226028585E+00          0.265071903396699E-01         -0.554114843232543E-01
  |   9         -0.691662631077821E+00         -0.140796478416164E+01          0.664987425221567E+00
 
  ------------------------------------ 
  Start decomposition of the XC Energy 
  ------------------------------------ 
  Hartree-Fock part   :          0.000000000 Ha              0.000000000 eV
  ------------------------------------ 
  X Energy            :        -26.851190062 Ha           -730.658057052 eV
  C Energy GGA        :         -0.964948716 Ha            -26.257590539 eV
  Total XC Energy     :        -27.816138778 Ha           -756.915647591 eV
  LDA X and C from self-consistent density 
  X Energy LDA        :        -24.158387810 Ha           -657.383179589 eV
  C Energy LDA        :         -1.969367390 Ha            -53.589213282 eV
  ------------------------------------ 
  End decomposition of the XC Energy 
  ------------------------------------ 
  Performing Hirshfeld analysis of fragment charges and moments.
  ----------------------------------------------------------------------
  | Atom     1: O
  |   Hirshfeld charge        :     -0.29170618
  |   Free atom volume        :     23.95238533
  |   Hirshfeld volume        :     22.73259886
  |   Hirshfeld dipole vector :      0.02709233       0.04607128      -0.00585009
  |   Hirshfeld dipole moment :      0.05376598
  |   Hirshfeld second moments:      0.05179350      -0.02475117       0.02646287
  |                                 -0.02475117      -0.00977101      -0.02835031
  |                                  0.02646287      -0.02835031      -0.06594417
  ----------------------------------------------------------------------
  | Atom     2: H
  |   Hirshfeld charge        :      0.14823490
  |   Free atom volume        :     10.44207651
  |   Hirshfeld volume        :      6.94692596
  |   Hirshfeld dipole vector :     -0.06503660       0.08731855      -0.04071706
  |   Hirshfeld dipole moment :      0.11624185
  |   Hirshfeld second moments:      0.12848527       0.00585183       0.00381495
  |                                  0.00585183       0.07770016      -0.00289972
  |                                  0.00381495      -0.00289972       0.09225896
  ----------------------------------------------------------------------
  | Atom     3: H
  |   Hirshfeld charge        :      0.13630000
  |   Free atom volume        :     10.44207651
  |   Hirshfeld volume        :      6.72215519
  |   Hirshfeld dipole vector :      0.12271961       0.02268706       0.01016785
  |   Hirshfeld dipole moment :      0.12521258
  |   Hirshfeld second moments:      0.11034729      -0.01140136       0.00570630
  |                                 -0.01140136       0.11165388      -0.01177803
  |                                  0.00570630      -0.01177803       0.08966841
  ----------------------------------------------------------------------
  | Atom     4: O
  |   Hirshfeld charge        :     -0.28992261
  |   Free atom volume        :     23.95238533
  |   Hirshfeld volume        :     22.23675917
  |   Hirshfeld dipole vector :     -0.02805420       0.02606631       0.03589203
  |   Hirshfeld dipole moment :      0.05248551
  |   Hirshfeld second moments:     -0.01158266      -0.05000391       0.02798244
  |                                 -0.05000391      -0.01525851      -0.02639438
  |                                  0.02798244      -0.02639438       0.04093326
  ----------------------------------------------------------------------
  | Atom     5: H
  |   Hirshfeld charge        :      0.14468306
  |   Free atom volume        :     10.44207651
  |   Hirshfeld volume        :      6.31318793
  |   Hirshfeld dipole vector :      0.01986556      -0.01456343       0.12354822
  |   Hirshfeld dipole moment :      0.12597974
  |   Hirshfeld second moments:      0.11412075      -0.01916990       0.00514471
  |                                 -0.01916990       0.11371925      -0.00491132
  |                                  0.00514471      -0.00491132       0.10812351
  ----------------------------------------------------------------------
  | Atom     6: H
  |   Hirshfeld charge        :      0.14575179
  |   Free atom volume        :     10.44207651
  |   Hirshfeld volume        :      6.74157661
  |   Hirshfeld dipole vector :     -0.08593696       0.07951361      -0.01734148
  |   Hirshfeld dipole moment :      0.11835668
  |   Hirshfeld second moments:      0.10227964      -0.00373846       0.00097391
  |                                 -0.00373846       0.09016436       0.00510473
  |                                  0.00097391       0.00510473       0.11983310
  ----------------------------------------------------------------------
  | Atom     7: O
  |   Hirshfeld charge        :     -0.28457587
  |   Free atom volume        :     23.95238533
  |   Hirshfeld volume        :     21.75602187
  |   Hirshfeld dipole vector :      0.04831206       0.01339646      -0.00006271
  |   Hirshfeld dipole moment :      0.05013506
  |   Hirshfeld second moments:      0.01721765      -0.01276098       0.01644866
  |                                 -0.01276098       0.04909232      -0.05197107
  |                                  0.01644866      -0.05197107      -0.01224687
  ----------------------------------------------------------------------
  | Atom     8: H
  |   Hirshfeld charge        :      0.14247986
  |   Free atom volume        :     10.44207651
  |   Hirshfeld volume        :      6.57102301
  |   Hirshfeld dipole vector :      0.10152666      -0.04469935       0.03561124
  |   Hirshfeld dipole moment :      0.11650689
  |   Hirshfeld second moments:      0.11074107       0.00784963      -0.00542005
  |                                  0.00784963       0.11760772      -0.00502858
  |                                 -0.00542005      -0.00502858       0.09587256
  ----------------------------------------------------------------------
  | Atom     9: H
  |   Hirshfeld charge        :      0.14870063
  |   Free atom volume        :     10.44207651
  |   Hirshfeld volume        :      6.10413953
  |   Hirshfeld dipole vector :      0.03791846       0.10629209      -0.05268339
  |   Hirshfeld dipole moment :      0.12454460
  |   Hirshfeld second moments:      0.12680686      -0.01074536       0.00994681
  |                                 -0.01074536       0.11653089      -0.00959157
  |                                  0.00994681      -0.00959157       0.10768717
  ----------------------------------------------------------------------


------------------------------------------------------------------------------
  Final output of selected total energy values:

  The following output summarizes some interesting total energy values
  at the end of a run (AFTER all relaxation, molecular dynamics, etc.).

  | Total energy of the DFT / Hartree-Fock s.c.f. calculation      :          -6248.855371150 eV
  | Final zero-broadening corrected energy (caution - metals only) :          -6248.855371150 eV
  | For reference only, the value of 1 Hartree used in FHI-aims is :             27.211384500 eV

  Before relying on these values, please be sure to understand exactly which
  total energy value is referred to by a given number. Different objects may
  all carry the same name 'total energy'. Definitions:

  Total energy of the DFT / Hartree-Fock s.c.f. calculation:
  | Note that this energy does not include ANY quantities calculated after the
  | s.c.f. cycle, in particular not ANY RPA, MP2, etc. many-body perturbation terms.

  Final zero-broadening corrected energy:
  | For metallic systems only, a broadening of the occupation numbers at the Fermi
  | level can be extrapolated back to zero broadening by an electron-gas inspired
  | formula. For all systems that are not real metals, this value can be
  | meaningless and should be avoided.

------------------------------------------------------------------------------

------------------------------------------------------------
          Leaving FHI-aims.
          Date     :  20150727, Time     :  124020.081

          Computational steps:
          | Number of self-consistency cycles          :           15

          Detailed time accounting                     :  max(cpu_time)    wall_clock(cpu1)
          | Total time                                 :       11.895 s          11.909 s
          | Preparation time                           :        0.172 s           0.562 s
          | Grid partitioning                          :        0.073 s           0.073 s
          | Preloading free-atom quantities on grid    :        0.014 s           0.014 s
          | Free-atom superposition energy             :        0.030 s           0.030 s
          | Total time for integrations                :        4.568 s           4.567 s
          | Total time for solution of K.-S. equations :        0.307 s           0.307 s
          | Total time for density & force components  :        3.869 s           3.869 s
          | Total time for mixing                      :        0.110 s           0.113 s
          | Total time for Hartree multipole update    :        0.055 s           0.053 s
          | Total time for Hartree multipole sum       :        2.179 s           2.178 s
          | Total time for total energy evaluation     :        0.004 s           0.003 s
          | Total time for scaled ZORA corrections     :        0.000 s           0.000 s
          | Total time for TS (2009) vdW correction    :        0.020 s           0.021 s

          Have a nice day.
------------------------------------------------------------
