  MPI-parallelism will be employed.
------------------------------------------------------------
          Invoking FHI-aims ...
          Version 081213
          Compiled on 2013/08/29 at 17:41:06 on host generoso.

          When using FHI-aims, please cite the following reference:

          Volker Blum, Ralf Gehrke, Felix Hanke, Paula Havu,
          Ville Havu, Xinguo Ren, Karsten Reuter, and Matthias Scheffler,
          'Ab Initio Molecular Simulations with Numeric Atom-Centered Orbitals: FHI-aims',
          Computer Physics Communications 180, 2175-2196 (2009)

          For any questions about FHI-aims, please visit the aimsclub website
          with its forums and wiki. Contributions to both the forums and the
          wiki are warmly encouraged - they are for you, and everyone is welcome there.

------------------------------------------------------------

  Date     :  20150727, Time     :  121315.215
  Time zero on CPU 1             :   0.409930000000000E-01  s.
  Internal wall clock time zero  :           207231195.215  s.

  Using        8 parallel tasks.
  Task        0 on host gen60 reporting.
  Task        1 on host gen60 reporting.
  Task        2 on host gen60 reporting.
  Task        3 on host gen60 reporting.
  Task        4 on host gen60 reporting.
  Task        5 on host gen60 reporting.
  Task        6 on host gen60 reporting.
  Task        7 on host gen60 reporting.

  Performing system and environment tests:
  | Environment variable OMP_NUM_THREADS correctly set to 1.
  | Checking for scalapack...
  | No scalapack compiled in.

  Obtaining array dimensions for all initial allocations:
  
  -----------------------------------------------------------------------
  Parsing control.in (first pass over file, find array dimensions only).
  The contents of control.in will be repeated verbatim below
  unless switched off by setting 'verbatim_writeout .false.' .
  in the first line of control.in .
  -----------------------------------------------------------------------
  
  #########################################################################################
  #
  #  Volker Blum, FHI 2008 : Test run input file control.in
  #
  #########################################################################################
  #
  #  Physical model
  #
    xc                 rpbe
    spin               none
    relativistic       atomic_zora scalar
    charge             0.
   vdw_correction_hirshfeld
  #
  #  SCF convergence
  #
    occupation_type    gaussian 0.01
    mixer              pulay
      n_max_pulay        10
      charge_mix_param   0.1
    sc_accuracy_rho    5E-5
    sc_accuracy_eev    5E-3
    sc_accuracy_etot   5E-6
    sc_iter_limit      3000
  #
  #  Eigenvalue solver
  #
    KS_method          lapack
      empty_states       8
      basis_threshold    0.e-5
  #
  #  Efficiency
  #
  #   all previous settings are now default, except stratmann still
  #   undecided. Continue to handle stratmann with care, if at all.
  #
  #  partition_type stratmann
    partition_type rho_r2
  #  hartree_partition_type stratmann
  #
  #  Oprions for large clusters (100's of atoms: memory saving / better scaling)
  #
  # for periodic systems:
  #
    density_update_method orbital
    packed_matrix_format none
  #  k_grid 6 6 6
  #  output k_eigenvalue 1
  #  distributed_spline_storage .true.
  #
  #  Relaxation
  #
  #  relax_geometry   bfgs 5.e-3
    sc_accuracy_forces 5.E-4
    final_forces_cleaned .true.
  #
  #  Output options
  #
  #  output mulliken
    output Hirshfeld
  #  output dipole
  
  #harmonic_length_scale 0.001
  
  ################################################################################
  #
  #  FHI-aims code project
  #  VB, Fritz-Haber Institut, 2007
  #
  #  Suggested "safe" defaults for H atom (to be pasted into control.in file)
  #  Basis constructed for a non-relativistic H2 molecule using the
  #  PW-LDA functional.
  #
  ################################################################################
    species        H
  #     global species definitions
      nucleus             1
      cut_pot             4.0  2.0  1.0
      cut_free_atom       finite 8.0
      logarithmic         0.00010000 100.00  1.0123
      basis_dep_cutoff    1d-4  # 1d-4 is safe default - please check 5d-4 if you wish!
      radial_base         24 7.0
      radial_multiplier   2
      angular_grids       specified
        division   0.2783  110
        division   0.3822  194
        division   0.5626  302
  #      division   0.5922  434
  #      division   0.6227  590
  #      division   0.7206  770
        outer_grid  302
      l_hartree           4
  ################################################################################
  #
  #  Definition of "minimal" basis
  #
  ################################################################################
  #     valence basis states
      valence      1  s   1.
  #     ion occupancy
      ion_occ      1  s   0.5
  ################################################################################
  #
  #  Suggested additional basis functions. For production calculations,
  #  uncomment them one after another (the most important basis functions are
  #  listed first).
  #
  ################################################################################
  #  "First tier" - improvements: -1014.90 meV to -62.69 meV
       hydro 2 s 2.1
       hydro 2 p 3.5
  #  "Second tier" - improvements: -12.89 meV to -1.83 meV
       hydro 1 s 0.85
       hydro 2 p 3.7
       hydro 2 s 1.2
       hydro 3 d 7
  #  "Third tier" - improvements: -0.25 meV to -0.12 meV
  #     hydro 4 f 11.2
  #     hydro 3 p 4.8
  #     hydro 4 d 9
  #     hydro 3 s 3.2
  
  ################################################################################
  #
  #  FHI-aims code project
  #  VB, Fritz-Haber Institut, 2007
  #
  #  Suggested "safe" defaults for O atom (to be pasted into control.in file)
  #  All values have been tested for a non-relativistic, non-spinpolarized O2
  #  molecule using the PW-LDA functional. Validity for PBE is expected.
  #
  #  Constructed for dimers: 1.0 A, 1.208 A, 1.5 A, 2.0 A, 3.0 A
  #
  ################################################################################
    species        O
  #     global species definitions
      nucleus             8
      mass                15.9994
      l_hartree           4
      cut_pot             4.0  2.0  1.0
      cut_free_atom       finite 8.0
      basis_dep_cutoff    1d-4  # 1d-4 is safe default - please check 5d-4 if you wish!
      logarithmic         0.00010000 100.00  1.0123
      radial_base         36 7.0
      radial_multiplier   2
       angular_grids specified
        division   0.4087  110
        division   0.5181  194
        division   0.6184  302
  #      division   0.7315  434
  #      division   0.7934  590
  #      division   0.9656  770
  #      division   1.4041  974
  #      outer_grid 974
        outer_grid 302
  ################################################################################
  #
  #  Definition of "minimal" basis
  #
  ################################################################################
  #     valence basis states
      valence      2  s   2.
      valence      2  p   4.
  #     ion occupancy
      ion_occ      2  s   1.
      ion_occ      2  p   3.
  ################################################################################
  #
  #  Suggested additional basis functions. For production calculations,
  #  uncomment them one after another (the most important basis functions are
  #  listed first).
  #
  ################################################################################
  #  "First tier" - improvements: -699.05 meV to -159.38 meV
       hydro 2 p 1.8
       hydro 3 d 7.6
       hydro 3 s 6.4
  #  "Second tier" - improvements: -49.91 meV to -5.39 meV
       hydro 4 f 11.6
       hydro 3 p 6.2
       hydro 3 d 5.6
       hydro 5 g 17.6
       hydro 1 s 0.75
  #  "Third tier" - improvements: -2.83 meV to -0.50 meV
  #     ionic 2 p auto
  #     hydro 4 f 10.8
  #     hydro 4 d 4.7
  #     hydro 2 s 6.8
  #  "Fourth tier" - improvements: -0.40 meV to -0.12 meV
  #     hydro 3 p 5
  #     hydro 3 s 3.3
  #     hydro 5 g 15.6
  #     hydro 4 f 17.6
  #     hydro 4 d 14
  # Further basis functions - -0.08 meV and below
  #     hydro 3 s 2.1
  #     hydro 4 d 11.6
  #     hydro 3 p 16
  #     hydro 2 s 17.2
  
  
  -----------------------------------------------------------------------
  Completed first pass over input file control.in .
  -----------------------------------------------------------------------
  
  
  -----------------------------------------------------------------------
  Parsing geometry.in (first pass over file, find array dimensions only).
  The contents of geometry.in will be repeated verbatim below
  unless switched off by setting 'verbatim_writeout .false.' .
  in the first line of geometry.in .
  -----------------------------------------------------------------------
  
  atom      -4.053030000      0.065001000     -1.525160000  O
  atom      -4.566710000      0.974813000     -1.912820000  H
  atom      -3.067820000      0.330172000     -1.477310000  H
  atom      -4.581760000     -0.256435000      0.939478000  O
  atom      -4.349860000      0.471090000      1.504340000  H
  atom      -5.393870000     -0.726611000      1.228070000  H
  atom      -4.066610000      4.258280000     -0.900064000  O
  atom      -3.224110000      3.876870000     -0.569443000  H
  atom      -3.737450000      5.116530000     -1.322720000  H
  
  -----------------------------------------------------------------------
  Completed first pass over input file geometry.in .
  -----------------------------------------------------------------------
  
 
  Basic array size parameters: 
  | Number of species                 :        2
  | Number of atoms                   :        9
  | Max. basis fn. angular momentum   :        4
  | Max. atomic/ionic basis occupied n:        2
  | Max. number of basis fn. types    :        2
  | Max. radial fns per species/type  :        8
  | Max. logarithmic grid size        :     1301
  | Max. radial integration grid size :       73
  | Max. angular integration grid size:      302
  | Max. angular grid division number :        8
  | Radial grid for Hartree potential :     1301
  | Number of spin channels           :        1

------------------------------------------------------------
          Reading file control.in.
------------------------------------------------------------
  XC: Using RPBE gradient-corrected functionals.
  Spin treatment: No spin polarisation.
  Scalar relativistic treatment of kinetic energy: on-site free-atom approximation to ZORA.
  Charge =   0.000000E+00: Neutral system requested explicitly.
  Using non-empirical van der Waals correction (Hirshfeld partitioning):
  Occupation type: Gaussian broadening, width =   0.100000E-01 eV.
  Using pulay charge density mixing.
  Pulay mixing - number of memorized iterations:   10
  Charge density mixing - mixing parameter:     0.1000
  Convergence accuracy of self-consistent charge density: 0.5000E-04
  Convergence accuracy of sum of eigenvalues: 0.5000E-02
  Convergence accuracy of total energy: 0.5000E-05
  Maximum number of s.-c. iterations  :  3000
  Kohn-Sham eigenvalues and eigenfunctions calculated by lapack diagonalisation (D&C).
  Number of empty states per atom:        8
  Threshold for basis singularities: 0.0000E+00
  Partition function in integrals calculations: rho / r^2
 Using packed matrix format           0
  Convergence accuracy of forces: 0.5000E-03
  Cleaning forces before final output.
  Hirshfeld charge analysis will be performed.
 
  Reading configuration options for species H                   .
  | Found nuclear charge :   1.0000
  | Found cutoff potl. onset [A], width [A], scale factor :    4.00000    2.00000    1.00000
  | Found cutoff specification for free atom: Cutoff potential begins at    8.00000 A.
  | Found logarithmic grid data [bohr] : 0.1000E-03 0.1000E+03 0.1012E+01
  | Threshold for basis-dependent cutoff potential is   0.100000E-03
  | Found data for basic radial integration grid :    24 points, outermost radius =    7.000 A
  | Found multiplier for basic radial grid :   2
  | Found angular grid specification: user-specified.
  | Specified grid contains     4 separate shells.
  | Check grid settings after all constraints further below.
  | Found l_max for Hartree potential  :   4
  | Found free-atom valence shell :  1 s   1.000
  | No ionic wave fns used. Skipping ion_occ.
  | Found hydrogenic basis function :  2 s   2.100
  | Found hydrogenic basis function :  2 p   3.500
  | Found hydrogenic basis function :  1 s   0.850
  | Found hydrogenic basis function :  2 p   3.700
  | Found hydrogenic basis function :  2 s   1.200
  | Found hydrogenic basis function :  3 d   7.000
  Species H                   : Missing cutoff potential type.
  Defaulting to exp(1/x)/(1-x)^2 type cutoff potential.
  Species H : On-site basis accuracy parameter (for Gram-Schmidt orthonormalisation) not specified.
  Using default value basis_acc =  0.1000000E-03.
  Species H                   : Using default innermost maximum threshold i_radial=  2 for radial functions.
  Species H                   : Basic radial grid will be enhanced according to radial_multiplier =   2, to contain    49 grid points.
 
  Reading configuration options for species O                   .
  | Found nuclear charge :   8.0000
  | Found atomic mass :    15.9994000000000      amu
  | Found l_max for Hartree potential  :   4
  | Found cutoff potl. onset [A], width [A], scale factor :    4.00000    2.00000    1.00000
  | Found cutoff specification for free atom: Cutoff potential begins at    8.00000 A.
  | Threshold for basis-dependent cutoff potential is   0.100000E-03
  | Found logarithmic grid data [bohr] : 0.1000E-03 0.1000E+03 0.1012E+01
  | Found data for basic radial integration grid :    36 points, outermost radius =    7.000 A
  | Found multiplier for basic radial grid :   2
  | Found angular grid specification: user-specified.
  | Specified grid contains     4 separate shells.
  | Check grid settings after all constraints further below.
  | Found free-atom valence shell :  2 s   2.000
  | Found free-atom valence shell :  2 p   4.000
  | No ionic wave fns used. Skipping ion_occ.
  | No ionic wave fns used. Skipping ion_occ.
  | Found hydrogenic basis function :  2 p   1.800
  | Found hydrogenic basis function :  3 d   7.600
  | Found hydrogenic basis function :  3 s   6.400
  | Found hydrogenic basis function :  4 f  11.600
  | Found hydrogenic basis function :  3 p   6.200
  | Found hydrogenic basis function :  3 d   5.600
  | Found hydrogenic basis function :  5 g  17.600
  | Found hydrogenic basis function :  1 s   0.750
  Species O                   : Missing cutoff potential type.
  Defaulting to exp(1/x)/(1-x)^2 type cutoff potential.
  Species O : On-site basis accuracy parameter (for Gram-Schmidt orthonormalisation) not specified.
  Using default value basis_acc =  0.1000000E-03.
  Species O                   : Using default innermost maximum threshold i_radial=  2 for radial functions.
  Species O                   : Basic radial grid will be enhanced according to radial_multiplier =   2, to contain    73 grid points.
 
  Finished reading input file 'control.in'. Consistency checks are next.
 
  Target number of points in a grid batch is not set. Defaulting to  100
  Method for grid partitioning is not set. Defaulting to parallel hash+maxmin partitioning.
  Batch size limit is not set. Defaulting to    200
  By default, will store active basis functions for each batch.
  If in need of memory, prune_basis_once .false. can be used to disable this option.
  communication_type for Hartree potential was not specified.
  Defaulting to calc_hartree .
  Pulay mixer: Number of initial linear mixing iterations not set.
  Defaulting to    0 iterations.
  Work space size for distributed Hartree potential not set.
  Defaulting to   0.200000E+03 MB.
  Algorithm-dependent basis array size parameters:
  | n_max_pulay                         :       10
  Geometry relaxation not requested: no relaxation will be performed.
  Handling of forces: Unphysical translation and rotation will be removed from forces.
  No accuracy limit for integral partition fn. given. Defaulting to 0.1000E-14.
  No threshold value for u(r) in integrations given. Defaulting to 0.1000E-05.
  No accuracy for occupation numbers given. Defaulting to 0.1000E-07.
  No threshold value for occupation numbers given. Defaulting to 0.0000E+00.
  No accuracy for fermi level given. Defaulting to 0.1000E-19.
  Maximum # of iterations to find E_F not set. Defaulting to  200.
  Will not use alltoall communication since running on < 1024 CPUs.
  Partitioning for Hartree potential was not defined. Using partition_type for integrals.
  | Reporting present value of keyword multip_moments_threshold  :       0.10000000E-09
  | This value may affect high angular momentum components of the Hartree potential in periodic systems.
  No q(lm)/r^(l+1) cutoff set for long-range Hartree potential.
  | Using default value of  0.100000E-09 .
  | Verify using the multipole_threshold keyword.
  Defaulting to new monopole extrapolation.
  Density update method: Loop over occupied states selected for charge density update.
------------------------------------------------------------


------------------------------------------------------------
          Reading geometry description geometry.in.
------------------------------------------------------------
  Input structure read successfully.
  The structure contains        9 atoms,  and a total of         30.000 electrons.

  Input geometry:
  | No unit cell requested.
  | Atomic structure:
  |       Atom                x [A]            y [A]            z [A]
  |    1: Species O             -4.053030         0.065001        -1.525160
  |    2: Species H             -4.566710         0.974813        -1.912820
  |    3: Species H             -3.067820         0.330172        -1.477310
  |    4: Species O             -4.581760        -0.256435         0.939478
  |    5: Species H             -4.349860         0.471090         1.504340
  |    6: Species H             -5.393870        -0.726611         1.228070
  |    7: Species O             -4.066610         4.258280        -0.900064
  |    8: Species H             -3.224110         3.876870        -0.569443
  |    9: Species H             -3.737450         5.116530        -1.322720
  |

  | The smallest distance between any two atoms is         0.94981015 AA.
  |
  | The first atom of this pair is atom number                      4 .
  | The second atom of this pair is atom number                     5 .

  Structure-dependent array size parameters: 
  | Maximum number of distinct radial functions  :       18
  | Maximum number of basis functions            :      207
  | Number of Kohn-Sham states (occupied + empty):       51
------------------------------------------------------------

------------------------------------------------------------
          Preparing all fixed parts of the calculation.
------------------------------------------------------------
  Determining machine precision:
    2.225073858507201E-308
  Setting up grids for atomic and cluster calculations.

  Creating wave function, potential, and density for free atoms.

  Species: H

  List of occupied orbitals and eigenvalues:
    n    l              occ      energy [Ha]    energy [eV]
    1    0           1.0000        -0.241408        -6.5691


  Species: O

  List of occupied orbitals and eigenvalues:
    n    l              occ      energy [Ha]    energy [eV]
    1    0           2.0000       -18.944147      -515.4965
    2    0           2.0000        -0.883529       -24.0421
    2    1           4.0000        -0.330176        -8.9845

  Creating fixed part of basis set: Ionic, confined, hydrogenic.
 
  H                    hydrogenic:
 
  List of hydrogenic basis orbitals: 
    n    l      effective z      eigenvalue [eV]  inner max. [A]     outer max. [A]     outer radius [A]   
    2    0         2.100000       -14.9965           0.193241           1.317192           5.372934
    2    1         3.500000       -41.6672           0.602363           0.602363           4.056010
    1    0         0.850000        -9.8292           0.624864           0.624864           5.372934
    2    1         3.700000       -46.5653           0.573616           0.573616           3.909951
    2    0         1.200000        -4.5995           0.334977           2.228160           5.505921
    3    2         7.000000       -74.0753           0.680692           0.680692           3.769152
 
 
  O                    hydrogenic:
 
  List of hydrogenic basis orbitals: 
    n    l      effective z      eigenvalue [eV]  inner max. [A]     outer max. [A]     outer radius [A]   
    2    1         1.800000       -11.0118           1.178546           1.178546           5.432516
    3    2         7.600000       -87.3182           0.624117           0.624117           3.541422
    3    0         6.400000       -61.9209           0.061166           1.081887           4.306510
    4    3        11.600000      -114.4238           0.731621           0.731621           3.584982
    3    1         6.200000       -58.1113           0.255677           1.030255           4.306510
    3    2         5.600000       -47.4081           0.847222           0.847222           4.413102
    5    4        17.600000      -168.5799           0.749730           0.749730           3.372413
    1    0         0.750000        -7.6499           0.705275           0.705275           5.366508
 

  Adding cutoff potential to free-atom effective potential.
  Creating atomic-like basis functions for current effective potential.

  Species H                   :

  List of atomic basis orbitals and eigenvalues:
    n    l      energy [Ha]    energy [eV]    outer radius [A]
    1    0        -0.241374        -6.5681       5.372934


  Species O                   :

  List of atomic basis orbitals and eigenvalues:
    n    l      energy [Ha]    energy [eV]    outer radius [A]
    1    0       -18.944147      -515.4965       1.415745
    2    0        -0.883529       -24.0421       5.048305
    2    1        -0.330173        -8.9845       5.301302

  Assembling full basis from fixed parts.
  | Species H :   atomic orbital   1 s accepted.
  | Species H :    hydro orbital   2 s accepted.
  | Species H :    hydro orbital   1 s accepted.
  | Species H :    hydro orbital   2 s accepted.
  | Species H :    hydro orbital   2 p accepted.
  | Species H :    hydro orbital   2 p accepted.
  | Species H :    hydro orbital   3 d accepted.
  | Species O :   atomic orbital   1 s accepted.
  | Species O :    hydro orbital   3 s accepted.
  | Species O :   atomic orbital   2 s accepted.
  | Species O :    hydro orbital   1 s accepted.
  | Species O :    hydro orbital   3 p accepted.
  | Species O :   atomic orbital   2 p accepted.
  | Species O :    hydro orbital   2 p accepted.
  | Species O :    hydro orbital   3 d accepted.
  | Species O :    hydro orbital   3 d accepted.
  | Species O :    hydro orbital   4 f accepted.
  | Species O :    hydro orbital   5 g accepted.
 
  Basis size parameters after reduction:
  | Total number of radial functions:       18
  | Total number of basis functions :      207
 
  Testing on-site integration grid accuracy.
  |  Species  Function  <phi|h_atom|phi> (log., in eV)  <phi|h_atom|phi> (rad., in eV)
           1        1                 -6.5683835025                 -6.5684759159
           1        2                 13.3711789951                 13.3708738703
           1        3                 23.6590910787                 23.6532055418
           1        4                 16.2963827186                 16.1870710655 ***
           1        5                 28.7627214838                 28.7627215090
           1        6                 59.5965249172                 59.5965950857
           1        7                 60.2220506392                 60.2220503827
           2        8               -515.4964576505               -515.4964530710
           2        9                 15.3030791347                 15.3030722972
           2       10                -21.7296094581                -21.7296135470
           2       11                 14.2969371730                 14.2969701621
           2       12                 21.0679693190                 21.0679697493
           2       13                 -2.3833606469                 -2.3833613176
           2       14                 13.7067136422                 13.7066766629
           2       15                 45.8013116808                 45.8013116965
           2       16                 52.2309815402                 52.2309831494
           2       17                 85.4120732416                 85.4120732763
           2       18                142.1019167745                142.1019167817
 * Note: Onsite integrals marked "***" above are less accurate than
 * onsite_accuracy_threshold =    0.03000 eV. Usually, this is harmless.
 * When in doubt, tighten the "radial" and/or "radial_multiplier" flags to check.

  Preparing densities etc. for the partition functions (integrals / Hartree potential).

  Preparations completed.
  max(cpu_time)          :      0.170 s.
  Wall clock time (cpu1) :      0.472 s.
------------------------------------------------------------

------------------------------------------------------------
          Begin self-consistency loop: Initialization.

          Date     :  20150727, Time     :  121315.733
------------------------------------------------------------

  Initializing index lists of integration centers etc. from given atomic structure:
  | Number of centers in hartree potential         :         9
  | Number of centers in hartree multipole         :         9
  | Number of centers in electron density summation:         9
  | Number of centers in basis integrals           :         9
  | Number of centers in integrals                 :         9
  Partitioning the integration grid into batches with parallel hashing+maxmin method.
  | Number of batches:     1189
  | Maximal batch size:     193
  | Minimal batch size:      50
  | Average batch size:      99.265
  | Standard deviation of batch sizes:      29.588

  Integration load balanced across     8 MPI tasks.
  Work distribution over tasks is as follows:
  Task     0 has      14739 integration points.
  Task     1 has      14727 integration points.
  Task     2 has      14816 integration points.
  Task     3 has      14716 integration points.
  Task     4 has      14755 integration points.
  Task     5 has      14718 integration points.
  Task     6 has      14721 integration points.
  Task     7 has      14834 integration points.
  Initializing partition tables, free-atom densities, potentials, etc. across the integration grid (initialize_grid_storage).
  | Net number of integration points:   118026
  | of which are non-zero points    :   117513
  Obtaining max. number of non-zero basis functions in each batch (get_n_compute_maxes).
  | Maximal number of non-zero basis functions:      206 in task     0
  | Maximal number of non-zero basis functions:      205 in task     1
  | Maximal number of non-zero basis functions:      205 in task     2
  | Maximal number of non-zero basis functions:      205 in task     3
  | Maximal number of non-zero basis functions:      206 in task     4
  | Maximal number of non-zero basis functions:      205 in task     5
  | Maximal number of non-zero basis functions:      205 in task     6
  | Maximal number of non-zero basis functions:      206 in task     7
  Integrating Hamiltonian matrix: batch-based integration.
  Time summed over all CPUs for integration: real work        2.190 s, elapsed        2.246 s
  Integrating overlap matrix.
  Time summed over all CPUs for integration: real work        1.126 s, elapsed        1.161 s

  Updating Kohn-Sham eigenvalues, eigenvectors, occupation numbers, and Fermi level.
  Solving generalized eigenproblem
  Updating Kohn-Sham eigenvalues and eigenfunctions.
  Transforming overlap matrix and checking for singularities.
  Overlap matrix is nonsingular:
  | Lowest eigenvalue:  0.483581E-03
  Solving real generalised eigenvalue problem by standard LAPACK (fast)
  Determining occupation numbers for Kohn-Sham eigenstates.
  | Chemical potential (Fermi level) in eV                 : -.70496465E+01
  | Error in electron count due to remaining E_F inaccuracy: 0.00000000E+00
  | Maximum occupation number of highest empty state:  0.00E+00

  Writing Kohn-Sham eigenvalues.

  State    Occupation    Eigenvalue [Ha]    Eigenvalue [eV]
      1       2.00000         -19.051933         -518.42948
      2       2.00000         -19.039999         -518.10473
      3       2.00000         -19.019439         -517.54525
      4       2.00000          -1.098507          -29.89191
      5       2.00000          -1.082986          -29.46956
      6       2.00000          -1.043113          -28.38454
      7       2.00000          -0.644488          -17.53740
      8       2.00000          -0.603109          -16.41143
      9       2.00000          -0.569961          -15.50943
     10       2.00000          -0.505300          -13.74991
     11       2.00000          -0.504760          -13.73522
     12       2.00000          -0.474638          -12.91556
     13       2.00000          -0.438897          -11.94299
     14       2.00000          -0.426813          -11.61417
     15       2.00000          -0.402349          -10.94848
     16       0.00000          -0.094532           -2.57234
     17       0.00000          -0.062671           -1.70538
     18       0.00000          -0.057678           -1.56951
     19       0.00000          -0.025725           -0.70002
     20       0.00000          -0.008025           -0.21837
     21       0.00000           0.007621            0.20738
     22       0.00000           0.073923            2.01155
     23       0.00000           0.083612            2.27520
     24       0.00000           0.094674            2.57622
     25       0.00000           0.101240            2.75488
     26       0.00000           0.114518            3.11619
     27       0.00000           0.118688            3.22967
     28       0.00000           0.129263            3.51741
     29       0.00000           0.135502            3.68721
     30       0.00000           0.146745            3.99314
     31       0.00000           0.167599            4.56061
     32       0.00000           0.196664            5.35151
     33       0.00000           0.220660            6.00446
     34       0.00000           0.236595            6.43808
     35       0.00000           0.259642            7.06521
     36       0.00000           0.273218            7.43465
     37       0.00000           0.307312            8.36240
     38       0.00000           0.338097            9.20007
     39       0.00000           0.365079            9.93431
     40       0.00000           0.382547           10.40963
     41       0.00000           0.392842           10.68976
     42       0.00000           0.409008           11.12967
     43       0.00000           0.419976           11.42813
     44       0.00000           0.430250           11.70770
     45       0.00000           0.438497           11.93212
     46       0.00000           0.458569           12.47829
     47       0.00000           0.478731           13.02693
     48       0.00000           0.516814           14.06322
     49       0.00000           0.548907           14.93651
     50       0.00000           0.570878           15.53438
     51       0.00000           0.613588           16.69657

  Highest occupied state (VBM) at    -10.94847673 eV
  | Occupation number:      2.00000000

  Lowest unoccupied state (CBM) at    -2.57234218 eV
  | Occupation number:      0.00000000

  Overall HOMO-LUMO gap:      8.37613455 eV.
  Calculating total energy contributions from superposition of free atom densities.

  Total energy components:
  | Sum of eigenvalues            :        -129.81258406 Ha       -3532.38013774 eV
  | XC energy correction          :         -27.27330342 Ha        -742.14434595 eV
  | XC potential correction       :          34.83743692 Ha         947.97489108 eV
  | Free-atom electrostatic energy:        -107.59152061 Ha       -2927.71423617 eV
  | Hartree energy correction     :           0.00000000 Ha           0.00000000 eV
  | van der Waals energy corr.    :           0.00000000 Ha           0.00000000 eV
  | Entropy correction            :           0.00000000 Ha           0.00000000 eV
  | ---------------------------
  | Total energy                  :        -229.83997116 Ha       -6254.26382878 eV
  | Total energy, T -> 0          :        -229.83997116 Ha       -6254.26382878 eV  <-- do not rely on this value for anything but (periodic) metals
  | Electronic free energy        :        -229.83997116 Ha       -6254.26382878 eV

  Derived energy quantities:
  | Kinetic energy                :         227.36333402 Ha        6186.87110328 eV
  | Electrostatic energy          :        -429.93000176 Ha      -11698.99058610 eV
  | Energy correction for multipole
  | error in Hartree potential    :           0.00000000 Ha           0.00000000 eV
  | Sum of eigenvalues per atom                           :        -392.48668197 eV
  | Total energy (T->0) per atom                          :        -694.91820320 eV  <-- do not rely on this value for anything but (periodic) metals
  | Electronic free energy per atom                       :        -694.91820320 eV
  Initialize hartree_potential_storage
  Max. number of atoms included in rho_multipole:            9

  End scf initialization - timings             :  max(cpu_time)    wall_clock(cpu1)
  | Time for scf. initialization               :        0.666 s           0.666 s
  | Boundary condition initialization          :        0.000 s           0.001 s
  | Integration                                :        0.427 s           0.427 s
  | Solution of K.-S. eqns.                    :        0.065 s           0.065 s
  | Grid partitioning                          :        0.081 s           0.080 s
  | Preloading free-atom quantities on grid    :        0.014 s           0.013 s
  | Free-atom superposition energy             :        0.029 s           0.029 s
  | Total energy evaluation                    :        0.000 s           0.000 s
------------------------------------------------------------

------------------------------------------------------------
          Begin self-consistency iteration #    1

  Date     :  20150727, Time     :  121316.400
------------------------------------------------------------
  Evaluating new KS density.
  Integration grid: deviation in total charge (<rho> - N_e) =   1.065814E-14
  Pulay mixing of updated and previous charge densities.

  Evaluating partitioned Hartree potential by multipole expansion.
  | Analytical far-field extrapolation by fixed multipoles:
  | Hartree multipole sum: apparent total charge =  -0.127523E-05
  Summing up the Hartree potential.
  Time summed over all CPUs for potential: real work        0.942 s, elapsed        0.949 s
  | RMS charge density error from multipole expansion :   0.120440E-02

  Integrating Hamiltonian matrix: batch-based integration.
  Time summed over all CPUs for integration: real work        2.186 s, elapsed        2.257 s

  Updating Kohn-Sham eigenvalues, eigenvectors, occupation numbers, and Fermi level.
  Solving generalized eigenproblem
  Updating Kohn-Sham eigenvalues and eigenfunctions.
  Solving real generalised eigenvalue problem by standard LAPACK (fast)
  Determining occupation numbers for Kohn-Sham eigenstates.
  | Chemical potential (Fermi level) in eV                 : -.65543123E+01
  | Error in electron count due to remaining E_F inaccuracy: 0.00000000E+00
  | Maximum occupation number of highest empty state:  0.00E+00

  Writing Kohn-Sham eigenvalues.

  State    Occupation    Eigenvalue [Ha]    Eigenvalue [eV]
      1       2.00000         -18.967406         -516.12938
      2       2.00000         -18.965488         -516.07717
      3       2.00000         -18.941642         -515.42830
      4       2.00000          -1.055474          -28.72090
      5       2.00000          -1.046977          -28.48970
      6       2.00000          -1.002078          -27.26792
      7       2.00000          -0.607397          -16.52812
      8       2.00000          -0.572664          -15.58298
      9       2.00000          -0.536004          -14.58542
     10       2.00000          -0.468620          -12.75180
     11       2.00000          -0.462003          -12.57175
     12       2.00000          -0.433235          -11.78891
     13       2.00000          -0.394155          -10.72550
     14       2.00000          -0.388701          -10.57708
     15       2.00000          -0.357821           -9.73680
     16       0.00000          -0.085616           -2.32973
     17       0.00000          -0.055339           -1.50584
     18       0.00000          -0.048061           -1.30781
     19       0.00000          -0.017238           -0.46908
     20       0.00000           0.000119            0.00324
     21       0.00000           0.015260            0.41523
     22       0.00000           0.082459            2.24382
     23       0.00000           0.094686            2.57655
     24       0.00000           0.102092            2.77807
     25       0.00000           0.110042            2.99438
     26       0.00000           0.120776            3.28649
     27       0.00000           0.127031            3.45670
     28       0.00000           0.136932            3.72610
     29       0.00000           0.144311            3.92690
     30       0.00000           0.157045            4.27341
     31       0.00000           0.178061            4.84529
     32       0.00000           0.205027            5.57908
     33       0.00000           0.229415            6.24271
     34       0.00000           0.246287            6.70180
     35       0.00000           0.268257            7.29966
     36       0.00000           0.282725            7.69334
     37       0.00000           0.319049            8.68176
     38       0.00000           0.344205            9.36629
     39       0.00000           0.374301           10.18525
     40       0.00000           0.390827           10.63496
     41       0.00000           0.399732           10.87727
     42       0.00000           0.418027           11.37510
     43       0.00000           0.430597           11.71713
     44       0.00000           0.441647           12.01783
     45       0.00000           0.448269           12.19802
     46       0.00000           0.468726           12.75468
     47       0.00000           0.489949           13.33220
     48       0.00000           0.526707           14.33244
     49       0.00000           0.561462           15.27815
     50       0.00000           0.585038           15.91970
     51       0.00000           0.628711           17.10810

  Highest occupied state (VBM) at     -9.73680441 eV
  | Occupation number:      2.00000000

  Lowest unoccupied state (CBM) at    -2.32972551 eV
  | Occupation number:      0.00000000

  Overall HOMO-LUMO gap:      7.40707890 eV.

  Total energy components:
  | Sum of eigenvalues            :        -128.39932866 Ha       -3493.92350173 eV
  | XC energy correction          :         -27.42297098 Ha        -746.21700756 eV
  | XC potential correction       :          35.03392563 Ha         953.32162074 eV
  | Free-atom electrostatic energy:        -107.59152061 Ha       -2927.71423617 eV
  | Hartree energy correction     :          -1.36500266 Ha         -37.14361233 eV
  | van der Waals energy corr.    :           0.00000000 Ha           0.00000000 eV
  | Entropy correction            :           0.00000000 Ha           0.00000000 eV
  | ---------------------------
  | Total energy                  :        -229.74489729 Ha       -6251.67673705 eV
  | Total energy, T -> 0          :        -229.74489729 Ha       -6251.67673705 eV  <-- do not rely on this value for anything but (periodic) metals
  | Electronic free energy        :        -229.74489729 Ha       -6251.67673705 eV

  Derived energy quantities:
  | Kinetic energy                :         228.24659969 Ha        6210.90598488 eV
  | Electrostatic energy          :        -430.56852599 Ha      -11716.36571437 eV
  | Energy correction for multipole
  | error in Hartree potential    :          -0.00011072 Ha          -0.00301297 eV
  | Sum of eigenvalues per atom                           :        -388.21372241 eV
  | Total energy (T->0) per atom                          :        -694.63074856 eV  <-- do not rely on this value for anything but (periodic) metals
  | Electronic free energy per atom                       :        -694.63074856 eV

  Self-consistency convergence accuracy:
  | Change of charge density      : 0.5249E+00
  | Change of sum of eigenvalues  : 0.3846E+02 eV
  | Change of total energy        : 0.2587E+01 eV

  End self-consistency iteration #     1       :  max(cpu_time)    wall_clock(cpu1)
  | Time for this iteration                    :        0.635 s           0.634 s
  | Charge density update                      :        0.207 s           0.207 s
  | Density mixing                             :        0.001 s           0.001 s
  | Hartree multipole update                   :        0.004 s           0.003 s
  | Hartree multipole summation                :        0.120 s           0.120 s
  | Integration                                :        0.283 s           0.283 s
  | Solution of K.-S. eqns.                    :        0.016 s           0.016 s
  | Total energy evaluation                    :        0.000 s           0.001 s
------------------------------------------------------------

------------------------------------------------------------
          Begin self-consistency iteration #    2

  Date     :  20150727, Time     :  121317.035
------------------------------------------------------------
  Evaluating new KS density.
  Integration grid: deviation in total charge (<rho> - N_e) =  -7.105427E-15
  Pulay mixing of updated and previous charge densities.

  Evaluating partitioned Hartree potential by multipole expansion.
  | Analytical far-field extrapolation by fixed multipoles:
  | Hartree multipole sum: apparent total charge =  -0.363302E-05
  Summing up the Hartree potential.
  Time summed over all CPUs for potential: real work        0.942 s, elapsed        0.949 s
  | RMS charge density error from multipole expansion :   0.468263E-02

  Integrating Hamiltonian matrix: batch-based integration.
  Time summed over all CPUs for integration: real work        2.184 s, elapsed        2.252 s

  Updating Kohn-Sham eigenvalues, eigenvectors, occupation numbers, and Fermi level.
  Solving generalized eigenproblem
  Updating Kohn-Sham eigenvalues and eigenfunctions.
  Solving real generalised eigenvalue problem by standard LAPACK (fast)
  Determining occupation numbers for Kohn-Sham eigenstates.
  | Chemical potential (Fermi level) in eV                 : -.53793134E+01
  | Error in electron count due to remaining E_F inaccuracy: 0.00000000E+00
  | Maximum occupation number of highest empty state:  0.00E+00

  Highest occupied state (VBM) at     -7.02599064 eV
  | Occupation number:      2.00000000

  Lowest unoccupied state (CBM) at    -1.80753820 eV
  | Occupation number:      0.00000000

  Overall HOMO-LUMO gap:      5.21845244 eV.

  Total energy components:
  | Sum of eigenvalues            :        -125.25851127 Ha       -3408.45751216 eV
  | XC energy correction          :         -27.77060614 Ha        -755.67664147 eV
  | XC potential correction       :          35.49006981 Ha         965.73393564 eV
  | Free-atom electrostatic energy:        -107.59152061 Ha       -2927.71423617 eV
  | Hartree energy correction     :          -4.51029362 Ha        -122.73133377 eV
  | van der Waals energy corr.    :           0.00000000 Ha           0.00000000 eV
  | Entropy correction            :           0.00000000 Ha           0.00000000 eV
  | ---------------------------
  | Total energy                  :        -229.64086182 Ha       -6248.84578793 eV
  | Total energy, T -> 0          :        -229.64086182 Ha       -6248.84578793 eV  <-- do not rely on this value for anything but (periodic) metals
  | Electronic free energy        :        -229.64086182 Ha       -6248.84578793 eV

  Derived energy quantities:
  | Kinetic energy                :         229.90608589 Ha        6256.06290204 eV
  | Electrostatic energy          :        -431.77634157 Ha      -11749.23204850 eV
  | Energy correction for multipole
  | error in Hartree potential    :          -0.00080355 Ha          -0.02186566 eV
  | Sum of eigenvalues per atom                           :        -378.71750135 eV
  | Total energy (T->0) per atom                          :        -694.31619866 eV  <-- do not rely on this value for anything but (periodic) metals
  | Electronic free energy per atom                       :        -694.31619866 eV

  Self-consistency convergence accuracy:
  | Change of charge density      : 0.3944E+00
  | Change of sum of eigenvalues  : 0.8547E+02 eV
  | Change of total energy        : 0.2831E+01 eV

  End self-consistency iteration #     2       :  max(cpu_time)    wall_clock(cpu1)
  | Time for this iteration                    :        0.631 s           0.630 s
  | Charge density update                      :        0.204 s           0.203 s
  | Density mixing                             :        0.003 s           0.003 s
  | Hartree multipole update                   :        0.003 s           0.004 s
  | Hartree multipole summation                :        0.119 s           0.119 s
  | Integration                                :        0.282 s           0.282 s
  | Solution of K.-S. eqns.                    :        0.016 s           0.016 s
  | Total energy evaluation                    :        0.000 s           0.001 s
------------------------------------------------------------

------------------------------------------------------------
          Begin self-consistency iteration #    3

  Date     :  20150727, Time     :  121317.665
------------------------------------------------------------
  Evaluating new KS density.
  Integration grid: deviation in total charge (<rho> - N_e) =   3.552714E-15
  Pulay mixing of updated and previous charge densities.

  Evaluating partitioned Hartree potential by multipole expansion.
  | Analytical far-field extrapolation by fixed multipoles:
  | Hartree multipole sum: apparent total charge =  -0.359678E-05
  Summing up the Hartree potential.
  Time summed over all CPUs for potential: real work        0.942 s, elapsed        0.948 s
  | RMS charge density error from multipole expansion :   0.981280E-02

  Integrating Hamiltonian matrix: batch-based integration.
  Time summed over all CPUs for integration: real work        2.181 s, elapsed        2.233 s

  Updating Kohn-Sham eigenvalues, eigenvectors, occupation numbers, and Fermi level.
  Solving generalized eigenproblem
  Updating Kohn-Sham eigenvalues and eigenfunctions.
  Solving real generalised eigenvalue problem by standard LAPACK (fast)
  Determining occupation numbers for Kohn-Sham eigenstates.
  | Chemical potential (Fermi level) in eV                 : -.51466115E+01
  | Error in electron count due to remaining E_F inaccuracy: 0.00000000E+00
  | Maximum occupation number of highest empty state:  0.00E+00

  Highest occupied state (VBM) at     -7.02379440 eV
  | Occupation number:      2.00000000

  Lowest unoccupied state (CBM) at    -1.68652371 eV
  | Occupation number:      0.00000000

  Overall HOMO-LUMO gap:      5.33727069 eV.

  Total energy components:
  | Sum of eigenvalues            :        -125.47771167 Ha       -3414.42225848 eV
  | XC energy correction          :         -27.74555160 Ha        -754.99487277 eV
  | XC potential correction       :          35.45499220 Ha         964.77942523 eV
  | Free-atom electrostatic energy:        -107.59152061 Ha       -2927.71423617 eV
  | Hartree energy correction     :          -4.27858014 Ha        -116.42608921 eV
  | van der Waals energy corr.    :           0.00000000 Ha           0.00000000 eV
  | Entropy correction            :           0.00000000 Ha           0.00000000 eV
  | ---------------------------
  | Total energy                  :        -229.63837181 Ha       -6248.77803139 eV
  | Total energy, T -> 0          :        -229.63837181 Ha       -6248.77803139 eV  <-- do not rely on this value for anything but (periodic) metals
  | Electronic free energy        :        -229.63837181 Ha       -6248.77803139 eV

  Derived energy quantities:
  | Kinetic energy                :         228.60905378 Ha        6220.76886261 eV
  | Electrostatic energy          :        -430.50187399 Ha      -11714.55202123 eV
  | Energy correction for multipole
  | error in Hartree potential    :          -0.00330973 Ha          -0.09006237 eV
  | Sum of eigenvalues per atom                           :        -379.38025094 eV
  | Total energy (T->0) per atom                          :        -694.30867015 eV  <-- do not rely on this value for anything but (periodic) metals
  | Electronic free energy per atom                       :        -694.30867015 eV

  Self-consistency convergence accuracy:
  | Change of charge density      : 0.2070E+00
  | Change of sum of eigenvalues  : -.5965E+01 eV
  | Change of total energy        : 0.6776E-01 eV

  End self-consistency iteration #     3       :  max(cpu_time)    wall_clock(cpu1)
  | Time for this iteration                    :        0.629 s           0.629 s
  | Charge density update                      :        0.204 s           0.205 s
  | Density mixing                             :        0.004 s           0.004 s
  | Hartree multipole update                   :        0.003 s           0.003 s
  | Hartree multipole summation                :        0.120 s           0.120 s
  | Integration                                :        0.280 s           0.279 s
  | Solution of K.-S. eqns.                    :        0.016 s           0.016 s
  | Total energy evaluation                    :        0.000 s           0.001 s
------------------------------------------------------------

------------------------------------------------------------
          Begin self-consistency iteration #    4

  Date     :  20150727, Time     :  121318.295
------------------------------------------------------------
  Evaluating new KS density.
  Integration grid: deviation in total charge (<rho> - N_e) =  -1.776357E-14
  Pulay mixing of updated and previous charge densities.

  Evaluating partitioned Hartree potential by multipole expansion.
  | Analytical far-field extrapolation by fixed multipoles:
  | Hartree multipole sum: apparent total charge =  -0.442324E-05
  Summing up the Hartree potential.
  Time summed over all CPUs for potential: real work        0.941 s, elapsed        0.948 s
  | RMS charge density error from multipole expansion :   0.128143E-01

  Integrating Hamiltonian matrix: batch-based integration.
  Time summed over all CPUs for integration: real work        2.175 s, elapsed        2.235 s

  Updating Kohn-Sham eigenvalues, eigenvectors, occupation numbers, and Fermi level.
  Solving generalized eigenproblem
  Updating Kohn-Sham eigenvalues and eigenfunctions.
  Solving real generalised eigenvalue problem by standard LAPACK (fast)
  Determining occupation numbers for Kohn-Sham eigenstates.
  | Chemical potential (Fermi level) in eV                 : -.45964622E+01
  | Error in electron count due to remaining E_F inaccuracy: 0.00000000E+00
  | Maximum occupation number of highest empty state:  0.00E+00

  Highest occupied state (VBM) at     -5.93749090 eV
  | Occupation number:      2.00000000

  Lowest unoccupied state (CBM) at    -1.46384182 eV
  | Occupation number:      0.00000000

  Overall HOMO-LUMO gap:      4.47364907 eV.

  Total energy components:
  | Sum of eigenvalues            :        -124.34061845 Ha       -3383.48037752 eV
  | XC energy correction          :         -27.88423752 Ha        -758.76870874 eV
  | XC potential correction       :          35.63667451 Ha         969.72325232 eV
  | Free-atom electrostatic energy:        -107.59152061 Ha       -2927.71423617 eV
  | Hartree energy correction     :          -5.44944535 Ha        -148.28695275 eV
  | van der Waals energy corr.    :           0.00000000 Ha           0.00000000 eV
  | Entropy correction            :           0.00000000 Ha           0.00000000 eV
  | ---------------------------
  | Total energy                  :        -229.62914742 Ha       -6248.52702286 eV
  | Total energy, T -> 0          :        -229.62914742 Ha       -6248.52702286 eV  <-- do not rely on this value for anything but (periodic) metals
  | Electronic free energy        :        -229.62914742 Ha       -6248.52702286 eV

  Derived energy quantities:
  | Kinetic energy                :         228.80697020 Ha        6226.15444226 eV
  | Electrostatic energy          :        -430.55188009 Ha      -11715.91275639 eV
  | Energy correction for multipole
  | error in Hartree potential    :          -0.00440095 Ha          -0.11975608 eV
  | Sum of eigenvalues per atom                           :        -375.94226417 eV
  | Total energy (T->0) per atom                          :        -694.28078032 eV  <-- do not rely on this value for anything but (periodic) metals
  | Electronic free energy per atom                       :        -694.28078032 eV

  Self-consistency convergence accuracy:
  | Change of charge density      : 0.1200E+00
  | Change of sum of eigenvalues  : 0.3094E+02 eV
  | Change of total energy        : 0.2510E+00 eV

  End self-consistency iteration #     4       :  max(cpu_time)    wall_clock(cpu1)
  | Time for this iteration                    :        0.630 s           0.629 s
  | Charge density update                      :        0.204 s           0.203 s
  | Density mixing                             :        0.004 s           0.005 s
  | Hartree multipole update                   :        0.003 s           0.004 s
  | Hartree multipole summation                :        0.119 s           0.119 s
  | Integration                                :        0.281 s           0.280 s
  | Solution of K.-S. eqns.                    :        0.016 s           0.017 s
  | Total energy evaluation                    :        0.000 s           0.001 s
------------------------------------------------------------

------------------------------------------------------------
          Begin self-consistency iteration #    5

  Date     :  20150727, Time     :  121318.925
------------------------------------------------------------
  Evaluating new KS density.
  Integration grid: deviation in total charge (<rho> - N_e) =   0.000000E+00
  Pulay mixing of updated and previous charge densities.

  Evaluating partitioned Hartree potential by multipole expansion.
  | Analytical far-field extrapolation by fixed multipoles:
  | Hartree multipole sum: apparent total charge =  -0.438552E-05
  Summing up the Hartree potential.
  Time summed over all CPUs for potential: real work        0.942 s, elapsed        0.948 s
  | RMS charge density error from multipole expansion :   0.131311E-01

  Integrating Hamiltonian matrix: batch-based integration.
  Time summed over all CPUs for integration: real work        2.179 s, elapsed        2.235 s

  Updating Kohn-Sham eigenvalues, eigenvectors, occupation numbers, and Fermi level.
  Solving generalized eigenproblem
  Updating Kohn-Sham eigenvalues and eigenfunctions.
  Solving real generalised eigenvalue problem by standard LAPACK (fast)
  Determining occupation numbers for Kohn-Sham eigenstates.
  | Chemical potential (Fermi level) in eV                 : -.45941570E+01
  | Error in electron count due to remaining E_F inaccuracy: 0.00000000E+00
  | Maximum occupation number of highest empty state:  0.00E+00

  Highest occupied state (VBM) at     -5.85392306 eV
  | Occupation number:      2.00000000

  Lowest unoccupied state (CBM) at    -1.46106374 eV
  | Occupation number:      0.00000000

  Overall HOMO-LUMO gap:      4.39285933 eV.

  Total energy components:
  | Sum of eigenvalues            :        -124.34406046 Ha       -3383.57403960 eV
  | XC energy correction          :         -27.88457021 Ha        -758.77776172 eV
  | XC potential correction       :          35.63688160 Ha         969.72888769 eV
  | Free-atom electrostatic energy:        -107.59152061 Ha       -2927.71423617 eV
  | Hartree energy correction     :          -5.44562704 Ha        -148.18305121 eV
  | van der Waals energy corr.    :           0.00000000 Ha           0.00000000 eV
  | Entropy correction            :           0.00000000 Ha           0.00000000 eV
  | ---------------------------
  | Total energy                  :        -229.62889672 Ha       -6248.52020101 eV
  | Total energy, T -> 0          :        -229.62889672 Ha       -6248.52020101 eV  <-- do not rely on this value for anything but (periodic) metals
  | Electronic free energy        :        -229.62889672 Ha       -6248.52020101 eV

  Derived energy quantities:
  | Kinetic energy                :         228.80209309 Ha        6226.02172957 eV
  | Electrostatic energy          :        -430.54641960 Ha      -11715.76416887 eV
  | Energy correction for multipole
  | error in Hartree potential    :          -0.00440941 Ha          -0.11998616 eV
  | Sum of eigenvalues per atom                           :        -375.95267107 eV
  | Total energy (T->0) per atom                          :        -694.28002233 eV  <-- do not rely on this value for anything but (periodic) metals
  | Electronic free energy per atom                       :        -694.28002233 eV

  Self-consistency convergence accuracy:
  | Change of charge density      : 0.2623E-01
  | Change of sum of eigenvalues  : -.9366E-01 eV
  | Change of total energy        : 0.6822E-02 eV

  End self-consistency iteration #     5       :  max(cpu_time)    wall_clock(cpu1)
  | Time for this iteration                    :        0.631 s           0.630 s
  | Charge density update                      :        0.205 s           0.204 s
  | Density mixing                             :        0.006 s           0.005 s
  | Hartree multipole update                   :        0.003 s           0.004 s
  | Hartree multipole summation                :        0.119 s           0.119 s
  | Integration                                :        0.280 s           0.281 s
  | Solution of K.-S. eqns.                    :        0.016 s           0.016 s
  | Total energy evaluation                    :        0.000 s           0.001 s
------------------------------------------------------------

------------------------------------------------------------
          Begin self-consistency iteration #    6

  Date     :  20150727, Time     :  121319.556
------------------------------------------------------------
  Evaluating new KS density.
  Integration grid: deviation in total charge (<rho> - N_e) =  -7.105427E-15
  Pulay mixing of updated and previous charge densities.

  Evaluating partitioned Hartree potential by multipole expansion.
  | Analytical far-field extrapolation by fixed multipoles:
  | Hartree multipole sum: apparent total charge =  -0.441541E-05
  Summing up the Hartree potential.
  Time summed over all CPUs for potential: real work        0.942 s, elapsed        0.948 s
  | RMS charge density error from multipole expansion :   0.134016E-01

  Integrating Hamiltonian matrix: batch-based integration.
  Time summed over all CPUs for integration: real work        2.177 s, elapsed        2.234 s

  Updating Kohn-Sham eigenvalues, eigenvectors, occupation numbers, and Fermi level.
  Solving generalized eigenproblem
  Updating Kohn-Sham eigenvalues and eigenfunctions.
  Solving real generalised eigenvalue problem by standard LAPACK (fast)
  Determining occupation numbers for Kohn-Sham eigenstates.
  | Chemical potential (Fermi level) in eV                 : -.45550495E+01
  | Error in electron count due to remaining E_F inaccuracy: 0.00000000E+00
  | Maximum occupation number of highest empty state:  0.00E+00

  Highest occupied state (VBM) at     -5.79078183 eV
  | Occupation number:      2.00000000

  Lowest unoccupied state (CBM) at    -1.44227172 eV
  | Occupation number:      0.00000000

  Overall HOMO-LUMO gap:      4.34851011 eV.

  Total energy components:
  | Sum of eigenvalues            :        -124.26862379 Ha       -3381.52130334 eV
  | XC energy correction          :         -27.89423635 Ha        -759.04079074 eV
  | XC potential correction       :          35.64951349 Ha         970.07261872 eV
  | Free-atom electrostatic energy:        -107.59152061 Ha       -2927.71423617 eV
  | Hartree energy correction     :          -5.52412509 Ha        -150.31909183 eV
  | van der Waals energy corr.    :           0.00000000 Ha           0.00000000 eV
  | Entropy correction            :           0.00000000 Ha           0.00000000 eV
  | ---------------------------
  | Total energy                  :        -229.62899236 Ha       -6248.52280336 eV
  | Total energy, T -> 0          :        -229.62899236 Ha       -6248.52280336 eV  <-- do not rely on this value for anything but (periodic) metals
  | Electronic free energy        :        -229.62899236 Ha       -6248.52280336 eV

  Derived energy quantities:
  | Kinetic energy                :         228.81046210 Ha        6226.24946194 eV
  | Electrostatic energy          :        -430.54521811 Ha      -11715.73147456 eV
  | Energy correction for multipole
  | error in Hartree potential    :          -0.00449382 Ha          -0.12228298 eV
  | Sum of eigenvalues per atom                           :        -375.72458926 eV
  | Total energy (T->0) per atom                          :        -694.28031148 eV  <-- do not rely on this value for anything but (periodic) metals
  | Electronic free energy per atom                       :        -694.28031148 eV

  Self-consistency convergence accuracy:
  | Change of charge density      : 0.6938E-02
  | Change of sum of eigenvalues  : 0.2053E+01 eV
  | Change of total energy        : -.2602E-02 eV

  End self-consistency iteration #     6       :  max(cpu_time)    wall_clock(cpu1)
  | Time for this iteration                    :        0.631 s           0.631 s
  | Charge density update                      :        0.204 s           0.203 s
  | Density mixing                             :        0.006 s           0.006 s
  | Hartree multipole update                   :        0.004 s           0.004 s
  | Hartree multipole summation                :        0.119 s           0.119 s
  | Integration                                :        0.280 s           0.280 s
  | Solution of K.-S. eqns.                    :        0.016 s           0.016 s
  | Total energy evaluation                    :        0.001 s           0.000 s
------------------------------------------------------------

------------------------------------------------------------
          Begin self-consistency iteration #    7

  Date     :  20150727, Time     :  121320.187
------------------------------------------------------------
  Evaluating new KS density.
  Integration grid: deviation in total charge (<rho> - N_e) =   1.065814E-14
  Pulay mixing of updated and previous charge densities.

  Evaluating partitioned Hartree potential by multipole expansion.
  | Analytical far-field extrapolation by fixed multipoles:
  | Hartree multipole sum: apparent total charge =  -0.425126E-05
  Summing up the Hartree potential.
  Time summed over all CPUs for potential: real work        0.942 s, elapsed        0.948 s
  | RMS charge density error from multipole expansion :   0.133345E-01

  Integrating Hamiltonian matrix: batch-based integration.
  Time summed over all CPUs for integration: real work        2.174 s, elapsed        2.234 s

  Updating Kohn-Sham eigenvalues, eigenvectors, occupation numbers, and Fermi level.
  Solving generalized eigenproblem
  Updating Kohn-Sham eigenvalues and eigenfunctions.
  Solving real generalised eigenvalue problem by standard LAPACK (fast)
  Determining occupation numbers for Kohn-Sham eigenstates.
  | Chemical potential (Fermi level) in eV                 : -.46215596E+01
  | Error in electron count due to remaining E_F inaccuracy: 0.00000000E+00
  | Maximum occupation number of highest empty state:  0.00E+00

  Highest occupied state (VBM) at     -5.91084299 eV
  | Occupation number:      2.00000000

  Lowest unoccupied state (CBM) at    -1.47229848 eV
  | Occupation number:      0.00000000

  Overall HOMO-LUMO gap:      4.43854451 eV.

  Total energy components:
  | Sum of eigenvalues            :        -124.38469492 Ha       -3384.67975951 eV
  | XC energy correction          :         -27.88011833 Ha        -758.65661966 eV
  | XC potential correction       :          35.63071077 Ha         969.56097077 eV
  | Free-atom electrostatic energy:        -107.59152061 Ha       -2927.71423617 eV
  | Hartree energy correction     :          -5.40326093 Ha        -147.03021083 eV
  | van der Waals energy corr.    :           0.00000000 Ha           0.00000000 eV
  | Entropy correction            :           0.00000000 Ha           0.00000000 eV
  | ---------------------------
  | Total energy                  :        -229.62888402 Ha       -6248.51985539 eV
  | Total energy, T -> 0          :        -229.62888402 Ha       -6248.51985539 eV  <-- do not rely on this value for anything but (periodic) metals
  | Electronic free energy        :        -229.62888402 Ha       -6248.51985539 eV

  Derived energy quantities:
  | Kinetic energy                :         228.84543349 Ha        6227.20108173 eV
  | Electrostatic energy          :        -430.59419918 Ha      -11717.06431746 eV
  | Energy correction for multipole
  | error in Hartree potential    :          -0.00427381 Ha          -0.11629637 eV
  | Sum of eigenvalues per atom                           :        -376.07552883 eV
  | Total energy (T->0) per atom                          :        -694.27998393 eV  <-- do not rely on this value for anything but (periodic) metals
  | Electronic free energy per atom                       :        -694.27998393 eV

  Self-consistency convergence accuracy:
  | Change of charge density      : 0.9962E-02
  | Change of sum of eigenvalues  : -.3158E+01 eV
  | Change of total energy        : 0.2948E-02 eV

  End self-consistency iteration #     7       :  max(cpu_time)    wall_clock(cpu1)
  | Time for this iteration                    :        0.632 s           0.632 s
  | Charge density update                      :        0.204 s           0.204 s
  | Density mixing                             :        0.007 s           0.007 s
  | Hartree multipole update                   :        0.003 s           0.004 s
  | Hartree multipole summation                :        0.119 s           0.119 s
  | Integration                                :        0.281 s           0.280 s
  | Solution of K.-S. eqns.                    :        0.016 s           0.016 s
  | Total energy evaluation                    :        0.001 s           0.001 s
------------------------------------------------------------

------------------------------------------------------------
          Begin self-consistency iteration #    8

  Date     :  20150727, Time     :  121320.819
------------------------------------------------------------
  Evaluating new KS density.
  Integration grid: deviation in total charge (<rho> - N_e) =   3.552714E-15
  Pulay mixing of updated and previous charge densities.

  Evaluating partitioned Hartree potential by multipole expansion.
  | Analytical far-field extrapolation by fixed multipoles:
  | Hartree multipole sum: apparent total charge =  -0.425598E-05
  Summing up the Hartree potential.
  Time summed over all CPUs for potential: real work        0.942 s, elapsed        0.949 s
  | RMS charge density error from multipole expansion :   0.133603E-01

  Integrating Hamiltonian matrix: batch-based integration.
  Time summed over all CPUs for integration: real work        2.175 s, elapsed        2.244 s

  Updating Kohn-Sham eigenvalues, eigenvectors, occupation numbers, and Fermi level.
  Solving generalized eigenproblem
  Updating Kohn-Sham eigenvalues and eigenfunctions.
  Solving real generalised eigenvalue problem by standard LAPACK (fast)
  Determining occupation numbers for Kohn-Sham eigenstates.
  | Chemical potential (Fermi level) in eV                 : -.46176680E+01
  | Error in electron count due to remaining E_F inaccuracy: 0.00000000E+00
  | Maximum occupation number of highest empty state:  0.00E+00

  Highest occupied state (VBM) at     -5.90058031 eV
  | Occupation number:      2.00000000

  Lowest unoccupied state (CBM) at    -1.47054654 eV
  | Occupation number:      0.00000000

  Overall HOMO-LUMO gap:      4.43003377 eV.

  Total energy components:
  | Sum of eigenvalues            :        -124.37790742 Ha       -3384.49506222 eV
  | XC energy correction          :         -27.88095605 Ha        -758.67941523 eV
  | XC potential correction       :          35.63180609 Ha         969.59077598 eV
  | Free-atom electrostatic energy:        -107.59152061 Ha       -2927.71423617 eV
  | Hartree energy correction     :          -5.41030626 Ha        -147.22192394 eV
  | van der Waals energy corr.    :           0.00000000 Ha           0.00000000 eV
  | Entropy correction            :           0.00000000 Ha           0.00000000 eV
  | ---------------------------
  | Total energy                  :        -229.62888425 Ha       -6248.51986158 eV
  | Total energy, T -> 0          :        -229.62888425 Ha       -6248.51986158 eV  <-- do not rely on this value for anything but (periodic) metals
  | Electronic free energy        :        -229.62888425 Ha       -6248.51986158 eV

  Derived energy quantities:
  | Kinetic energy                :         228.84538537 Ha        6227.19977234 eV
  | Electrostatic energy          :        -430.59331357 Ha      -11717.04021869 eV
  | Energy correction for multipole
  | error in Hartree potential    :          -0.00428176 Ha          -0.11651257 eV
  | Sum of eigenvalues per atom                           :        -376.05500691 eV
  | Total energy (T->0) per atom                          :        -694.27998462 eV  <-- do not rely on this value for anything but (periodic) metals
  | Electronic free energy per atom                       :        -694.27998462 eV

  Self-consistency convergence accuracy:
  | Change of charge density      : 0.1191E-02
  | Change of sum of eigenvalues  : 0.1847E+00 eV
  | Change of total energy        : -.6188E-05 eV

  End self-consistency iteration #     8       :  max(cpu_time)    wall_clock(cpu1)
  | Time for this iteration                    :        0.634 s           0.634 s
  | Charge density update                      :        0.204 s           0.204 s
  | Density mixing                             :        0.008 s           0.008 s
  | Hartree multipole update                   :        0.004 s           0.003 s
  | Hartree multipole summation                :        0.119 s           0.120 s
  | Integration                                :        0.282 s           0.281 s
  | Solution of K.-S. eqns.                    :        0.016 s           0.016 s
  | Total energy evaluation                    :        0.001 s           0.000 s
------------------------------------------------------------

------------------------------------------------------------
          Begin self-consistency iteration #    9

  Date     :  20150727, Time     :  121321.453
------------------------------------------------------------
  Evaluating new KS density.
  Integration grid: deviation in total charge (<rho> - N_e) =   1.776357E-14
  Pulay mixing of updated and previous charge densities.

  Evaluating partitioned Hartree potential by multipole expansion.
  | Analytical far-field extrapolation by fixed multipoles:
  | Hartree multipole sum: apparent total charge =  -0.425367E-05
  Summing up the Hartree potential.
  Time summed over all CPUs for potential: real work        0.942 s, elapsed        0.948 s
  | RMS charge density error from multipole expansion :   0.133603E-01

  Integrating Hamiltonian matrix: batch-based integration.
  Time summed over all CPUs for integration: real work        2.178 s, elapsed        2.242 s

  Updating Kohn-Sham eigenvalues, eigenvectors, occupation numbers, and Fermi level.
  Solving generalized eigenproblem
  Updating Kohn-Sham eigenvalues and eigenfunctions.
  Solving real generalised eigenvalue problem by standard LAPACK (fast)
  Determining occupation numbers for Kohn-Sham eigenstates.
  | Chemical potential (Fermi level) in eV                 : -.46178014E+01
  | Error in electron count due to remaining E_F inaccuracy: 0.00000000E+00
  | Maximum occupation number of highest empty state:  0.00E+00

  Highest occupied state (VBM) at     -5.90169363 eV
  | Occupation number:      2.00000000

  Lowest unoccupied state (CBM) at    -1.47068260 eV
  | Occupation number:      0.00000000

  Overall HOMO-LUMO gap:      4.43101102 eV.

  Total energy components:
  | Sum of eigenvalues            :        -124.37782799 Ha       -3384.49290080 eV
  | XC energy correction          :         -27.88092231 Ha        -758.67849718 eV
  | XC potential correction       :          35.63175853 Ha         969.58948175 eV
  | Free-atom electrostatic energy:        -107.59152061 Ha       -2927.71423617 eV
  | Hartree energy correction     :          -5.41037146 Ha        -147.22369803 eV
  | van der Waals energy corr.    :           0.00000000 Ha           0.00000000 eV
  | Entropy correction            :           0.00000000 Ha           0.00000000 eV
  | ---------------------------
  | Total energy                  :        -229.62888384 Ha       -6248.51985043 eV
  | Total energy, T -> 0          :        -229.62888384 Ha       -6248.51985043 eV  <-- do not rely on this value for anything but (periodic) metals
  | Electronic free energy        :        -229.62888384 Ha       -6248.51985043 eV

  Derived energy quantities:
  | Kinetic energy                :         228.84705183 Ha        6227.24511893 eV
  | Electrostatic energy          :        -430.59501335 Ha      -11717.08647218 eV
  | Energy correction for multipole
  | error in Hartree potential    :          -0.00427718 Ha          -0.11638800 eV
  | Sum of eigenvalues per atom                           :        -376.05476676 eV
  | Total energy (T->0) per atom                          :        -694.27998338 eV  <-- do not rely on this value for anything but (periodic) metals
  | Electronic free energy per atom                       :        -694.27998338 eV

  Self-consistency convergence accuracy:
  | Change of charge density      : 0.6405E-03
  | Change of sum of eigenvalues  : 0.2161E-02 eV
  | Change of total energy        : 0.1115E-04 eV

  End self-consistency iteration #     9       :  max(cpu_time)    wall_clock(cpu1)
  | Time for this iteration                    :        0.635 s           0.634 s
  | Charge density update                      :        0.204 s           0.204 s
  | Density mixing                             :        0.009 s           0.008 s
  | Hartree multipole update                   :        0.004 s           0.004 s
  | Hartree multipole summation                :        0.119 s           0.119 s
  | Integration                                :        0.281 s           0.281 s
  | Solution of K.-S. eqns.                    :        0.016 s           0.017 s
  | Total energy evaluation                    :        0.001 s           0.001 s
------------------------------------------------------------

------------------------------------------------------------
          Begin self-consistency iteration #   10

  Date     :  20150727, Time     :  121322.088
------------------------------------------------------------
  Evaluating new KS density.
  Integration grid: deviation in total charge (<rho> - N_e) =  -3.552714E-15
  Pulay mixing of updated and previous charge densities.

  Evaluating partitioned Hartree potential by multipole expansion.
  | Analytical far-field extrapolation by fixed multipoles:
  | Hartree multipole sum: apparent total charge =  -0.425117E-05
  Summing up the Hartree potential.
  Time summed over all CPUs for potential: real work        0.941 s, elapsed        0.948 s
  | RMS charge density error from multipole expansion :   0.133637E-01

  Integrating Hamiltonian matrix: batch-based integration.
  Time summed over all CPUs for integration: real work        2.169 s, elapsed        2.229 s

  Updating Kohn-Sham eigenvalues, eigenvectors, occupation numbers, and Fermi level.
  Solving generalized eigenproblem
  Updating Kohn-Sham eigenvalues and eigenfunctions.
  Solving real generalised eigenvalue problem by standard LAPACK (fast)
  Determining occupation numbers for Kohn-Sham eigenstates.
  | Chemical potential (Fermi level) in eV                 : -.46175627E+01
  | Error in electron count due to remaining E_F inaccuracy: 0.00000000E+00
  | Maximum occupation number of highest empty state:  0.00E+00

  Highest occupied state (VBM) at     -5.90168351 eV
  | Occupation number:      2.00000000

  Lowest unoccupied state (CBM) at    -1.47032432 eV
  | Occupation number:      0.00000000

  Overall HOMO-LUMO gap:      4.43135919 eV.

  Total energy components:
  | Sum of eigenvalues            :        -124.37770493 Ha       -3384.48955221 eV
  | XC energy correction          :         -27.88088336 Ha        -758.67743732 eV
  | XC potential correction       :          35.63170519 Ha         969.58803043 eV
  | Free-atom electrostatic energy:        -107.59152061 Ha       -2927.71423617 eV
  | Hartree energy correction     :          -5.41048002 Ha        -147.22665204 eV
  | van der Waals energy corr.    :           0.00000000 Ha           0.00000000 eV
  | Entropy correction            :           0.00000000 Ha           0.00000000 eV
  | ---------------------------
  | Total energy                  :        -229.62888372 Ha       -6248.51984731 eV
  | Total energy, T -> 0          :        -229.62888372 Ha       -6248.51984731 eV  <-- do not rely on this value for anything but (periodic) metals
  | Electronic free energy        :        -229.62888372 Ha       -6248.51984731 eV

  Derived energy quantities:
  | Kinetic energy                :         228.84744149 Ha        6227.25572220 eV
  | Electrostatic energy          :        -430.59544185 Ha      -11717.09813219 eV
  | Energy correction for multipole
  | error in Hartree potential    :          -0.00427410 Ha          -0.11630414 eV
  | Sum of eigenvalues per atom                           :        -376.05439469 eV
  | Total energy (T->0) per atom                          :        -694.27998303 eV  <-- do not rely on this value for anything but (periodic) metals
  | Electronic free energy per atom                       :        -694.27998303 eV

  Self-consistency convergence accuracy:
  | Change of charge density      : 0.2957E-03
  | Change of sum of eigenvalues  : 0.3349E-02 eV
  | Change of total energy        : 0.3126E-05 eV

[...]
  |   Hirshfeld volume        :     21.59025381
  |   Hirshfeld dipole vector :     -0.02988642       0.01985671       0.02092009
  |   Hirshfeld dipole moment :      0.04153477
  |   Hirshfeld second moments:      0.03236358       0.05721307      -0.00804350
  |                                  0.05721307       0.03749960       0.02715647
  |                                 -0.00804350       0.02715647       0.00730825
  ----------------------------------------------------------------------
  | Atom     5: H
  |   Hirshfeld charge        :      0.13695241
  |   Free atom volume        :     10.44207651
  |   Hirshfeld volume        :      6.42221513
  |   Hirshfeld dipole vector :      0.03673812       0.09817421       0.06274470
  |   Hirshfeld dipole moment :      0.12216695
  |   Hirshfeld second moments:      0.12048277       0.01743295      -0.00767880
  |                                  0.01743295       0.10506062       0.00357491
  |                                 -0.00767880       0.00357491       0.10423607
  ----------------------------------------------------------------------
  | Atom     6: H
  |   Hirshfeld charge        :      0.14642599
  |   Free atom volume        :     10.44207651
  |   Hirshfeld volume        :      6.30848072
  |   Hirshfeld dipole vector :     -0.10401369      -0.06409027       0.02277681
  |   Hirshfeld dipole moment :      0.12427870
  |   Hirshfeld second moments:      0.10544080       0.01218041       0.00064742
  |                                  0.01218041       0.12129478       0.01391040
  |                                  0.00064742       0.01391040       0.11191833
  ----------------------------------------------------------------------
  | Atom     7: O
  |   Hirshfeld charge        :     -0.28508406
  |   Free atom volume        :     23.95238533
  |   Hirshfeld volume        :     21.86422381
  |   Hirshfeld dipole vector :      0.04819567       0.01508294      -0.00416311
  |   Hirshfeld dipole moment :      0.05067197
  |   Hirshfeld second moments:      0.01540440      -0.01458146       0.02115507
  |                                 -0.01458146       0.04870345      -0.05181460
  |                                  0.02115507      -0.05181460      -0.01762859
  ----------------------------------------------------------------------
  | Atom     8: H
  |   Hirshfeld charge        :      0.14221140
  |   Free atom volume        :     10.44207651
  |   Hirshfeld volume        :      6.25508231
  |   Hirshfeld dipole vector :      0.10444711      -0.04971524       0.04230330
  |   Hirshfeld dipole moment :      0.12316807
  |   Hirshfeld second moments:      0.10986251       0.00601658       0.00078136
  |                                  0.00601658       0.12415623      -0.01448944
  |                                  0.00078136      -0.01448944       0.10805288
  ----------------------------------------------------------------------
  | Atom     9: H
  |   Hirshfeld charge        :      0.14888928
  |   Free atom volume        :     10.44207651
  |   Hirshfeld volume        :      6.12257239
  |   Hirshfeld dipole vector :      0.03748629       0.10664726      -0.05314652
  |   Hirshfeld dipole moment :      0.12491362
  |   Hirshfeld second moments:      0.12678233      -0.01103753       0.01082778
  |                                 -0.01103753       0.11662843      -0.00934590
  |                                  0.01082778      -0.00934590       0.10683062
  ----------------------------------------------------------------------


  Total energy components:
  | Sum of eigenvalues            :        -124.37706962 Ha       -3384.47226449 eV
  | XC energy correction          :         -27.88095364 Ha        -758.67934979 eV
  | XC potential correction       :          35.63179841 Ha         969.59056695 eV
  | Free-atom electrostatic energy:        -107.59152061 Ha       -2927.71423617 eV
  | Hartree energy correction     :          -5.41113829 Ha        -147.24456448 eV
  | van der Waals energy corr.    :          -0.00076394 Ha          -0.02078775 eV
  | Entropy correction            :           0.00000000 Ha           0.00000000 eV
  | ---------------------------
  | Total energy                  :        -229.62964768 Ha       -6248.54063572 eV
  | Total energy, T -> 0          :        -229.62964768 Ha       -6248.54063572 eV  <-- do not rely on this value for anything but (periodic) metals
  | Electronic free energy        :        -229.62964768 Ha       -6248.54063572 eV

  Derived energy quantities:
  | Kinetic energy                :         228.84740999 Ha        6227.25486502 eV
  | Electrostatic energy          :        -430.59534009 Ha      -11717.09536320 eV
  | Energy correction for multipole
  | error in Hartree potential    :          -0.00427452 Ha          -0.11631556 eV
  | Sum of eigenvalues per atom                           :        -376.05247383 eV
  | Total energy (T->0) per atom                          :        -694.28229286 eV  <-- do not rely on this value for anything but (periodic) metals
  | Electronic free energy per atom                       :        -694.28229286 eV

  atomic forces [eV/Ang]:
  -----------------------
  atom #    1
   Hellmann-Feynman + Multipole  : -.752608E+01 -.118466E+02 0.381408E+01
   Pulay + GGA                   : 0.748168E+01 0.156519E+02 -.592501E+01
   Van der Waals               : 0.829922E-03 0.311710E-02 -.308729E-02
   ----------------------------------------------------------------
   Total forces(   1)            : -.435686E-01 0.380840E+01 -.211402E+01
  atom #    2
   Hellmann-Feynman + Multipole  : 0.231281E+01 -.348317E+01 0.154173E+01
   Pulay + GGA                   : -.384010E-01 0.970337E-01 -.626402E-01
   Van der Waals               : 0.793957E-03 0.400881E-02 0.181885E-02
   ----------------------------------------------------------------
   Total forces(   2)            : 0.227520E+01 -.338213E+01 0.148091E+01
  atom #    3
   Hellmann-Feynman + Multipole  : -.219135E+01 -.334380E+00 -.215797E+00
   Pulay + GGA                   : 0.139164E+00 0.528845E-01 0.238108E-02
   Van der Waals               : 0.587110E-03 0.278034E-02 -.616432E-03
   ----------------------------------------------------------------
   Total forces(   3)            : -.205160E+01 -.278715E+00 -.214032E+00
  atom #    4
   Hellmann-Feynman + Multipole  : 0.842903E+01 -.517820E+01 -.151036E+02
   Pulay + GGA                   : -.881668E+01 0.379049E+01 0.146815E+02
   Van der Waals               : -.221955E-02 -.733799E-03 0.607515E-02
   ----------------------------------------------------------------
   Total forces(   4)            : -.389870E+00 -.138844E+01 -.416086E+00
  atom #    5
   Hellmann-Feynman + Multipole  : -.421298E+00 0.398866E+00 0.851810E+00
   Pulay + GGA                   : 0.354789E-01 0.936343E-01 0.111247E+00
   Van der Waals               : 0.635365E-03 0.132505E-02 -.150205E-02
   ----------------------------------------------------------------
   Total forces(   5)            : -.385184E+00 0.493826E+00 0.961554E+00
  atom #    6
   Hellmann-Feynman + Multipole  : 0.715947E+00 0.840889E+00 0.253591E+00
   Pulay + GGA                   : -.116012E+00 -.585393E-01 0.604726E-01
   Van der Waals               : 0.703546E-03 0.799188E-03 -.140296E-02
   ----------------------------------------------------------------
   Total forces(   6)            : 0.600638E+00 0.783149E+00 0.312660E+00
  atom #    7
   Hellmann-Feynman + Multipole  : -.145694E+02 -.491204E+01 0.823033E+00
   Pulay + GGA                   : 0.157289E+02 0.621581E+01 -.138648E+01
   Van der Waals               : -.216153E-03 -.636616E-02 -.554221E-03
   ----------------------------------------------------------------
   Total forces(   7)            : 0.115930E+01 0.129740E+01 -.563997E+00
  atom #    8
   Hellmann-Feynman + Multipole  : -.606607E+00 0.144288E+00 -.145132E+00
   Pulay + GGA                   : 0.131282E+00 -.695509E-01 0.366653E-01
   Van der Waals               : -.101348E-02 -.412865E-02 -.705963E-03
   ----------------------------------------------------------------
   Total forces(   8)            : -.476339E+00 0.706082E-01 -.109172E+00
  atom #    9
   Hellmann-Feynman + Multipole  : -.737537E+00 -.152152E+01 0.724513E+00
   Pulay + GGA                   : 0.562231E-01 0.115517E+00 -.626044E-01
   Van der Waals               : -.100719E-03 -.801874E-03 -.250913E-04
   ----------------------------------------------------------------
   Total forces(   9)            : -.681415E+00 -.140681E+01 0.661884E+00
  Timings for vdw_correction_hirshfeld (Tkatchenko-Scheffler 2009):
  | CPU time:        1.677 s, Wall clock time:        1.677 s.
  Removing unitary transformations (pure translations, rotations) from forces on atoms.
  Atomic forces before filtering:
  | Net force on center of mass :  0.716779E-02 -.270607E-02 -.296153E-03 eV/A
  | Net torque on center of mass:  0.551859E-02 -.306818E-03 -.150273E-01 eV
  Atomic forces after filtering:
  | Net force on center of mass :  -.115964E-14 -.107044E-14 0.000000E+00 eV/A
  | Net torque on center of mass:  -.302107E-14 0.283225E-15 0.377634E-15 eV
 
  Energy and forces in a compact form:
  | Total energy uncorrected      :         -0.624854063572278E+04 eV
  | Total energy corrected        :         -0.624854063572278E+04 eV  <-- do not rely on this value for anything but (periodic) metals
  | Electronic free energy        :         -0.624854063572278E+04 eV
  Total atomic forces (unitary forces cleaned) [eV/Ang]:
  |   1         -0.434517626933139E-01          0.380854896709830E+01         -0.211371305058341E+01
  |   2          0.227503911346719E+01         -0.338226782553923E+01          0.148092473017072E+01
  |   3         -0.205160990371206E+01         -0.278148300153128E+00         -0.213515830813245E+00
  |   4         -0.390262688482810E+00         -0.138810222593789E+01         -0.415865850136110E+00
  |   5         -0.386029439203326E+00          0.494358278545317E+00          0.961711719881945E+00
  |   6          0.600368311379481E+00          0.783196153621609E+00          0.312747457709389E+00
  |   7          0.115749527052924E+01          0.129764811881028E+01         -0.564406994180164E+00
  |   8         -0.478074522852438E+00          0.712632204416425E-01         -0.109297206332016E+00
  |   9         -0.683474378431959E+00         -0.140649638688691E+01          0.661415024282887E+00
 
  ------------------------------------ 
  Start decomposition of the XC Energy 
  ------------------------------------ 
  Hartree-Fock part   :          0.000000000 Ha              0.000000000 eV
  ------------------------------------ 
  X Energy            :        -26.910695386 Ha           -732.277279300 eV
  C Energy GGA        :         -0.970258257 Ha            -26.402070493 eV
  Total XC Energy     :        -27.880953643 Ha           -758.679349794 eV
  LDA X and C from self-consistent density 
  X Energy LDA        :        -24.224436566 Ha           -659.180457701 eV
  C Energy LDA        :         -1.973506303 Ha            -53.701838823 eV
  ------------------------------------ 
  End decomposition of the XC Energy 
  ------------------------------------ 
  Performing Hirshfeld analysis of fragment charges and moments.
  ----------------------------------------------------------------------
  | Atom     1: O
  |   Hirshfeld charge        :     -0.27561247
  |   Free atom volume        :     23.95238533
  |   Hirshfeld volume        :     22.46955035
  |   Hirshfeld dipole vector :      0.01694076       0.03803141       0.02266422
  |   Hirshfeld dipole moment :      0.04740300
  |   Hirshfeld second moments:      0.05608361      -0.01898227       0.02000340
  |                                 -0.01898227      -0.00329279      -0.03329405
  |                                  0.02000340      -0.03329405      -0.04950823
  ----------------------------------------------------------------------
  | Atom     2: H
  |   Hirshfeld charge        :      0.13973047
  |   Free atom volume        :     10.44207651
  |   Hirshfeld volume        :      7.05262094
  |   Hirshfeld dipole vector :     -0.06509914       0.08430349      -0.03381011
  |   Hirshfeld dipole moment :      0.11175016
  |   Hirshfeld second moments:      0.12289884       0.00706169       0.00662844
  |                                  0.00706169       0.07557604      -0.00652143
  |                                  0.00662844      -0.00652143       0.08938029
  ----------------------------------------------------------------------
  | Atom     3: H
  |   Hirshfeld charge        :      0.12957366
  |   Free atom volume        :     10.44207651
  |   Hirshfeld volume        :      6.75901084
  |   Hirshfeld dipole vector :      0.11740242       0.02298822       0.01821544
  |   Hirshfeld dipole moment :      0.12101070
  |   Hirshfeld second moments:      0.10911199      -0.00954494       0.00250209
  |                                 -0.00954494       0.10768911      -0.00792092
  |                                  0.00250209      -0.00792092       0.08926827
  ----------------------------------------------------------------------
  | Atom     4: O
  |   Hirshfeld charge        :     -0.28311158
  |   Free atom volume        :     23.95238533
  |   Hirshfeld volume        :     21.59025381
  |   Hirshfeld dipole vector :     -0.02988642       0.01985671       0.02092009
  |   Hirshfeld dipole moment :      0.04153477
  |   Hirshfeld second moments:      0.03236358       0.05721307      -0.00804350
  |                                  0.05721307       0.03749960       0.02715647
  |                                 -0.00804350       0.02715647       0.00730825
  ----------------------------------------------------------------------
  | Atom     5: H
  |   Hirshfeld charge        :      0.13695241
  |   Free atom volume        :     10.44207651
  |   Hirshfeld volume        :      6.42221513
  |   Hirshfeld dipole vector :      0.03673812       0.09817421       0.06274470
  |   Hirshfeld dipole moment :      0.12216695
  |   Hirshfeld second moments:      0.12048277       0.01743295      -0.00767880
  |                                  0.01743295       0.10506062       0.00357491
  |                                 -0.00767880       0.00357491       0.10423607
  ----------------------------------------------------------------------
  | Atom     6: H
  |   Hirshfeld charge        :      0.14642599
  |   Free atom volume        :     10.44207651
  |   Hirshfeld volume        :      6.30848072
  |   Hirshfeld dipole vector :     -0.10401369      -0.06409027       0.02277681
  |   Hirshfeld dipole moment :      0.12427870
  |   Hirshfeld second moments:      0.10544080       0.01218041       0.00064742
  |                                  0.01218041       0.12129478       0.01391040
  |                                  0.00064742       0.01391040       0.11191833
  ----------------------------------------------------------------------
  | Atom     7: O
  |   Hirshfeld charge        :     -0.28508406
  |   Free atom volume        :     23.95238533
  |   Hirshfeld volume        :     21.86422381
  |   Hirshfeld dipole vector :      0.04819567       0.01508294      -0.00416311
  |   Hirshfeld dipole moment :      0.05067197
  |   Hirshfeld second moments:      0.01540440      -0.01458146       0.02115507
  |                                 -0.01458146       0.04870345      -0.05181460
  |                                  0.02115507      -0.05181460      -0.01762859
  ----------------------------------------------------------------------
  | Atom     8: H
  |   Hirshfeld charge        :      0.14221140
  |   Free atom volume        :     10.44207651
  |   Hirshfeld volume        :      6.25508231
  |   Hirshfeld dipole vector :      0.10444711      -0.04971524       0.04230330
  |   Hirshfeld dipole moment :      0.12316807
  |   Hirshfeld second moments:      0.10986251       0.00601658       0.00078136
  |                                  0.00601658       0.12415623      -0.01448944
  |                                  0.00078136      -0.01448944       0.10805288
  ----------------------------------------------------------------------
  | Atom     9: H
  |   Hirshfeld charge        :      0.14888928
  |   Free atom volume        :     10.44207651
  |   Hirshfeld volume        :      6.12257239
  |   Hirshfeld dipole vector :      0.03748629       0.10664726      -0.05314652
  |   Hirshfeld dipole moment :      0.12491362
  |   Hirshfeld second moments:      0.12678233      -0.01103753       0.01082778
  |                                 -0.01103753       0.11662843      -0.00934590
  |                                  0.01082778      -0.00934590       0.10683062
  ----------------------------------------------------------------------


------------------------------------------------------------------------------
  Final output of selected total energy values:

  The following output summarizes some interesting total energy values
  at the end of a run (AFTER all relaxation, molecular dynamics, etc.).

  | Total energy of the DFT / Hartree-Fock s.c.f. calculation      :          -6248.540635723 eV
  | Final zero-broadening corrected energy (caution - metals only) :          -6248.540635723 eV
  | For reference only, the value of 1 Hartree used in FHI-aims is :             27.211384500 eV

  Before relying on these values, please be sure to understand exactly which
  total energy value is referred to by a given number. Different objects may
  all carry the same name 'total energy'. Definitions:

  Total energy of the DFT / Hartree-Fock s.c.f. calculation:
  | Note that this energy does not include ANY quantities calculated after the
  | s.c.f. cycle, in particular not ANY RPA, MP2, etc. many-body perturbation terms.

  Final zero-broadening corrected energy:
  | For metallic systems only, a broadening of the occupation numbers at the Fermi
  | level can be extrapolated back to zero broadening by an electron-gas inspired
  | formula. For all systems that are not real metals, this value can be
  | meaningless and should be avoided.

------------------------------------------------------------------------------

------------------------------------------------------------
          Leaving FHI-aims.
          Date     :  20150727, Time     :  121327.203

          Computational steps:
          | Number of self-consistency cycles          :           15

          Detailed time accounting                     :  max(cpu_time)    wall_clock(cpu1)
          | Total time                                 :       11.953 s          11.988 s
          | Preparation time                           :        0.170 s           0.472 s
          | Grid partitioning                          :        0.081 s           0.080 s
          | Preloading free-atom quantities on grid    :        0.014 s           0.013 s
          | Free-atom superposition energy             :        0.029 s           0.029 s
          | Total time for integrations                :        4.637 s           4.634 s
          | Total time for solution of K.-S. equations :        0.306 s           0.310 s
          | Total time for density & force components  :        3.903 s           3.898 s
          | Total time for mixing                      :        0.107 s           0.107 s
          | Total time for Hartree multipole update    :        0.054 s           0.055 s
          | Total time for Hartree multipole sum       :        2.177 s           2.179 s
          | Total time for total energy evaluation     :        0.008 s           0.015 s
          | Total time for scaled ZORA corrections     :        0.000 s           0.000 s
          | Total time for TS (2009) vdW correction    :        0.023 s           0.025 s

          Have a nice day.
------------------------------------------------------------
