begin 
comment This RuNNer input has been created automatically by fhiaims2runner 
comment relativistic  atomic zora scalar 
atom    -7.659119727    0.122834137   -2.882135845   O   -0.289040880    0.000000000   -0.004095667    0.071909911   -0.026253131 
atom    -8.629834630    1.842130327   -3.614707366   H    0.150290550    0.000000000    0.043730693   -0.067108718    0.029788189 
atom    -5.797341910    0.623934903   -2.791712414   H    0.138882780    0.000000000   -0.039685349   -0.005054187   -0.003487696 
atom   -10.636025375    7.050079652    2.618424459   O   -0.291255790    0.000000000    0.025558873    0.002660812   -0.036208085 
atom   -11.509665008    8.349701518    3.515553397   H    0.142555080    0.000000000   -0.006108952    0.012686556    0.005361949 
atom    -9.748231688    7.937344216    1.163835541   H    0.148506820    0.000000000   -0.019399598   -0.015094375    0.030798774 
energy   -153.08874174 
charge      0.00000000 
end 
