  MPI-parallelism will be employed.
------------------------------------------------------------
          Invoking FHI-aims ...
          Version 081213
          Compiled on 2013/08/29 at 17:41:06 on host generoso.

          When using FHI-aims, please cite the following reference:

          Volker Blum, Ralf Gehrke, Felix Hanke, Paula Havu,
          Ville Havu, Xinguo Ren, Karsten Reuter, and Matthias Scheffler,
          'Ab Initio Molecular Simulations with Numeric Atom-Centered Orbitals: FHI-aims',
          Computer Physics Communications 180, 2175-2196 (2009)

          For any questions about FHI-aims, please visit the aimsclub website
          with its forums and wiki. Contributions to both the forums and the
          wiki are warmly encouraged - they are for you, and everyone is welcome there.

------------------------------------------------------------

  Date     :  20150727, Time     :  121905.396
  Time zero on CPU 1             :   0.469920000000000E-01  s.
  Internal wall clock time zero  :           207231545.396  s.

  Using        8 parallel tasks.
  Task        0 on host gen60 reporting.
  Task        1 on host gen60 reporting.
  Task        2 on host gen60 reporting.
  Task        3 on host gen60 reporting.
  Task        4 on host gen60 reporting.
  Task        5 on host gen60 reporting.
  Task        6 on host gen60 reporting.
  Task        7 on host gen60 reporting.

  Performing system and environment tests:
  | Environment variable OMP_NUM_THREADS correctly set to 1.
  | Checking for scalapack...
  | No scalapack compiled in.

  Obtaining array dimensions for all initial allocations:
  
  -----------------------------------------------------------------------
  Parsing control.in (first pass over file, find array dimensions only).
  The contents of control.in will be repeated verbatim below
  unless switched off by setting 'verbatim_writeout .false.' .
  in the first line of control.in .
  -----------------------------------------------------------------------
  
  #########################################################################################
  #
  #  Volker Blum, FHI 2008 : Test run input file control.in
  #
  #########################################################################################
  #
  #  Physical model
  #
    xc                 rpbe
    spin               none
    relativistic       atomic_zora scalar
    charge             0.
   vdw_correction_hirshfeld
  #
  #  SCF convergence
  #
    occupation_type    gaussian 0.01
    mixer              pulay
      n_max_pulay        10
      charge_mix_param   0.1
    sc_accuracy_rho    5E-5
    sc_accuracy_eev    5E-3
    sc_accuracy_etot   5E-6
    sc_iter_limit      3000
  #
  #  Eigenvalue solver
  #
    KS_method          lapack
      empty_states       8
      basis_threshold    0.e-5
  #
  #  Efficiency
  #
  #   all previous settings are now default, except stratmann still
  #   undecided. Continue to handle stratmann with care, if at all.
  #
  #  partition_type stratmann
    partition_type rho_r2
  #  hartree_partition_type stratmann
  #
  #  Oprions for large clusters (100's of atoms: memory saving / better scaling)
  #
  # for periodic systems:
  #
    density_update_method orbital
    packed_matrix_format none
  #  k_grid 6 6 6
  #  output k_eigenvalue 1
  #  distributed_spline_storage .true.
  #
  #  Relaxation
  #
  #  relax_geometry   bfgs 5.e-3
    sc_accuracy_forces 5.E-4
    final_forces_cleaned .true.
  #
  #  Output options
  #
  #  output mulliken
    output Hirshfeld
  #  output dipole
  
  #harmonic_length_scale 0.001
  
  ################################################################################
  #
  #  FHI-aims code project
  #  VB, Fritz-Haber Institut, 2007
  #
  #  Suggested "safe" defaults for H atom (to be pasted into control.in file)
  #  Basis constructed for a non-relativistic H2 molecule using the
  #  PW-LDA functional.
  #
  ################################################################################
    species        H
  #     global species definitions
      nucleus             1
      cut_pot             4.0  2.0  1.0
      cut_free_atom       finite 8.0
      logarithmic         0.00010000 100.00  1.0123
      basis_dep_cutoff    1d-4  # 1d-4 is safe default - please check 5d-4 if you wish!
      radial_base         24 7.0
      radial_multiplier   2
      angular_grids       specified
        division   0.2783  110
        division   0.3822  194
        division   0.5626  302
  #      division   0.5922  434
  #      division   0.6227  590
  #      division   0.7206  770
        outer_grid  302
      l_hartree           4
  ################################################################################
  #
  #  Definition of "minimal" basis
  #
  ################################################################################
  #     valence basis states
      valence      1  s   1.
  #     ion occupancy
      ion_occ      1  s   0.5
  ################################################################################
  #
  #  Suggested additional basis functions. For production calculations,
  #  uncomment them one after another (the most important basis functions are
  #  listed first).
  #
  ################################################################################
  #  "First tier" - improvements: -1014.90 meV to -62.69 meV
       hydro 2 s 2.1
       hydro 2 p 3.5
  #  "Second tier" - improvements: -12.89 meV to -1.83 meV
       hydro 1 s 0.85
       hydro 2 p 3.7
       hydro 2 s 1.2
       hydro 3 d 7
  #  "Third tier" - improvements: -0.25 meV to -0.12 meV
  #     hydro 4 f 11.2
  #     hydro 3 p 4.8
  #     hydro 4 d 9
  #     hydro 3 s 3.2
  
  ################################################################################
  #
  #  FHI-aims code project
  #  VB, Fritz-Haber Institut, 2007
  #
  #  Suggested "safe" defaults for O atom (to be pasted into control.in file)
  #  All values have been tested for a non-relativistic, non-spinpolarized O2
  #  molecule using the PW-LDA functional. Validity for PBE is expected.
  #
  #  Constructed for dimers: 1.0 A, 1.208 A, 1.5 A, 2.0 A, 3.0 A
  #
  ################################################################################
    species        O
  #     global species definitions
      nucleus             8
      mass                15.9994
      l_hartree           4
      cut_pot             4.0  2.0  1.0
      cut_free_atom       finite 8.0
      basis_dep_cutoff    1d-4  # 1d-4 is safe default - please check 5d-4 if you wish!
      logarithmic         0.00010000 100.00  1.0123
      radial_base         36 7.0
      radial_multiplier   2
       angular_grids specified
        division   0.4087  110
        division   0.5181  194
        division   0.6184  302
  #      division   0.7315  434
  #      division   0.7934  590
  #      division   0.9656  770
  #      division   1.4041  974
  #      outer_grid 974
        outer_grid 302
  ################################################################################
  #
  #  Definition of "minimal" basis
  #
  ################################################################################
  #     valence basis states
      valence      2  s   2.
      valence      2  p   4.
  #     ion occupancy
      ion_occ      2  s   1.
      ion_occ      2  p   3.
  ################################################################################
  #
  #  Suggested additional basis functions. For production calculations,
  #  uncomment them one after another (the most important basis functions are
  #  listed first).
  #
  ################################################################################
  #  "First tier" - improvements: -699.05 meV to -159.38 meV
       hydro 2 p 1.8
       hydro 3 d 7.6
       hydro 3 s 6.4
  #  "Second tier" - improvements: -49.91 meV to -5.39 meV
       hydro 4 f 11.6
       hydro 3 p 6.2
       hydro 3 d 5.6
       hydro 5 g 17.6
       hydro 1 s 0.75
  #  "Third tier" - improvements: -2.83 meV to -0.50 meV
  #     ionic 2 p auto
  #     hydro 4 f 10.8
  #     hydro 4 d 4.7
  #     hydro 2 s 6.8
  #  "Fourth tier" - improvements: -0.40 meV to -0.12 meV
  #     hydro 3 p 5
  #     hydro 3 s 3.3
  #     hydro 5 g 15.6
  #     hydro 4 f 17.6
  #     hydro 4 d 14
  # Further basis functions - -0.08 meV and below
  #     hydro 3 s 2.1
  #     hydro 4 d 11.6
  #     hydro 3 p 16
  #     hydro 2 s 17.2
  
  
  -----------------------------------------------------------------------
  Completed first pass over input file control.in .
  -----------------------------------------------------------------------
  
  
  -----------------------------------------------------------------------
  Parsing geometry.in (first pass over file, find array dimensions only).
  The contents of geometry.in will be repeated verbatim below
  unless switched off by setting 'verbatim_writeout .false.' .
  in the first line of geometry.in .
  -----------------------------------------------------------------------
  
  atom      -4.053030000      0.065001000     -1.525160000  O
  atom      -4.566710000      0.974813000     -1.912820000  H
  atom      -3.067820000      0.330172000     -1.477310000  H
  atom      -5.293160000      2.192130000     -2.328800000  O
  atom      -4.829300000      2.988660000     -1.973850000  H
  atom      -5.428570000      2.328640000     -3.235170000  H
  atom      -1.645860000      0.870179000     -1.502250000  O
  atom      -1.568890000      1.501730000     -0.721051000  H
  atom      -0.824432000      0.282220000     -1.377720000  H
  atom      -3.818880000      2.024990000      2.187990000  O
  atom      -3.690880000      1.961360000      3.202150000  H
  atom      -4.546490000      2.751300000      2.045370000  H
  atom      -5.628340000      3.730740000      1.385610000  O
  atom      -6.090650000      4.418470000      1.860350000  H
  atom      -5.158540000      4.200260000      0.615875000  H
  
  -----------------------------------------------------------------------
  Completed first pass over input file geometry.in .
  -----------------------------------------------------------------------
  
 
  Basic array size parameters: 
  | Number of species                 :        2
  | Number of atoms                   :       15
  | Max. basis fn. angular momentum   :        4
  | Max. atomic/ionic basis occupied n:        2
  | Max. number of basis fn. types    :        2
  | Max. radial fns per species/type  :        8
  | Max. logarithmic grid size        :     1301
  | Max. radial integration grid size :       73
  | Max. angular integration grid size:      302
  | Max. angular grid division number :        8
  | Radial grid for Hartree potential :     1301
  | Number of spin channels           :        1

------------------------------------------------------------
          Reading file control.in.
------------------------------------------------------------
  XC: Using RPBE gradient-corrected functionals.
  Spin treatment: No spin polarisation.
  Scalar relativistic treatment of kinetic energy: on-site free-atom approximation to ZORA.
  Charge =   0.000000E+00: Neutral system requested explicitly.
  Using non-empirical van der Waals correction (Hirshfeld partitioning):
  Occupation type: Gaussian broadening, width =   0.100000E-01 eV.
  Using pulay charge density mixing.
  Pulay mixing - number of memorized iterations:   10
  Charge density mixing - mixing parameter:     0.1000
  Convergence accuracy of self-consistent charge density: 0.5000E-04
  Convergence accuracy of sum of eigenvalues: 0.5000E-02
  Convergence accuracy of total energy: 0.5000E-05
  Maximum number of s.-c. iterations  :  3000
  Kohn-Sham eigenvalues and eigenfunctions calculated by lapack diagonalisation (D&C).
  Number of empty states per atom:        8
  Threshold for basis singularities: 0.0000E+00
  Partition function in integrals calculations: rho / r^2
 Using packed matrix format           0
  Convergence accuracy of forces: 0.5000E-03
  Cleaning forces before final output.
  Hirshfeld charge analysis will be performed.
 
  Reading configuration options for species H                   .
  | Found nuclear charge :   1.0000
  | Found cutoff potl. onset [A], width [A], scale factor :    4.00000    2.00000    1.00000
  | Found cutoff specification for free atom: Cutoff potential begins at    8.00000 A.
  | Found logarithmic grid data [bohr] : 0.1000E-03 0.1000E+03 0.1012E+01
  | Threshold for basis-dependent cutoff potential is   0.100000E-03
  | Found data for basic radial integration grid :    24 points, outermost radius =    7.000 A
  | Found multiplier for basic radial grid :   2
  | Found angular grid specification: user-specified.
  | Specified grid contains     4 separate shells.
  | Check grid settings after all constraints further below.
  | Found l_max for Hartree potential  :   4
  | Found free-atom valence shell :  1 s   1.000
  | No ionic wave fns used. Skipping ion_occ.
  | Found hydrogenic basis function :  2 s   2.100
  | Found hydrogenic basis function :  2 p   3.500
  | Found hydrogenic basis function :  1 s   0.850
  | Found hydrogenic basis function :  2 p   3.700
  | Found hydrogenic basis function :  2 s   1.200
  | Found hydrogenic basis function :  3 d   7.000
  Species H                   : Missing cutoff potential type.
  Defaulting to exp(1/x)/(1-x)^2 type cutoff potential.
  Species H : On-site basis accuracy parameter (for Gram-Schmidt orthonormalisation) not specified.
  Using default value basis_acc =  0.1000000E-03.
  Species H                   : Using default innermost maximum threshold i_radial=  2 for radial functions.
  Species H                   : Basic radial grid will be enhanced according to radial_multiplier =   2, to contain    49 grid points.
 
  Reading configuration options for species O                   .
  | Found nuclear charge :   8.0000
  | Found atomic mass :    15.9994000000000      amu
  | Found l_max for Hartree potential  :   4
  | Found cutoff potl. onset [A], width [A], scale factor :    4.00000    2.00000    1.00000
  | Found cutoff specification for free atom: Cutoff potential begins at    8.00000 A.
  | Threshold for basis-dependent cutoff potential is   0.100000E-03
  | Found logarithmic grid data [bohr] : 0.1000E-03 0.1000E+03 0.1012E+01
  | Found data for basic radial integration grid :    36 points, outermost radius =    7.000 A
  | Found multiplier for basic radial grid :   2
  | Found angular grid specification: user-specified.
  | Specified grid contains     4 separate shells.
  | Check grid settings after all constraints further below.
  | Found free-atom valence shell :  2 s   2.000
  | Found free-atom valence shell :  2 p   4.000
  | No ionic wave fns used. Skipping ion_occ.
  | No ionic wave fns used. Skipping ion_occ.
  | Found hydrogenic basis function :  2 p   1.800
  | Found hydrogenic basis function :  3 d   7.600
  | Found hydrogenic basis function :  3 s   6.400
  | Found hydrogenic basis function :  4 f  11.600
  | Found hydrogenic basis function :  3 p   6.200
  | Found hydrogenic basis function :  3 d   5.600
  | Found hydrogenic basis function :  5 g  17.600
  | Found hydrogenic basis function :  1 s   0.750
  Species O                   : Missing cutoff potential type.
  Defaulting to exp(1/x)/(1-x)^2 type cutoff potential.
  Species O : On-site basis accuracy parameter (for Gram-Schmidt orthonormalisation) not specified.
  Using default value basis_acc =  0.1000000E-03.
  Species O                   : Using default innermost maximum threshold i_radial=  2 for radial functions.
  Species O                   : Basic radial grid will be enhanced according to radial_multiplier =   2, to contain    73 grid points.
 
  Finished reading input file 'control.in'. Consistency checks are next.
 
  Target number of points in a grid batch is not set. Defaulting to  100
  Method for grid partitioning is not set. Defaulting to parallel hash+maxmin partitioning.
  Batch size limit is not set. Defaulting to    200
  By default, will store active basis functions for each batch.
  If in need of memory, prune_basis_once .false. can be used to disable this option.
  communication_type for Hartree potential was not specified.
  Defaulting to calc_hartree .
  Pulay mixer: Number of initial linear mixing iterations not set.
  Defaulting to    0 iterations.
  Work space size for distributed Hartree potential not set.
  Defaulting to   0.200000E+03 MB.
  Algorithm-dependent basis array size parameters:
  | n_max_pulay                         :       10
  Geometry relaxation not requested: no relaxation will be performed.
  Handling of forces: Unphysical translation and rotation will be removed from forces.
  No accuracy limit for integral partition fn. given. Defaulting to 0.1000E-14.
  No threshold value for u(r) in integrations given. Defaulting to 0.1000E-05.
  No accuracy for occupation numbers given. Defaulting to 0.1000E-07.
  No threshold value for occupation numbers given. Defaulting to 0.0000E+00.
  No accuracy for fermi level given. Defaulting to 0.1000E-19.
  Maximum # of iterations to find E_F not set. Defaulting to  200.
  Will not use alltoall communication since running on < 1024 CPUs.
  Partitioning for Hartree potential was not defined. Using partition_type for integrals.
  | Reporting present value of keyword multip_moments_threshold  :       0.10000000E-09
  | This value may affect high angular momentum components of the Hartree potential in periodic systems.
  No q(lm)/r^(l+1) cutoff set for long-range Hartree potential.
  | Using default value of  0.100000E-09 .
  | Verify using the multipole_threshold keyword.
  Defaulting to new monopole extrapolation.
  Density update method: Loop over occupied states selected for charge density update.
------------------------------------------------------------


------------------------------------------------------------
          Reading geometry description geometry.in.
------------------------------------------------------------
  Input structure read successfully.
  The structure contains       15 atoms,  and a total of         50.000 electrons.

  Input geometry:
  | No unit cell requested.
  | Atomic structure:
  |       Atom                x [A]            y [A]            z [A]
  |    1: Species O             -4.053030         0.065001        -1.525160
  |    2: Species H             -4.566710         0.974813        -1.912820
  |    3: Species H             -3.067820         0.330172        -1.477310
  |    4: Species O             -5.293160         2.192130        -2.328800
  |    5: Species H             -4.829300         2.988660        -1.973850
  |    6: Species H             -5.428570         2.328640        -3.235170
  |    7: Species O             -1.645860         0.870179        -1.502250
  |    8: Species H             -1.568890         1.501730        -0.721051
  |    9: Species H             -0.824432         0.282220        -1.377720
  |   10: Species O             -3.818880         2.024990         2.187990
  |   11: Species H             -3.690880         1.961360         3.202150
  |   12: Species H             -4.546490         2.751300         2.045370
  |   13: Species O             -5.628340         3.730740         1.385610
  |   14: Species H             -6.090650         4.418470         1.860350
  |   15: Species H             -5.158540         4.200260         0.615875
  |

  | The smallest distance between any two atoms is         0.92654057 AA.
  |
  | The first atom of this pair is atom number                      4 .
  | The second atom of this pair is atom number                     6 .

  Structure-dependent array size parameters: 
  | Maximum number of distinct radial functions  :       18
  | Maximum number of basis functions            :      345
  | Number of Kohn-Sham states (occupied + empty):       85
------------------------------------------------------------

------------------------------------------------------------
          Preparing all fixed parts of the calculation.
------------------------------------------------------------
  Determining machine precision:
    2.225073858507201E-308
  Setting up grids for atomic and cluster calculations.

  Creating wave function, potential, and density for free atoms.

  Species: H

  List of occupied orbitals and eigenvalues:
    n    l              occ      energy [Ha]    energy [eV]
    1    0           1.0000        -0.241408        -6.5691


  Species: O

  List of occupied orbitals and eigenvalues:
    n    l              occ      energy [Ha]    energy [eV]
    1    0           2.0000       -18.944147      -515.4965
    2    0           2.0000        -0.883529       -24.0421
    2    1           4.0000        -0.330176        -8.9845

  Creating fixed part of basis set: Ionic, confined, hydrogenic.
 
  H                    hydrogenic:
 
  List of hydrogenic basis orbitals: 
    n    l      effective z      eigenvalue [eV]  inner max. [A]     outer max. [A]     outer radius [A]   
    2    0         2.100000       -14.9965           0.193241           1.317192           5.372934
    2    1         3.500000       -41.6672           0.602363           0.602363           4.056010
    1    0         0.850000        -9.8292           0.624864           0.624864           5.372934
    2    1         3.700000       -46.5653           0.573616           0.573616           3.909951
    2    0         1.200000        -4.5995           0.334977           2.228160           5.505921
    3    2         7.000000       -74.0753           0.680692           0.680692           3.769152
 
 
  O                    hydrogenic:
 
  List of hydrogenic basis orbitals: 
    n    l      effective z      eigenvalue [eV]  inner max. [A]     outer max. [A]     outer radius [A]   
    2    1         1.800000       -11.0118           1.178546           1.178546           5.432516
    3    2         7.600000       -87.3182           0.624117           0.624117           3.541422
    3    0         6.400000       -61.9209           0.061166           1.081887           4.306510
    4    3        11.600000      -114.4238           0.731621           0.731621           3.584982
    3    1         6.200000       -58.1113           0.255677           1.030255           4.306510
    3    2         5.600000       -47.4081           0.847222           0.847222           4.413102
    5    4        17.600000      -168.5799           0.749730           0.749730           3.372413
    1    0         0.750000        -7.6499           0.705275           0.705275           5.366508
 

  Adding cutoff potential to free-atom effective potential.
  Creating atomic-like basis functions for current effective potential.

  Species H                   :

  List of atomic basis orbitals and eigenvalues:
    n    l      energy [Ha]    energy [eV]    outer radius [A]
    1    0        -0.241374        -6.5681       5.372934


  Species O                   :

  List of atomic basis orbitals and eigenvalues:
    n    l      energy [Ha]    energy [eV]    outer radius [A]
    1    0       -18.944147      -515.4965       1.415745
    2    0        -0.883529       -24.0421       5.048305
    2    1        -0.330173        -8.9845       5.301302

  Assembling full basis from fixed parts.
  | Species H :   atomic orbital   1 s accepted.
  | Species H :    hydro orbital   2 s accepted.
  | Species H :    hydro orbital   1 s accepted.
  | Species H :    hydro orbital   2 s accepted.
  | Species H :    hydro orbital   2 p accepted.
  | Species H :    hydro orbital   2 p accepted.
  | Species H :    hydro orbital   3 d accepted.
  | Species O :   atomic orbital   1 s accepted.
  | Species O :    hydro orbital   3 s accepted.
  | Species O :   atomic orbital   2 s accepted.
  | Species O :    hydro orbital   1 s accepted.
  | Species O :    hydro orbital   3 p accepted.
  | Species O :   atomic orbital   2 p accepted.
  | Species O :    hydro orbital   2 p accepted.
  | Species O :    hydro orbital   3 d accepted.
  | Species O :    hydro orbital   3 d accepted.
  | Species O :    hydro orbital   4 f accepted.
  | Species O :    hydro orbital   5 g accepted.
 
  Basis size parameters after reduction:
  | Total number of radial functions:       18
  | Total number of basis functions :      345
 
  Testing on-site integration grid accuracy.
  |  Species  Function  <phi|h_atom|phi> (log., in eV)  <phi|h_atom|phi> (rad., in eV)
           1        1                 -6.5683835025                 -6.5684759159
           1        2                 13.3711789951                 13.3708738703
           1        3                 23.6590910787                 23.6532055418
           1        4                 16.2963827186                 16.1870710655 ***
           1        5                 28.7627214838                 28.7627215090
           1        6                 59.5965249172                 59.5965950857
           1        7                 60.2220506392                 60.2220503827
           2        8               -515.4964576505               -515.4964530710
           2        9                 15.3030791347                 15.3030722972
           2       10                -21.7296094581                -21.7296135470
           2       11                 14.2969371730                 14.2969701621
           2       12                 21.0679693190                 21.0679697493
           2       13                 -2.3833606469                 -2.3833613176
           2       14                 13.7067136422                 13.7066766629
           2       15                 45.8013116808                 45.8013116965
           2       16                 52.2309815402                 52.2309831494
           2       17                 85.4120732416                 85.4120732763
           2       18                142.1019167745                142.1019167817
 * Note: Onsite integrals marked "***" above are less accurate than
 * onsite_accuracy_threshold =    0.03000 eV. Usually, this is harmless.
 * When in doubt, tighten the "radial" and/or "radial_multiplier" flags to check.

  Preparing densities etc. for the partition functions (integrals / Hartree potential).

  Preparations completed.
  max(cpu_time)          :      0.170 s.
  Wall clock time (cpu1) :      0.505 s.
------------------------------------------------------------

------------------------------------------------------------
          Begin self-consistency loop: Initialization.

          Date     :  20150727, Time     :  121905.927
------------------------------------------------------------

  Initializing index lists of integration centers etc. from given atomic structure:
  | Number of centers in hartree potential         :        15
  | Number of centers in hartree multipole         :        15
  | Number of centers in electron density summation:        15
  | Number of centers in basis integrals           :        15
  | Number of centers in integrals                 :        15
  Partitioning the integration grid into batches with parallel hashing+maxmin method.
  | Number of batches:     1835
  | Maximal batch size:     194
  | Minimal batch size:      50
  | Average batch size:     107.199
  | Standard deviation of batch sizes:      37.075

  Integration load balanced across     8 MPI tasks.
  Work distribution over tasks is as follows:
  Task     0 has      24585 integration points.
  Task     1 has      24571 integration points.
  Task     2 has      24622 integration points.
  Task     3 has      24544 integration points.
  Task     4 has      24645 integration points.
  Task     5 has      24584 integration points.
  Task     6 has      24619 integration points.
  Task     7 has      24540 integration points.
  Initializing partition tables, free-atom densities, potentials, etc. across the integration grid (initialize_grid_storage).
  | Net number of integration points:   196710
  | of which are non-zero points    :   196147
  Obtaining max. number of non-zero basis functions in each batch (get_n_compute_maxes).
  | Maximal number of non-zero basis functions:      341 in task     0
  | Maximal number of non-zero basis functions:      340 in task     1
  | Maximal number of non-zero basis functions:      341 in task     2
  | Maximal number of non-zero basis functions:      341 in task     3
  | Maximal number of non-zero basis functions:      340 in task     4
  | Maximal number of non-zero basis functions:      341 in task     5
  | Maximal number of non-zero basis functions:      341 in task     6
  | Maximal number of non-zero basis functions:      341 in task     7
  Integrating Hamiltonian matrix: batch-based integration.
  Time summed over all CPUs for integration: real work        6.324 s, elapsed        6.498 s
  Integrating overlap matrix.
  Time summed over all CPUs for integration: real work        3.375 s, elapsed        3.454 s

  Updating Kohn-Sham eigenvalues, eigenvectors, occupation numbers, and Fermi level.
  Solving generalized eigenproblem
  Updating Kohn-Sham eigenvalues and eigenfunctions.
  Transforming overlap matrix and checking for singularities.
  Overlap matrix is nonsingular:
  | Lowest eigenvalue:  0.254469E-03
  Solving real generalised eigenvalue problem by standard LAPACK (fast)
  Determining occupation numbers for Kohn-Sham eigenstates.
  | Chemical potential (Fermi level) in eV                 : -.35849808E+01
  | Error in electron count due to remaining E_F inaccuracy: 0.00000000E+00
  | Maximum occupation number of highest empty state:  0.00E+00

  Writing Kohn-Sham eigenvalues.

  State    Occupation    Eigenvalue [Ha]    Eigenvalue [eV]
      1       2.00000         -19.064797         -518.77953
      2       2.00000         -19.050515         -518.39089
      3       2.00000         -19.042417         -518.17054
      4       2.00000         -19.028875         -517.80203
      5       2.00000         -19.019676         -517.55172
      6       2.00000          -1.121216          -30.50984
      7       2.00000          -1.098968          -29.90443
      8       2.00000          -1.086671          -29.56983
      9       2.00000          -1.059619          -28.83369
     10       2.00000          -1.042008          -28.35447
     11       2.00000          -0.650234          -17.69378
     12       2.00000          -0.628193          -17.09399
     13       2.00000          -0.608805          -16.56642
     14       2.00000          -0.600578          -16.34256
     15       2.00000          -0.599996          -16.32673
     16       2.00000          -0.548469          -14.92460
     17       2.00000          -0.518362          -14.10534
     18       2.00000          -0.500727          -13.62547
     19       2.00000          -0.482969          -13.14227
     20       2.00000          -0.476480          -12.96568
     21       2.00000          -0.441394          -12.01095
     22       2.00000          -0.438250          -11.92539
     23       2.00000          -0.431358          -11.73784
     24       2.00000          -0.417234          -11.35350
     25       2.00000          -0.409701          -11.14854
     26       0.00000          -0.097084           -2.64180
     27       0.00000          -0.074006           -2.01382
     28       0.00000          -0.062559           -1.70231
     29       0.00000          -0.043239           -1.17659
     30       0.00000          -0.019669           -0.53523
     31       0.00000          -0.005374           -0.14624
     32       0.00000           0.010568            0.28756
     33       0.00000           0.024895            0.67742
     34       0.00000           0.047562            1.29423
     35       0.00000           0.061959            1.68598
     36       0.00000           0.066823            1.81834
     37       0.00000           0.078794            2.14408
     38       0.00000           0.086797            2.36186
     39       0.00000           0.095824            2.60749
     40       0.00000           0.099615            2.71067
     41       0.00000           0.101976            2.77491
     42       0.00000           0.105942            2.88282
     43       0.00000           0.114258            3.10912
     44       0.00000           0.125478            3.41444
     45       0.00000           0.135518            3.68763
     46       0.00000           0.141715            3.85626
     47       0.00000           0.150317            4.09034
     48       0.00000           0.152139            4.13991
     49       0.00000           0.164204            4.46822
     50       0.00000           0.178530            4.85805
     51       0.00000           0.195273            5.31366
     52       0.00000           0.206807            5.62751
     53       0.00000           0.217458            5.91733
     54       0.00000           0.236490            6.43521
     55       0.00000           0.258259            7.02758
     56       0.00000           0.265253            7.21789
     57       0.00000           0.282892            7.69788
     58       0.00000           0.291680            7.93702
     59       0.00000           0.304724            8.29197
     60       0.00000           0.334657            9.10648
     61       0.00000           0.344539            9.37539
     62       0.00000           0.350757            9.54458
     63       0.00000           0.356724            9.70694
     64       0.00000           0.358703            9.76081
     65       0.00000           0.369885           10.06507
     66       0.00000           0.383684           10.44056
     67       0.00000           0.392892           10.69112
     68       0.00000           0.407988           11.10191
     69       0.00000           0.421295           11.46402
     70       0.00000           0.430186           11.70597
     71       0.00000           0.439611           11.96243
     72       0.00000           0.448905           12.21531
     73       0.00000           0.464551           12.64108
     74       0.00000           0.489014           13.30675
     75       0.00000           0.493829           13.43777
     76       0.00000           0.522980           14.23100
     77       0.00000           0.529381           14.40518
     78       0.00000           0.552925           15.04586
     79       0.00000           0.575493           15.65997
     80       0.00000           0.605406           16.47394
     81       0.00000           0.619529           16.85824
     82       0.00000           0.668907           18.20189
     83       0.00000           0.693432           18.86926
     84       0.00000           0.727218           19.78861
     85       0.00000           0.745262           20.27962

  Highest occupied state (VBM) at    -11.14854339 eV
  | Occupation number:      2.00000000

  Lowest unoccupied state (CBM) at    -2.64180105 eV
  | Occupation number:      0.00000000

  Overall HOMO-LUMO gap:      8.50674234 eV.
  Calculating total energy contributions from superposition of free atom densities.

  Total energy components:
  | Sum of eigenvalues            :        -216.73502456 Ha       -5897.66008796 eV
  | XC energy correction          :         -45.56362835 Ha       -1239.84941027 eV
  | XC potential correction       :          58.22220021 Ha        1584.30667629 eV
  | Free-atom electrostatic energy:        -178.99929675 Ha       -4870.81868905 eV
  | Hartree energy correction     :           0.00000000 Ha           0.00000000 eV
  | van der Waals energy corr.    :           0.00000000 Ha           0.00000000 eV
  | Entropy correction            :           0.00000000 Ha           0.00000000 eV
  | ---------------------------
  | Total energy                  :        -383.07574945 Ha      -10424.02151099 eV
  | Total energy, T -> 0          :        -383.07574945 Ha      -10424.02151099 eV  <-- do not rely on this value for anything but (periodic) metals
  | Electronic free energy        :        -383.07574945 Ha      -10424.02151099 eV

  Derived energy quantities:
  | Kinetic energy                :         379.16213612 Ha       10317.52667386 eV
  | Electrostatic energy          :        -716.67425722 Ha      -19501.69877458 eV
  | Energy correction for multipole
  | error in Hartree potential    :           0.00000000 Ha           0.00000000 eV
  | Sum of eigenvalues per atom                           :        -393.17733920 eV
  | Total energy (T->0) per atom                          :        -694.93476740 eV  <-- do not rely on this value for anything but (periodic) metals
  | Electronic free energy per atom                       :        -694.93476740 eV
  Initialize hartree_potential_storage
  Max. number of atoms included in rho_multipole:           15

  End scf initialization - timings             :  max(cpu_time)    wall_clock(cpu1)
  | Time for scf. initialization               :        1.812 s           1.812 s
  | Boundary condition initialization          :        0.000 s           0.000 s
  | Integration                                :        1.248 s           1.248 s
  | Solution of K.-S. eqns.                    :        0.197 s           0.197 s
  | Grid partitioning                          :        0.153 s           0.153 s
  | Preloading free-atom quantities on grid    :        0.013 s           0.013 s
  | Free-atom superposition energy             :        0.067 s           0.067 s
  | Total energy evaluation                    :        0.000 s           0.000 s
------------------------------------------------------------

------------------------------------------------------------
          Begin self-consistency iteration #    1

  Date     :  20150727, Time     :  121907.739
------------------------------------------------------------
  Evaluating new KS density.
  Integration grid: deviation in total charge (<rho> - N_e) =   2.842171E-14
  Pulay mixing of updated and previous charge densities.

  Evaluating partitioned Hartree potential by multipole expansion.
  | Analytical far-field extrapolation by fixed multipoles:
  | Hartree multipole sum: apparent total charge =  -0.205952E-05
  Summing up the Hartree potential.
  Time summed over all CPUs for potential: real work        2.562 s, elapsed        2.579 s
  | RMS charge density error from multipole expansion :   0.159850E-02

  Integrating Hamiltonian matrix: batch-based integration.
  Time summed over all CPUs for integration: real work        6.301 s, elapsed        6.473 s

  Updating Kohn-Sham eigenvalues, eigenvectors, occupation numbers, and Fermi level.
  Solving generalized eigenproblem
  Updating Kohn-Sham eigenvalues and eigenfunctions.
  Solving real generalised eigenvalue problem by standard LAPACK (fast)
  Determining occupation numbers for Kohn-Sham eigenstates.
  | Chemical potential (Fermi level) in eV                 : -.31513157E+01
  | Error in electron count due to remaining E_F inaccuracy: 0.00000000E+00
  | Maximum occupation number of highest empty state:  0.00E+00

  Writing Kohn-Sham eigenvalues.

  State    Occupation    Eigenvalue [Ha]    Eigenvalue [eV]
      1       2.00000         -18.996836         -516.93021
      2       2.00000         -18.983844         -516.57669
      3       2.00000         -18.975683         -516.35459
      4       2.00000         -18.945477         -515.53267
      5       2.00000         -18.921461         -514.87916
      6       2.00000          -1.089081          -29.63541
      7       2.00000          -1.067881          -29.05852
      8       2.00000          -1.053090          -28.65604
      9       2.00000          -1.015835          -27.64228
     10       2.00000          -0.987144          -26.86155
     11       2.00000          -0.622809          -16.94750
     12       2.00000          -0.601431          -16.36576
     13       2.00000          -0.576957          -15.69979
     14       2.00000          -0.565319          -15.38312
     15       2.00000          -0.564433          -15.35901
     16       2.00000          -0.512317          -13.94086
     17       2.00000          -0.483681          -13.16163
     18       2.00000          -0.461828          -12.56699
     19       2.00000          -0.442352          -12.03702
     20       2.00000          -0.435691          -11.85576
     21       2.00000          -0.403047          -10.96747
     22       2.00000          -0.399427          -10.86895
     23       2.00000          -0.388883          -10.58204
     24       2.00000          -0.371700          -10.11448
     25       2.00000          -0.353175           -9.61039
     26       0.00000          -0.090804           -2.47091
     27       0.00000          -0.066996           -1.82306
     28       0.00000          -0.055032           -1.49749
     29       0.00000          -0.035294           -0.96041
     30       0.00000          -0.014295           -0.38898
     31       0.00000           0.001581            0.04303
     32       0.00000           0.023973            0.65233
     33       0.00000           0.030216            0.82222
     34       0.00000           0.056876            1.54768
     35       0.00000           0.070730            1.92467
     36       0.00000           0.076971            2.09448
     37       0.00000           0.088553            2.40965
     38       0.00000           0.096043            2.61345
     39       0.00000           0.103906            2.82742
     40       0.00000           0.107473            2.92448
     41       0.00000           0.110029            2.99404
     42       0.00000           0.119922            3.26325
     43       0.00000           0.130796            3.55914
     44       0.00000           0.137150            3.73205
     45       0.00000           0.143069            3.89312
     46       0.00000           0.151969            4.13528
     47       0.00000           0.161742            4.40122
     48       0.00000           0.172402            4.69128
     49       0.00000           0.176821            4.81153
     50       0.00000           0.193810            5.27383
     51       0.00000           0.205548            5.59324
     52       0.00000           0.215642            5.86792
     53       0.00000           0.227607            6.19350
     54       0.00000           0.247004            6.72131
     55       0.00000           0.269200            7.32531
     56       0.00000           0.272545            7.41633
     57       0.00000           0.290783            7.91260
     58       0.00000           0.300867            8.18700
     59       0.00000           0.316231            8.60508
     60       0.00000           0.344940            9.38630
     61       0.00000           0.355391            9.67067
     62       0.00000           0.361903            9.84787
     63       0.00000           0.365377            9.94241
     64       0.00000           0.369530           10.05542
     65       0.00000           0.379223           10.31917
     66       0.00000           0.393287           10.70189
     67       0.00000           0.404658           11.01131
     68       0.00000           0.418048           11.37568
     69       0.00000           0.429987           11.70054
     70       0.00000           0.440702           11.99210
     71       0.00000           0.446283           12.14398
     72       0.00000           0.457547           12.45049
     73       0.00000           0.474010           12.89846
     74       0.00000           0.498237           13.55771
     75       0.00000           0.503741           13.70748
     76       0.00000           0.535536           14.57268
     77       0.00000           0.542350           14.75811
     78       0.00000           0.565374           15.38462
     79       0.00000           0.589632           16.04472
     80       0.00000           0.616632           16.77942
     81       0.00000           0.634615           17.26875
     82       0.00000           0.684321           18.62131
     83       0.00000           0.708048           19.26697
     84       0.00000           0.740498           20.14997
     85       0.00000           0.758789           20.64771

  Highest occupied state (VBM) at     -9.61038692 eV
  | Occupation number:      2.00000000

  Lowest unoccupied state (CBM) at    -2.47091483 eV
  | Occupation number:      0.00000000

  Overall HOMO-LUMO gap:      7.13947210 eV.

  Total energy components:
  | Sum of eigenvalues            :        -214.43876860 Ha       -5835.17578412 eV
  | XC energy correction          :         -45.80188475 Ha       -1246.33269683 eV
  | XC potential correction       :          58.53416676 Ha        1592.79571806 eV
  | Free-atom electrostatic energy:        -178.99929675 Ha       -4870.81868905 eV
  | Hartree energy correction     :          -2.22151703 Ha         -60.45055397 eV
  | van der Waals energy corr.    :           0.00000000 Ha           0.00000000 eV
  | Entropy correction            :           0.00000000 Ha           0.00000000 eV
  | ---------------------------
  | Total energy                  :        -382.92730037 Ha      -10419.98200591 eV
  | Total energy, T -> 0          :        -382.92730037 Ha      -10419.98200591 eV  <-- do not rely on this value for anything but (periodic) metals
  | Electronic free energy        :        -382.92730037 Ha      -10419.98200591 eV

  Derived energy quantities:
  | Kinetic energy                :         380.57690803 Ha       10356.02457635 eV
  | Electrostatic energy          :        -717.70232365 Ha      -19529.67388543 eV
  | Energy correction for multipole
  | error in Hartree potential    :          -0.00023047 Ha          -0.00627145 eV
  | Sum of eigenvalues per atom                           :        -389.01171894 eV
  | Total energy (T->0) per atom                          :        -694.66546706 eV  <-- do not rely on this value for anything but (periodic) metals
  | Electronic free energy per atom                       :        -694.66546706 eV

  Self-consistency convergence accuracy:
  | Change of charge density      : 0.6546E+00
  | Change of sum of eigenvalues  : 0.6248E+02 eV
  | Change of total energy        : 0.4040E+01 eV

  End self-consistency iteration #     1       :  max(cpu_time)    wall_clock(cpu1)
  | Time for this iteration                    :        1.793 s           1.793 s
  | Charge density update                      :        0.595 s           0.596 s
  | Density mixing                             :        0.004 s           0.003 s
  | Hartree multipole update                   :        0.004 s           0.005 s
  | Hartree multipole summation                :        0.323 s           0.324 s
  | Integration                                :        0.811 s           0.810 s
  | Solution of K.-S. eqns.                    :        0.054 s           0.055 s
  | Total energy evaluation                    :        0.000 s           0.000 s
------------------------------------------------------------

------------------------------------------------------------
          Begin self-consistency iteration #    2

  Date     :  20150727, Time     :  121909.533
------------------------------------------------------------
  Evaluating new KS density.
  Integration grid: deviation in total charge (<rho> - N_e) =  -1.421085E-14
  Pulay mixing of updated and previous charge densities.

  Evaluating partitioned Hartree potential by multipole expansion.
  | Analytical far-field extrapolation by fixed multipoles:
  | Hartree multipole sum: apparent total charge =  -0.596483E-05
  Summing up the Hartree potential.
  Time summed over all CPUs for potential: real work        2.562 s, elapsed        2.579 s
  | RMS charge density error from multipole expansion :   0.638540E-02

  Integrating Hamiltonian matrix: batch-based integration.
  Time summed over all CPUs for integration: real work        6.290 s, elapsed        6.471 s

  Updating Kohn-Sham eigenvalues, eigenvectors, occupation numbers, and Fermi level.
  Solving generalized eigenproblem
  Updating Kohn-Sham eigenvalues and eigenfunctions.
  Solving real generalised eigenvalue problem by standard LAPACK (fast)
  Determining occupation numbers for Kohn-Sham eigenstates.
  | Chemical potential (Fermi level) in eV                 : -.21806717E+01
  | Error in electron count due to remaining E_F inaccuracy: 0.00000000E+00
  | Maximum occupation number of highest empty state:  0.00E+00

  Highest occupied state (VBM) at     -5.91936425 eV
  | Occupation number:      2.00000000

  Lowest unoccupied state (CBM) at    -2.12211392 eV
  | Occupation number:      0.00000000

  Overall HOMO-LUMO gap:      3.79725032 eV.

  Total energy components:
  | Sum of eigenvalues            :        -209.01122368 Ha       -5687.48477249 eV
  | XC energy correction          :         -46.38727423 Ha       -1262.26195487 eV
  | XC potential correction       :          59.30001387 Ha        1613.63547839 eV
  | Free-atom electrostatic energy:        -178.99929675 Ha       -4870.81868905 eV
  | Hartree energy correction     :          -7.65380204 Ha        -208.27055022 eV
  | van der Waals energy corr.    :           0.00000000 Ha           0.00000000 eV
  | Entropy correction            :           0.00000000 Ha           0.00000000 eV
  | ---------------------------
  | Total energy                  :        -382.75158283 Ha      -10415.20048824 eV
  | Total energy, T -> 0          :        -382.75158283 Ha      -10415.20048824 eV  <-- do not rely on this value for anything but (periodic) metals
  | Electronic free energy        :        -382.75158283 Ha      -10415.20048824 eV

  Derived energy quantities:
  | Kinetic energy                :         383.40215560 Ha       10432.90347408 eV
  | Electrostatic energy          :        -719.76646420 Ha      -19585.84200744 eV
  | Energy correction for multipole
  | error in Hartree potential    :          -0.00164580 Ha          -0.04478458 eV
  | Sum of eigenvalues per atom                           :        -379.16565150 eV
  | Total energy (T->0) per atom                          :        -694.34669922 eV  <-- do not rely on this value for anything but (periodic) metals
  | Electronic free energy per atom                       :        -694.34669922 eV

  Self-consistency convergence accuracy:
  | Change of charge density      : 0.4945E+00
  | Change of sum of eigenvalues  : 0.1477E+03 eV
  | Change of total energy        : 0.4782E+01 eV

  End self-consistency iteration #     2       :  max(cpu_time)    wall_clock(cpu1)
  | Time for this iteration                    :        1.790 s           1.790 s
  | Charge density update                      :        0.592 s           0.591 s
  | Density mixing                             :        0.005 s           0.006 s
  | Hartree multipole update                   :        0.005 s           0.005 s
  | Hartree multipole summation                :        0.323 s           0.323 s
  | Integration                                :        0.811 s           0.810 s
  | Solution of K.-S. eqns.                    :        0.054 s           0.054 s
  | Total energy evaluation                    :        0.000 s           0.001 s
------------------------------------------------------------

------------------------------------------------------------
          Begin self-consistency iteration #    3

  Date     :  20150727, Time     :  121911.323
------------------------------------------------------------
  Evaluating new KS density.
  Integration grid: deviation in total charge (<rho> - N_e) =   2.131628E-14
  Pulay mixing of updated and previous charge densities.

  Evaluating partitioned Hartree potential by multipole expansion.
  | Analytical far-field extrapolation by fixed multipoles:
  | Hartree multipole sum: apparent total charge =  -0.603542E-05
  Summing up the Hartree potential.
  Time summed over all CPUs for potential: real work        2.562 s, elapsed        2.579 s
  | RMS charge density error from multipole expansion :   0.128724E-01

  Integrating Hamiltonian matrix: batch-based integration.
  Time summed over all CPUs for integration: real work        6.292 s, elapsed        6.476 s

  Updating Kohn-Sham eigenvalues, eigenvectors, occupation numbers, and Fermi level.
  Solving generalized eigenproblem
  Updating Kohn-Sham eigenvalues and eigenfunctions.
  Solving real generalised eigenvalue problem by standard LAPACK (fast)
  Determining occupation numbers for Kohn-Sham eigenstates.
  | Chemical potential (Fermi level) in eV                 : -.33044382E+01
  | Error in electron count due to remaining E_F inaccuracy: 0.00000000E+00
  | Maximum occupation number of highest empty state:  0.00E+00

  Highest occupied state (VBM) at     -5.54789065 eV
  | Occupation number:      2.00000000

  Lowest unoccupied state (CBM) at    -2.13104598 eV
  | Occupation number:      0.00000000

  Overall HOMO-LUMO gap:      3.41684467 eV.

  Total energy components:
  | Sum of eigenvalues            :        -209.19307627 Ha       -5692.43323316 eV
  | XC energy correction          :         -46.35077733 Ha       -1261.26882381 eV
  | XC potential correction       :          59.24753989 Ha        1612.20758854 eV
  | Free-atom electrostatic energy:        -178.99929675 Ha       -4870.81868905 eV
  | Hartree energy correction     :          -7.44855510 Ha        -202.68549678 eV
  | van der Waals energy corr.    :           0.00000000 Ha           0.00000000 eV
  | Entropy correction            :           0.00000000 Ha           0.00000000 eV
  | ---------------------------
  | Total energy                  :        -382.74416556 Ha      -10414.99865426 eV
  | Total energy, T -> 0          :        -382.74416556 Ha      -10414.99865426 eV  <-- do not rely on this value for anything but (periodic) metals
  | Electronic free energy        :        -382.74416556 Ha      -10414.99865426 eV

  Derived energy quantities:
  | Kinetic energy                :         381.32398371 Ha       10376.35353970 eV
  | Electrostatic energy          :        -717.71737194 Ha      -19530.08337015 eV
  | Energy correction for multipole
  | error in Hartree potential    :          -0.00636240 Ha          -0.17312975 eV
  | Sum of eigenvalues per atom                           :        -379.49554888 eV
  | Total energy (T->0) per atom                          :        -694.33324362 eV  <-- do not rely on this value for anything but (periodic) metals
  | Electronic free energy per atom                       :        -694.33324362 eV

  Self-consistency convergence accuracy:
  | Change of charge density      : 0.2483E+00
  | Change of sum of eigenvalues  : -.4948E+01 eV
  | Change of total energy        : 0.2018E+00 eV

  End self-consistency iteration #     3       :  max(cpu_time)    wall_clock(cpu1)
  | Time for this iteration                    :        1.764 s           1.763 s
  | Charge density update                      :        0.562 s           0.562 s
  | Density mixing                             :        0.007 s           0.007 s
  | Hartree multipole update                   :        0.005 s           0.005 s
  | Hartree multipole summation                :        0.323 s           0.323 s
  | Integration                                :        0.811 s           0.811 s
  | Solution of K.-S. eqns.                    :        0.054 s           0.054 s
  | Total energy evaluation                    :        0.001 s           0.001 s
------------------------------------------------------------

------------------------------------------------------------
          Begin self-consistency iteration #    4

  Date     :  20150727, Time     :  121913.086
------------------------------------------------------------
  Evaluating new KS density.
  Integration grid: deviation in total charge (<rho> - N_e) =   2.842171E-14
  Pulay mixing of updated and previous charge densities.

  Evaluating partitioned Hartree potential by multipole expansion.
  | Analytical far-field extrapolation by fixed multipoles:
  | Hartree multipole sum: apparent total charge =  -0.738061E-05
  Summing up the Hartree potential.
  Time summed over all CPUs for potential: real work        2.561 s, elapsed        2.578 s
  | RMS charge density error from multipole expansion :   0.170409E-01

  Integrating Hamiltonian matrix: batch-based integration.
  Time summed over all CPUs for integration: real work        6.283 s, elapsed        6.466 s

  Updating Kohn-Sham eigenvalues, eigenvectors, occupation numbers, and Fermi level.
  Solving generalized eigenproblem
  Updating Kohn-Sham eigenvalues and eigenfunctions.
  Solving real generalised eigenvalue problem by standard LAPACK (fast)
  Determining occupation numbers for Kohn-Sham eigenstates.
  | Chemical potential (Fermi level) in eV                 : -.29532520E+01
  | Error in electron count due to remaining E_F inaccuracy: 0.00000000E+00
  | Maximum occupation number of highest empty state:  0.00E+00

  Highest occupied state (VBM) at     -4.13192381 eV
  | Occupation number:      2.00000000

  Lowest unoccupied state (CBM) at    -2.04396476 eV
  | Occupation number:      0.00000000

  Overall HOMO-LUMO gap:      2.08795905 eV.

  Total energy components:
  | Sum of eigenvalues            :        -207.36977433 Ha       -5642.81866284 eV
  | XC energy correction          :         -46.56381756 Ha       -1267.06594352 eV
  | XC potential correction       :          59.52543934 Ha        1619.76961748 eV
  | Free-atom electrostatic energy:        -178.99929675 Ha       -4870.81868905 eV
  | Hartree energy correction     :          -9.32407725 Ha        -253.72105103 eV
  | van der Waals energy corr.    :           0.00000000 Ha           0.00000000 eV
  | Entropy correction            :           0.00000000 Ha           0.00000000 eV
  | ---------------------------
  | Total energy                  :        -382.73152654 Ha      -10414.65472897 eV
  | Total energy, T -> 0          :        -382.73152654 Ha      -10414.65472897 eV  <-- do not rely on this value for anything but (periodic) metals
  | Electronic free energy        :        -382.73152654 Ha      -10414.65472897 eV

  Derived energy quantities:
  | Kinetic energy                :         381.49047266 Ha       10380.88393470 eV
  | Electrostatic energy          :        -717.65818164 Ha      -19528.47272015 eV
  | Energy correction for multipole
  | error in Hartree potential    :          -0.00872482 Ha          -0.23741430 eV
  | Sum of eigenvalues per atom                           :        -376.18791086 eV
  | Total energy (T->0) per atom                          :        -694.31031526 eV  <-- do not rely on this value for anything but (periodic) metals
  | Electronic free energy per atom                       :        -694.31031526 eV

  Self-consistency convergence accuracy:
  | Change of charge density      : 0.1397E+00
  | Change of sum of eigenvalues  : 0.4961E+02 eV
  | Change of total energy        : 0.3439E+00 eV

  End self-consistency iteration #     4       :  max(cpu_time)    wall_clock(cpu1)
  | Time for this iteration                    :        1.790 s           1.789 s
  | Charge density update                      :        0.589 s           0.589 s
  | Density mixing                             :        0.008 s           0.008 s
  | Hartree multipole update                   :        0.005 s           0.005 s
  | Hartree multipole summation                :        0.323 s           0.323 s
  | Integration                                :        0.810 s           0.810 s
  | Solution of K.-S. eqns.                    :        0.054 s           0.054 s
  | Total energy evaluation                    :        0.001 s           0.000 s
------------------------------------------------------------

------------------------------------------------------------
          Begin self-consistency iteration #    5

  Date     :  20150727, Time     :  121914.876
------------------------------------------------------------
  Evaluating new KS density.
  Integration grid: deviation in total charge (<rho> - N_e) =   7.105427E-15
  Pulay mixing of updated and previous charge densities.

  Evaluating partitioned Hartree potential by multipole expansion.
  | Analytical far-field extrapolation by fixed multipoles:
  | Hartree multipole sum: apparent total charge =  -0.732591E-05
  Summing up the Hartree potential.
  Time summed over all CPUs for potential: real work        2.561 s, elapsed        2.578 s
  | RMS charge density error from multipole expansion :   0.174583E-01

  Integrating Hamiltonian matrix: batch-based integration.
  Time summed over all CPUs for integration: real work        6.285 s, elapsed        6.437 s

  Updating Kohn-Sham eigenvalues, eigenvectors, occupation numbers, and Fermi level.
  Solving generalized eigenproblem
  Updating Kohn-Sham eigenvalues and eigenfunctions.
  Solving real generalised eigenvalue problem by standard LAPACK (fast)
  Determining occupation numbers for Kohn-Sham eigenstates.
  | Chemical potential (Fermi level) in eV                 : -.29503572E+01
  | Error in electron count due to remaining E_F inaccuracy: 0.00000000E+00
  | Maximum occupation number of highest empty state:  0.00E+00

  Highest occupied state (VBM) at     -4.12598225 eV
  | Occupation number:      2.00000000

  Lowest unoccupied state (CBM) at    -2.03989067 eV
  | Occupation number:      0.00000000

  Overall HOMO-LUMO gap:      2.08609158 eV.

  Total energy components:
  | Sum of eigenvalues            :        -207.34924212 Ha       -5642.25995298 eV
  | XC energy correction          :         -46.57189790 Ha       -1267.28582055 eV
  | XC potential correction       :          59.53534789 Ha        1620.03924282 eV
  | Free-atom electrostatic energy:        -178.99929675 Ha       -4870.81868905 eV
  | Hartree energy correction     :          -9.34621332 Ha        -254.32340421 eV
  | van der Waals energy corr.    :           0.00000000 Ha           0.00000000 eV
  | Entropy correction            :           0.00000000 Ha           0.00000000 eV
  | ---------------------------
  | Total energy                  :        -382.73130219 Ha      -10414.64862397 eV
  | Total energy, T -> 0          :        -382.73130219 Ha      -10414.64862397 eV  <-- do not rely on this value for anything but (periodic) metals
  | Electronic free energy        :        -382.73130219 Ha      -10414.64862397 eV

  Derived energy quantities:
  | Kinetic energy                :         381.54995367 Ha       10382.50249518 eV
  | Electrostatic energy          :        -717.70935796 Ha      -19529.86529860 eV
  | Energy correction for multipole
  | error in Hartree potential    :          -0.00871268 Ha          -0.23708402 eV
  | Sum of eigenvalues per atom                           :        -376.15066353 eV
  | Total energy (T->0) per atom                          :        -694.30990826 eV  <-- do not rely on this value for anything but (periodic) metals
  | Electronic free energy per atom                       :        -694.30990826 eV

  Self-consistency convergence accuracy:
  | Change of charge density      : 0.2713E-01
  | Change of sum of eigenvalues  : 0.5587E+00 eV
  | Change of total energy        : 0.6105E-02 eV

  End self-consistency iteration #     5       :  max(cpu_time)    wall_clock(cpu1)
  | Time for this iteration                    :        1.788 s           1.787 s
  | Charge density update                      :        0.589 s           0.589 s
  | Density mixing                             :        0.010 s           0.010 s
  | Hartree multipole update                   :        0.005 s           0.005 s
  | Hartree multipole summation                :        0.323 s           0.323 s
  | Integration                                :        0.806 s           0.806 s
  | Solution of K.-S. eqns.                    :        0.054 s           0.054 s
  | Total energy evaluation                    :        0.001 s           0.000 s
------------------------------------------------------------

------------------------------------------------------------
          Begin self-consistency iteration #    6

  Date     :  20150727, Time     :  121916.663
------------------------------------------------------------
  Evaluating new KS density.
  Integration grid: deviation in total charge (<rho> - N_e) =   0.000000E+00
  Pulay mixing of updated and previous charge densities.

  Evaluating partitioned Hartree potential by multipole expansion.
  | Analytical far-field extrapolation by fixed multipoles:
  | Hartree multipole sum: apparent total charge =  -0.731912E-05
  Summing up the Hartree potential.
  Time summed over all CPUs for potential: real work        2.561 s, elapsed        2.578 s
  | RMS charge density error from multipole expansion :   0.176467E-01

  Integrating Hamiltonian matrix: batch-based integration.
  Time summed over all CPUs for integration: real work        6.288 s, elapsed        6.439 s

  Updating Kohn-Sham eigenvalues, eigenvectors, occupation numbers, and Fermi level.
  Solving generalized eigenproblem
  Updating Kohn-Sham eigenvalues and eigenfunctions.
  Solving real generalised eigenvalue problem by standard LAPACK (fast)
  Determining occupation numbers for Kohn-Sham eigenstates.
  | Chemical potential (Fermi level) in eV                 : -.29457593E+01
  | Error in electron count due to remaining E_F inaccuracy: 0.00000000E+00
  | Maximum occupation number of highest empty state:  0.00E+00

  Highest occupied state (VBM) at     -4.11668406 eV
  | Occupation number:      2.00000000

  Lowest unoccupied state (CBM) at    -2.03644997 eV
  | Occupation number:      0.00000000

  Overall HOMO-LUMO gap:      2.08023409 eV.

  Total energy components:
  | Sum of eigenvalues            :        -207.32752100 Ha       -5641.66889149 eV
  | XC energy correction          :         -46.57620204 Ha       -1267.40294217 eV
  | XC potential correction       :          59.54075695 Ha        1620.18643088 eV
  | Free-atom electrostatic energy:        -178.99929675 Ha       -4870.81868905 eV
  | Hartree energy correction     :          -9.36907040 Ha        -254.94537713 eV
  | van der Waals energy corr.    :           0.00000000 Ha           0.00000000 eV
  | Entropy correction            :           0.00000000 Ha           0.00000000 eV
  | ---------------------------
  | Total energy                  :        -382.73133324 Ha      -10414.64946897 eV
  | Total energy, T -> 0          :        -382.73133324 Ha      -10414.64946897 eV  <-- do not rely on this value for anything but (periodic) metals
  | Electronic free energy        :        -382.73133324 Ha      -10414.64946897 eV

  Derived energy quantities:
  | Kinetic energy                :         381.56449888 Ha       10382.89829061 eV
  | Electrostatic energy          :        -717.71963008 Ha      -19530.14481740 eV
  | Energy correction for multipole
  | error in Hartree potential    :          -0.00874128 Ha          -0.23786226 eV
  | Sum of eigenvalues per atom                           :        -376.11125943 eV
  | Total energy (T->0) per atom                          :        -694.30996460 eV  <-- do not rely on this value for anything but (periodic) metals
  | Electronic free energy per atom                       :        -694.30996460 eV

  Self-consistency convergence accuracy:
  | Change of charge density      : 0.1223E-01
  | Change of sum of eigenvalues  : 0.5911E+00 eV
  | Change of total energy        : -.8450E-03 eV

  End self-consistency iteration #     6       :  max(cpu_time)    wall_clock(cpu1)
  | Time for this iteration                    :        1.787 s           1.788 s
  | Charge density update                      :        0.587 s           0.588 s
  | Density mixing                             :        0.011 s           0.011 s
  | Hartree multipole update                   :        0.005 s           0.005 s
  | Hartree multipole summation                :        0.323 s           0.323 s
  | Integration                                :        0.807 s           0.806 s
  | Solution of K.-S. eqns.                    :        0.054 s           0.054 s
  | Total energy evaluation                    :        0.000 s           0.000 s
------------------------------------------------------------

------------------------------------------------------------
          Begin self-consistency iteration #    7

  Date     :  20150727, Time     :  121918.451
------------------------------------------------------------
  Evaluating new KS density.
  Integration grid: deviation in total charge (<rho> - N_e) =  -1.421085E-14
  Pulay mixing of updated and previous charge densities.

  Evaluating partitioned Hartree potential by multipole expansion.
  | Analytical far-field extrapolation by fixed multipoles:
  | Hartree multipole sum: apparent total charge =  -0.708795E-05
  Summing up the Hartree potential.
  Time summed over all CPUs for potential: real work        2.561 s, elapsed        2.578 s
  | RMS charge density error from multipole expansion :   0.175766E-01

  Integrating Hamiltonian matrix: batch-based integration.
  Time summed over all CPUs for integration: real work        6.286 s, elapsed        6.439 s

  Updating Kohn-Sham eigenvalues, eigenvectors, occupation numbers, and Fermi level.
  Solving generalized eigenproblem
  Updating Kohn-Sham eigenvalues and eigenfunctions.
  Solving real generalised eigenvalue problem by standard LAPACK (fast)
  Determining occupation numbers for Kohn-Sham eigenstates.
  | Chemical potential (Fermi level) in eV                 : -.29793920E+01
  | Error in electron count due to remaining E_F inaccuracy: 0.00000000E+00
  | Maximum occupation number of highest empty state:  0.00E+00

  Highest occupied state (VBM) at     -4.29078080 eV
  | Occupation number:      2.00000000

  Lowest unoccupied state (CBM) at    -2.04120463 eV
  | Occupation number:      0.00000000

  Overall HOMO-LUMO gap:      2.24957618 eV.

  Total energy components:
  | Sum of eigenvalues            :        -207.50002324 Ha       -5646.36291623 eV
  | XC energy correction          :         -46.55992115 Ha       -1266.95991661 eV
  | XC potential correction       :          59.51886719 Ha        1619.59078005 eV
  | Free-atom electrostatic energy:        -178.99929675 Ha       -4870.81868905 eV
  | Hartree energy correction     :          -9.19080304 Ha        -250.09447538 eV
  | van der Waals energy corr.    :           0.00000000 Ha           0.00000000 eV
  | Entropy correction            :           0.00000000 Ha           0.00000000 eV
  | ---------------------------
  | Total energy                  :        -382.73117699 Ha      -10414.64521722 eV
  | Total energy, T -> 0          :        -382.73117699 Ha      -10414.64521722 eV  <-- do not rely on this value for anything but (periodic) metals
  | Electronic free energy        :        -382.73117699 Ha      -10414.64521722 eV

  Derived energy quantities:
  | Kinetic energy                :         381.62109730 Ha       10384.43841191 eV
  | Electrostatic energy          :        -717.79235314 Ha      -19532.12371252 eV
  | Energy correction for multipole
  | error in Hartree potential    :          -0.00843751 Ha          -0.22959646 eV
  | Sum of eigenvalues per atom                           :        -376.42419442 eV
  | Total energy (T->0) per atom                          :        -694.30968115 eV  <-- do not rely on this value for anything but (periodic) metals
  | Electronic free energy per atom                       :        -694.30968115 eV

  Self-consistency convergence accuracy:
  | Change of charge density      : 0.1197E-01
  | Change of sum of eigenvalues  : -.4694E+01 eV
  | Change of total energy        : 0.4252E-02 eV

  End self-consistency iteration #     7       :  max(cpu_time)    wall_clock(cpu1)
  | Time for this iteration                    :        1.788 s           1.788 s
  | Charge density update                      :        0.587 s           0.587 s
  | Density mixing                             :        0.012 s           0.012 s
  | Hartree multipole update                   :        0.005 s           0.005 s
  | Hartree multipole summation                :        0.323 s           0.323 s
  | Integration                                :        0.807 s           0.807 s
  | Solution of K.-S. eqns.                    :        0.053 s           0.053 s
  | Total energy evaluation                    :        0.000 s           0.000 s
------------------------------------------------------------

------------------------------------------------------------
          Begin self-consistency iteration #    8

  Date     :  20150727, Time     :  121920.239
------------------------------------------------------------
  Evaluating new KS density.
  Integration grid: deviation in total charge (<rho> - N_e) =   2.842171E-14
  Pulay mixing of updated and previous charge densities.

  Evaluating partitioned Hartree potential by multipole expansion.
  | Analytical far-field extrapolation by fixed multipoles:
  | Hartree multipole sum: apparent total charge =  -0.710472E-05
  Summing up the Hartree potential.
  Time summed over all CPUs for potential: real work        2.561 s, elapsed        2.579 s
  | RMS charge density error from multipole expansion :   0.176470E-01

  Integrating Hamiltonian matrix: batch-based integration.
  Time summed over all CPUs for integration: real work        6.280 s, elapsed        6.437 s

  Updating Kohn-Sham eigenvalues, eigenvectors, occupation numbers, and Fermi level.
  Solving generalized eigenproblem
  Updating Kohn-Sham eigenvalues and eigenfunctions.
  Solving real generalised eigenvalue problem by standard LAPACK (fast)
  Determining occupation numbers for Kohn-Sham eigenstates.
  | Chemical potential (Fermi level) in eV                 : -.29759130E+01
  | Error in electron count due to remaining E_F inaccuracy: 0.00000000E+00
  | Maximum occupation number of highest empty state:  0.00E+00

  Highest occupied state (VBM) at     -4.25421923 eV
  | Occupation number:      2.00000000

  Lowest unoccupied state (CBM) at    -2.04247742 eV
  | Occupation number:      0.00000000

  Overall HOMO-LUMO gap:      2.21174181 eV.

  Total energy components:
  | Sum of eigenvalues            :        -207.47202553 Ha       -5645.60105978 eV
  | XC energy correction          :         -46.56281579 Ha       -1267.03868378 eV
  | XC potential correction       :          59.52264069 Ha        1619.69346237 eV
  | Free-atom electrostatic energy:        -178.99929675 Ha       -4870.81868905 eV
  | Hartree energy correction     :          -9.21967805 Ha        -250.88020438 eV
  | van der Waals energy corr.    :           0.00000000 Ha           0.00000000 eV
  | Entropy correction            :           0.00000000 Ha           0.00000000 eV
  | ---------------------------
  | Total energy                  :        -382.73117543 Ha      -10414.64517463 eV
  | Total energy, T -> 0          :        -382.73117543 Ha      -10414.64517463 eV  <-- do not rely on this value for anything but (periodic) metals
  | Electronic free energy        :        -382.73117543 Ha      -10414.64517463 eV

  Derived energy quantities:
  | Kinetic energy                :         381.62367740 Ha       10384.50862013 eV
  | Electrostatic energy          :        -717.79203704 Ha      -19532.11511097 eV
  | Energy correction for multipole
  | error in Hartree potential    :          -0.00849679 Ha          -0.23120946 eV
  | Sum of eigenvalues per atom                           :        -376.37340399 eV
  | Total energy (T->0) per atom                          :        -694.30967831 eV  <-- do not rely on this value for anything but (periodic) metals
  | Electronic free energy per atom                       :        -694.30967831 eV

  Self-consistency convergence accuracy:
  | Change of charge density      : 0.2413E-02
  | Change of sum of eigenvalues  : 0.7619E+00 eV
  | Change of total energy        : 0.4259E-04 eV

  End self-consistency iteration #     8       :  max(cpu_time)    wall_clock(cpu1)
  | Time for this iteration                    :        1.789 s           1.788 s
  | Charge density update                      :        0.586 s           0.586 s
  | Density mixing                             :        0.014 s           0.014 s
  | Hartree multipole update                   :        0.005 s           0.005 s
  | Hartree multipole summation                :        0.323 s           0.323 s
  | Integration                                :        0.806 s           0.806 s
  | Solution of K.-S. eqns.                    :        0.054 s           0.054 s
  | Total energy evaluation                    :        0.001 s           0.000 s
------------------------------------------------------------

------------------------------------------------------------
          Begin self-consistency iteration #    9

  Date     :  20150727, Time     :  121922.028
------------------------------------------------------------
  Evaluating new KS density.
  Integration grid: deviation in total charge (<rho> - N_e) =   2.842171E-14
  Pulay mixing of updated and previous charge densities.

  Evaluating partitioned Hartree potential by multipole expansion.
  | Analytical far-field extrapolation by fixed multipoles:
  | Hartree multipole sum: apparent total charge =  -0.710072E-05
  Summing up the Hartree potential.
  Time summed over all CPUs for potential: real work        2.561 s, elapsed        2.578 s
  | RMS charge density error from multipole expansion :   0.176487E-01

  Integrating Hamiltonian matrix: batch-based integration.
  Time summed over all CPUs for integration: real work        6.279 s, elapsed        6.442 s

  Updating Kohn-Sham eigenvalues, eigenvectors, occupation numbers, and Fermi level.
  Solving generalized eigenproblem
  Updating Kohn-Sham eigenvalues and eigenfunctions.
  Solving real generalised eigenvalue problem by standard LAPACK (fast)
  Determining occupation numbers for Kohn-Sham eigenstates.
  | Chemical potential (Fermi level) in eV                 : -.29761184E+01
  | Error in electron count due to remaining E_F inaccuracy: 0.00000000E+00
  | Maximum occupation number of highest empty state:  0.00E+00

  Highest occupied state (VBM) at     -4.25522049 eV
  | Occupation number:      2.00000000

  Lowest unoccupied state (CBM) at    -2.04277651 eV
  | Occupation number:      0.00000000

  Overall HOMO-LUMO gap:      2.21244398 eV.

  Total energy components:
  | Sum of eigenvalues            :        -207.47186249 Ha       -5645.59662304 eV
  | XC energy correction          :         -46.56278920 Ha       -1267.03796031 eV
  | XC potential correction       :          59.52259439 Ha        1619.69220239 eV
  | Free-atom electrostatic energy:        -178.99929675 Ha       -4870.81868905 eV
  | Hartree energy correction     :          -9.21982074 Ha        -250.88408715 eV
  | van der Waals energy corr.    :           0.00000000 Ha           0.00000000 eV
  | Entropy correction            :           0.00000000 Ha           0.00000000 eV
  | ---------------------------
  | Total energy                  :        -382.73117478 Ha      -10414.64515717 eV
  | Total energy, T -> 0          :        -382.73117478 Ha      -10414.64515717 eV  <-- do not rely on this value for anything but (periodic) metals
  | Electronic free energy        :        -382.73117478 Ha      -10414.64515717 eV

  Derived energy quantities:
  | Kinetic energy                :         381.62735636 Ha       10384.60872975 eV
  | Electrostatic energy          :        -717.79574195 Ha      -19532.21592660 eV
  | Energy correction for multipole
[...]
   ----------------------------------------------------------------
   Total forces(   4)            : 0.661293E-01 0.122387E+01 0.255951E+01
  atom #    5
   Hellmann-Feynman + Multipole  : -.453280E+00 -.818073E+00 -.536655E+00
   Pulay + GGA                   : 0.488712E-01 0.128478E+00 0.424526E-01
   Van der Waals               : 0.151337E-02 0.132234E-02 0.428269E-02
   ----------------------------------------------------------------
   Total forces(   5)            : -.402896E+00 -.688272E+00 -.489920E+00
  atom #    6
   Hellmann-Feynman + Multipole  : -.232618E+00 0.409269E+00 -.234261E+01
   Pulay + GGA                   : -.402727E-01 0.430732E-01 -.123322E+00
   Van der Waals               : 0.107070E-02 0.103758E-04 0.993882E-03
   ----------------------------------------------------------------
   Total forces(   6)            : -.271820E+00 0.452353E+00 -.246493E+01
  atom #    7
   Hellmann-Feynman + Multipole  : -.652101E+01 0.453601E+00 -.997271E+01
   Pulay + GGA                   : 0.954752E+01 -.812452E-02 0.114270E+02
   Van der Waals               : -.786478E-04 0.266016E-02 0.140033E-02
   ----------------------------------------------------------------
   Total forces(   7)            : 0.302644E+01 0.448136E+00 0.145564E+01
  atom #    8
   Hellmann-Feynman + Multipole  : -.227231E+00 -.104533E+01 -.113570E+01
   Pulay + GGA                   : 0.434664E-01 0.977700E-01 0.825922E-01
   Van der Waals               : -.160656E-02 0.293945E-02 0.211343E-02
   ----------------------------------------------------------------
   Total forces(   8)            : -.185371E+00 -.944622E+00 -.105099E+01
  atom #    9
   Hellmann-Feynman + Multipole  : -.165645E+01 0.103621E+01 -.302164E+00
   Pulay + GGA                   : 0.129336E+00 -.538304E-01 0.189672E-01
   Van der Waals               : -.133270E-02 0.393695E-03 0.564821E-04
   ----------------------------------------------------------------
   Total forces(   9)            : -.152845E+01 0.982778E+00 -.283140E+00
  atom #   10
   Hellmann-Feynman + Multipole  : 0.565735E+01 -.802668E+01 -.103055E+02
   Pulay + GGA                   : -.616854E+01 0.892322E+01 0.123238E+02
   Van der Waals               : 0.263223E-02 -.435017E-02 -.673406E-02
   ----------------------------------------------------------------
   Total forces(  10)            : -.508555E+00 0.892193E+00 0.201154E+01
  atom #   11
   Hellmann-Feynman + Multipole  : -.380605E+00 0.203529E+00 -.237203E+01
   Pulay + GGA                   : 0.197707E-01 0.234706E-01 0.137941E+00
   Van der Waals               : -.108867E-02 0.117675E-02 -.233958E-02
   ----------------------------------------------------------------
   Total forces(  11)            : -.361923E+00 0.228177E+00 -.223643E+01
  atom #   12
   Hellmann-Feynman + Multipole  : 0.147708E+01 -.165889E+01 0.506414E+00
   Pulay + GGA                   : -.445305E-01 0.780479E-01 0.732454E-02
   Van der Waals               : 0.135463E-02 -.220160E-02 -.288883E-02
   ----------------------------------------------------------------
   Total forces(  12)            : 0.143391E+01 -.158305E+01 0.510850E+00
  atom #   13
   Hellmann-Feynman + Multipole  : -.144799E+01 -.137731E+02 0.187360E+00
   Pulay + GGA                   : 0.227456E+01 0.144574E+02 -.233202E+01
   Van der Waals               : 0.776648E-03 -.200262E-02 -.588757E-02
   ----------------------------------------------------------------
   Total forces(  13)            : 0.827340E+00 0.682201E+00 -.215055E+01
  atom #   14
   Hellmann-Feynman + Multipole  : -.289523E+00 0.553548E+00 0.296281E+00
   Pulay + GGA                   : -.789070E-01 0.930863E-01 0.715056E-01
   Van der Waals               : 0.162908E-02 -.185745E-02 -.148294E-03
   ----------------------------------------------------------------
   Total forces(  14)            : -.366801E+00 0.644777E+00 0.367638E+00
  atom #   15
   Hellmann-Feynman + Multipole  : -.101506E+01 -.869925E+00 0.166643E+01
   Pulay + GGA                   : 0.457549E-01 0.749697E-01 -.121212E+00
   Van der Waals               : -.755679E-03 -.452782E-03 -.452440E-02
   ----------------------------------------------------------------
   Total forces(  15)            : -.970064E+00 -.795409E+00 0.154069E+01
  Timings for vdw_correction_hirshfeld (Tkatchenko-Scheffler 2009):
  | CPU time:        4.946 s, Wall clock time:        4.946 s.
  Removing unitary transformations (pure translations, rotations) from forces on atoms.
  Atomic forces before filtering:
  | Net force on center of mass :  0.785966E-02 0.714212E-02 0.670975E-02 eV/A
  | Net torque on center of mass:  -.199556E-01 0.537515E-03 0.518799E-02 eV
  Atomic forces after filtering:
  | Net force on center of mass :  0.000000E+00 -.892031E-16 0.124884E-14 eV/A
  | Net torque on center of mass:  0.226580E-14 0.339870E-14 -.339870E-14 eV
 
  Energy and forces in a compact form:
  | Total energy uncorrected      :         -0.104146954523740E+05 eV
  | Total energy corrected        :         -0.104146954523740E+05 eV  <-- do not rely on this value for anything but (periodic) metals
  | Electronic free energy        :         -0.104146954523740E+05 eV
  Total atomic forces (unitary forces cleaned) [eV/Ang]:
  |   1         -0.644567471664803E+00          0.250001206074917E+01         -0.100156500340146E+01
  |   2          0.196978393731921E+01         -0.341884007020779E+01          0.141017034377074E+01
  |   3         -0.207714047852435E+01         -0.617534715907114E+00         -0.174425550605921E+00
  |   4          0.658337534566079E-01          0.122413447224260E+01          0.255897425273027E+01
  |   5         -0.403113444081077E+00         -0.688168298248911E+00         -0.490186254642852E+00
  |   6         -0.272002361848779E+00          0.452894342596339E+00         -0.246544601758586E+01
  |   7          0.302586641069452E+01          0.447651188897045E+00          0.145511118100099E+01
  |   8         -0.185931114049199E+00         -0.945336360279557E+00         -0.105134044221729E+01
  |   9         -0.152911351534685E+01          0.982140222120520E+00         -0.283750918946156E+00
  |  10         -0.509339324343969E+00          0.890989343547784E+00          0.201110493364871E+01
  |  11         -0.362820199179236E+00          0.226671410448174E+00         -0.223686740722510E+01
  |  12          0.143324171589664E+01         -0.158410510743687E+01          0.510545962940844E+00
  |  13          0.826883084419240E+00          0.681481427015728E+00         -0.215069377135748E+01
  |  14         -0.367207461715972E+00          0.643990933761027E+00          0.367641084736774E+00
  |  15         -0.970373531031990E+00         -0.795980849298140E+00          0.154072760715379E+01
 
  ------------------------------------ 
  Start decomposition of the XC Energy 
  ------------------------------------ 
  Hartree-Fock part   :          0.000000000 Ha              0.000000000 eV
  ------------------------------------ 
  X Energy            :        -44.924897668 Ha          -1222.468664073 eV
  C Energy GGA        :         -1.636840501 Ha            -44.540696242 eV
  Total XC Energy     :        -46.561738169 Ha          -1267.009360315 eV
  LDA X and C from self-consistent density 
  X Energy LDA        :        -40.486774983 Ha          -1101.701201231 eV
  C Energy LDA        :         -3.298268852 Ha            -89.750461911 eV
  ------------------------------------ 
  End decomposition of the XC Energy 
  ------------------------------------ 
  Performing Hirshfeld analysis of fragment charges and moments.
  ----------------------------------------------------------------------
  | Atom     1: O
  |   Hirshfeld charge        :     -0.42497446
  |   Free atom volume        :     23.95238533
  |   Hirshfeld volume        :     25.27071530
  |   Hirshfeld dipole vector :      0.03826122       0.07568215      -0.01234503
  |   Hirshfeld dipole moment :      0.08569777
  |   Hirshfeld second moments:     -0.02270099      -0.02926146       0.02735667
  |                                 -0.02926146      -0.08709489      -0.02315122
  |                                  0.02735667      -0.02315122      -0.13089388
  ----------------------------------------------------------------------
  | Atom     2: H
  |   Hirshfeld charge        :      0.05448489
  |   Free atom volume        :     10.44207651
  |   Hirshfeld volume        :      8.80503258
  |   Hirshfeld dipole vector :     -0.02203380       0.04607131      -0.01778594
  |   Hirshfeld dipole moment :      0.05407766
  |   Hirshfeld second moments:      0.06420746       0.02651779       0.00231214
  |                                  0.02651779       0.01888508       0.01377496
  |                                  0.00231214       0.01377496       0.05099016
  ----------------------------------------------------------------------
  | Atom     3: H
  |   Hirshfeld charge        :      0.04065619
  |   Free atom volume        :     10.44207651
  |   Hirshfeld volume        :      9.00950011
  |   Hirshfeld dipole vector :      0.05274065       0.01539788       0.00808692
  |   Hirshfeld dipole moment :      0.05553439
  |   Hirshfeld second moments:      0.01495910      -0.03041745       0.00574507
  |                                 -0.03041745       0.06174907      -0.00496125
  |                                  0.00574507      -0.00496125       0.04191710
  ----------------------------------------------------------------------
  | Atom     4: O
  |   Hirshfeld charge        :     -0.17154901
  |   Free atom volume        :     23.95238533
  |   Hirshfeld volume        :     19.98325861
  |   Hirshfeld dipole vector :      0.02961265      -0.01381815      -0.01617790
  |   Hirshfeld dipole moment :      0.03646333
  |   Hirshfeld second moments:      0.05012537       0.02148165       0.02873536
  |                                  0.02148165       0.09236301       0.01295617
  |                                  0.02873536       0.01295617       0.11046433
  ----------------------------------------------------------------------
  | Atom     5: H
  |   Hirshfeld charge        :      0.17384791
  |   Free atom volume        :     10.44207651
  |   Hirshfeld volume        :      6.00724520
  |   Hirshfeld dipole vector :      0.06000531       0.08859667       0.04324057
  |   Hirshfeld dipole moment :      0.11541124
  |   Hirshfeld second moments:      0.11577462       0.00037760       0.00572560
  |                                  0.00037760       0.12310163      -0.00330714
  |                                  0.00572560      -0.00330714       0.13832300
  ----------------------------------------------------------------------
  | Atom     6: H
  |   Hirshfeld charge        :      0.17337714
  |   Free atom volume        :     10.44207651
  |   Hirshfeld volume        :      5.71196025
  |   Hirshfeld dipole vector :     -0.01799605       0.00686005      -0.12008288
  |   Hirshfeld dipole moment :      0.12161750
  |   Hirshfeld second moments:      0.12652581       0.01156039       0.00829530
  |                                  0.01156039       0.13980401       0.00452002
  |                                  0.00829530       0.00452002       0.12945040
  ----------------------------------------------------------------------
  | Atom     7: O
  |   Hirshfeld charge        :     -0.18802847
  |   Free atom volume        :     23.95238533
  |   Hirshfeld volume        :     20.63256297
  |   Hirshfeld dipole vector :     -0.01911084      -0.02961137       0.03408541
  |   Hirshfeld dipole moment :      0.04902930
  |   Hirshfeld second moments:      0.06824504      -0.02858647       0.00782487
  |                                 -0.02858647       0.07678221       0.03878967
  |                                  0.00782487       0.03878967       0.04384746
  ----------------------------------------------------------------------
  | Atom     8: H
  |   Hirshfeld charge        :      0.16516503
  |   Free atom volume        :     10.44207651
  |   Hirshfeld volume        :      6.45290248
  |   Hirshfeld dipole vector :      0.00545619       0.06891630       0.08626951
  |   Hirshfeld dipole moment :      0.11055160
  |   Hirshfeld second moments:      0.12380413      -0.01026033       0.01342482
  |                                 -0.01026033       0.12485202      -0.00302059
  |                                  0.01342482      -0.00302059       0.09609611
  ----------------------------------------------------------------------
  | Atom     9: H
  |   Hirshfeld charge        :      0.17069194
  |   Free atom volume        :     10.44207651
  |   Hirshfeld volume        :      5.82935223
  |   Hirshfeld dipole vector :      0.08972876      -0.07937684       0.01392013
  |   Hirshfeld dipole moment :      0.12060557
  |   Hirshfeld second moments:      0.12319342       0.00103636       0.00071292
  |                                  0.00103636       0.12862688       0.01555203
  |                                  0.00071292       0.01555203       0.13085452
  ----------------------------------------------------------------------
  | Atom    10: O
  |   Hirshfeld charge        :     -0.34121891
  |   Free atom volume        :     23.95238533
  |   Hirshfeld volume        :     23.21761000
  |   Hirshfeld dipole vector :     -0.03934165       0.02362368       0.03746290
  |   Hirshfeld dipole moment :      0.05923945
  |   Hirshfeld second moments:     -0.04427348      -0.04414322       0.02501673
  |                                 -0.04414322      -0.05000043      -0.02350695
  |                                  0.02501673      -0.02350695       0.02317822
  ----------------------------------------------------------------------
  | Atom    11: H
  |   Hirshfeld charge        :      0.11975070
  |   Free atom volume        :     10.44207651
  |   Hirshfeld volume        :      6.89205434
  |   Hirshfeld dipole vector :      0.01429840      -0.01422702       0.12194600
  |   Hirshfeld dipole moment :      0.12360291
  |   Hirshfeld second moments:      0.09860406      -0.01916302       0.00559617
  |                                 -0.01916302       0.09630758      -0.00444429
  |                                  0.00559617      -0.00444429       0.09622018
  ----------------------------------------------------------------------
  | Atom    12: H
  |   Hirshfeld charge        :      0.07158101
  |   Free atom volume        :     10.44207651
  |   Hirshfeld volume        :      8.08730699
  |   Hirshfeld dipole vector :     -0.03876156       0.03402049       0.00325790
  |   Hirshfeld dipole moment :      0.05167655
  |   Hirshfeld second moments:      0.04116414       0.01747824      -0.01588779
  |                                  0.01747824       0.04268210       0.00763438
  |                                 -0.01588779       0.00763438       0.09736233
  ----------------------------------------------------------------------
  | Atom    13: O
  |   Hirshfeld charge        :     -0.18766055
  |   Free atom volume        :     23.95238533
  |   Hirshfeld volume        :     20.15707367
  |   Hirshfeld dipole vector :      0.02127660       0.01010061       0.01646639
  |   Hirshfeld dipole moment :      0.02873774
  |   Hirshfeld second moments:      0.05877472      -0.02054070      -0.04285774
  |                                 -0.02054070       0.07206515      -0.00613208
  |                                 -0.04285774      -0.00613208       0.09384195
  ----------------------------------------------------------------------
  | Atom    14: H
  |   Hirshfeld charge        :      0.16961731
  |   Free atom volume        :     10.44207651
  |   Hirshfeld volume        :      5.55540700
  |   Hirshfeld dipole vector :     -0.06025918       0.08124656       0.06907846
  |   Hirshfeld dipole moment :      0.12249084
  |   Hirshfeld second moments:      0.12878085       0.00071594      -0.01028673
  |                                  0.00071594       0.13109907      -0.01192297
  |                                 -0.01028673      -0.01192297       0.13899955
  ----------------------------------------------------------------------
  | Atom    15: H
  |   Hirshfeld charge        :      0.17422410
  |   Free atom volume        :     10.44207651
  |   Hirshfeld volume        :      5.97053612
  |   Hirshfeld dipole vector :      0.05788830       0.05057721      -0.08806690
  |   Hirshfeld dipole moment :      0.11689692
  |   Hirshfeld second moments:      0.11998910      -0.00954242      -0.00853726
  |                                 -0.00954242       0.13271934       0.00490901
  |                                 -0.00853726       0.00490901       0.12426423
  ----------------------------------------------------------------------


------------------------------------------------------------------------------
  Final output of selected total energy values:

  The following output summarizes some interesting total energy values
  at the end of a run (AFTER all relaxation, molecular dynamics, etc.).

  | Total energy of the DFT / Hartree-Fock s.c.f. calculation      :         -10414.695452374 eV
  | Final zero-broadening corrected energy (caution - metals only) :         -10414.695452374 eV
  | For reference only, the value of 1 Hartree used in FHI-aims is :             27.211384500 eV

  Before relying on these values, please be sure to understand exactly which
  total energy value is referred to by a given number. Different objects may
  all carry the same name 'total energy'. Definitions:

  Total energy of the DFT / Hartree-Fock s.c.f. calculation:
  | Note that this energy does not include ANY quantities calculated after the
  | s.c.f. cycle, in particular not ANY RPA, MP2, etc. many-body perturbation terms.

  Final zero-broadening corrected energy:
  | For metallic systems only, a broadening of the occupation numbers at the Fermi
  | level can be extrapolated back to zero broadening by an electron-gas inspired
  | formula. For all systems that are not real metals, this value can be
  | meaningless and should be avoided.

------------------------------------------------------------------------------

------------------------------------------------------------
          Leaving FHI-aims.
          Date     :  20150727, Time     :  121940.216

          Computational steps:
          | Number of self-consistency cycles          :           16

          Detailed time accounting                     :  max(cpu_time)    wall_clock(cpu1)
          | Total time                                 :       34.799 s          34.820 s
          | Preparation time                           :        0.170 s           0.505 s
          | Grid partitioning                          :        0.153 s           0.153 s
          | Preloading free-atom quantities on grid    :        0.013 s           0.013 s
          | Free-atom superposition energy             :        0.067 s           0.067 s
          | Total time for integrations                :       14.194 s          14.190 s
          | Total time for solution of K.-S. equations :        1.056 s           1.058 s
          | Total time for density & force components  :       11.993 s          11.993 s
          | Total time for mixing                      :        0.209 s           0.211 s
          | Total time for Hartree multipole update    :        0.077 s           0.079 s
          | Total time for Hartree multipole sum       :        6.239 s           6.241 s
          | Total time for total energy evaluation     :        0.007 s           0.004 s
          | Total time for scaled ZORA corrections     :        0.000 s           0.000 s
          | Total time for TS (2009) vdW correction    :        0.052 s           0.052 s

          Have a nice day.
------------------------------------------------------------
