  MPI-parallelism will be employed.
------------------------------------------------------------
          Invoking FHI-aims ...
          Version 081213
          Compiled on 2013/08/29 at 17:41:06 on host generoso.

          When using FHI-aims, please cite the following reference:

          Volker Blum, Ralf Gehrke, Felix Hanke, Paula Havu,
          Ville Havu, Xinguo Ren, Karsten Reuter, and Matthias Scheffler,
          'Ab Initio Molecular Simulations with Numeric Atom-Centered Orbitals: FHI-aims',
          Computer Physics Communications 180, 2175-2196 (2009)

          For any questions about FHI-aims, please visit the aimsclub website
          with its forums and wiki. Contributions to both the forums and the
          wiki are warmly encouraged - they are for you, and everyone is welcome there.

------------------------------------------------------------

  Date     :  20150727, Time     :  122558.620
  Time zero on CPU 1             :   0.369940000000000E-01  s.
  Internal wall clock time zero  :           207231958.620  s.

  Using        8 parallel tasks.
  Task        0 on host gen60 reporting.
  Task        1 on host gen60 reporting.
  Task        2 on host gen60 reporting.
  Task        3 on host gen60 reporting.
  Task        4 on host gen60 reporting.
  Task        5 on host gen60 reporting.
  Task        6 on host gen60 reporting.
  Task        7 on host gen60 reporting.

  Performing system and environment tests:
  | Environment variable OMP_NUM_THREADS correctly set to 1.
  | Checking for scalapack...
  | No scalapack compiled in.

  Obtaining array dimensions for all initial allocations:
  
  -----------------------------------------------------------------------
  Parsing control.in (first pass over file, find array dimensions only).
  The contents of control.in will be repeated verbatim below
  unless switched off by setting 'verbatim_writeout .false.' .
  in the first line of control.in .
  -----------------------------------------------------------------------
  
  #########################################################################################
  #
  #  Volker Blum, FHI 2008 : Test run input file control.in
  #
  #########################################################################################
  #
  #  Physical model
  #
    xc                 rpbe
    spin               none
    relativistic       atomic_zora scalar
    charge             0.
   vdw_correction_hirshfeld
  #
  #  SCF convergence
  #
    occupation_type    gaussian 0.01
    mixer              pulay
      n_max_pulay        10
      charge_mix_param   0.1
    sc_accuracy_rho    5E-5
    sc_accuracy_eev    5E-3
    sc_accuracy_etot   5E-6
    sc_iter_limit      3000
  #
  #  Eigenvalue solver
  #
    KS_method          lapack
      empty_states       8
      basis_threshold    0.e-5
  #
  #  Efficiency
  #
  #   all previous settings are now default, except stratmann still
  #   undecided. Continue to handle stratmann with care, if at all.
  #
  #  partition_type stratmann
    partition_type rho_r2
  #  hartree_partition_type stratmann
  #
  #  Oprions for large clusters (100's of atoms: memory saving / better scaling)
  #
  # for periodic systems:
  #
    density_update_method orbital
    packed_matrix_format none
  #  k_grid 6 6 6
  #  output k_eigenvalue 1
  #  distributed_spline_storage .true.
  #
  #  Relaxation
  #
  #  relax_geometry   bfgs 5.e-3
    sc_accuracy_forces 5.E-4
    final_forces_cleaned .true.
  #
  #  Output options
  #
  #  output mulliken
    output Hirshfeld
  #  output dipole
  
  #harmonic_length_scale 0.001
  
  ################################################################################
  #
  #  FHI-aims code project
  #  VB, Fritz-Haber Institut, 2007
  #
  #  Suggested "safe" defaults for H atom (to be pasted into control.in file)
  #  Basis constructed for a non-relativistic H2 molecule using the
  #  PW-LDA functional.
  #
  ################################################################################
    species        H
  #     global species definitions
      nucleus             1
      cut_pot             4.0  2.0  1.0
      cut_free_atom       finite 8.0
      logarithmic         0.00010000 100.00  1.0123
      basis_dep_cutoff    1d-4  # 1d-4 is safe default - please check 5d-4 if you wish!
      radial_base         24 7.0
      radial_multiplier   2
      angular_grids       specified
        division   0.2783  110
        division   0.3822  194
        division   0.5626  302
  #      division   0.5922  434
  #      division   0.6227  590
  #      division   0.7206  770
        outer_grid  302
      l_hartree           4
  ################################################################################
  #
  #  Definition of "minimal" basis
  #
  ################################################################################
  #     valence basis states
      valence      1  s   1.
  #     ion occupancy
      ion_occ      1  s   0.5
  ################################################################################
  #
  #  Suggested additional basis functions. For production calculations,
  #  uncomment them one after another (the most important basis functions are
  #  listed first).
  #
  ################################################################################
  #  "First tier" - improvements: -1014.90 meV to -62.69 meV
       hydro 2 s 2.1
       hydro 2 p 3.5
  #  "Second tier" - improvements: -12.89 meV to -1.83 meV
       hydro 1 s 0.85
       hydro 2 p 3.7
       hydro 2 s 1.2
       hydro 3 d 7
  #  "Third tier" - improvements: -0.25 meV to -0.12 meV
  #     hydro 4 f 11.2
  #     hydro 3 p 4.8
  #     hydro 4 d 9
  #     hydro 3 s 3.2
  
  ################################################################################
  #
  #  FHI-aims code project
  #  VB, Fritz-Haber Institut, 2007
  #
  #  Suggested "safe" defaults for O atom (to be pasted into control.in file)
  #  All values have been tested for a non-relativistic, non-spinpolarized O2
  #  molecule using the PW-LDA functional. Validity for PBE is expected.
  #
  #  Constructed for dimers: 1.0 A, 1.208 A, 1.5 A, 2.0 A, 3.0 A
  #
  ################################################################################
    species        O
  #     global species definitions
      nucleus             8
      mass                15.9994
      l_hartree           4
      cut_pot             4.0  2.0  1.0
      cut_free_atom       finite 8.0
      basis_dep_cutoff    1d-4  # 1d-4 is safe default - please check 5d-4 if you wish!
      logarithmic         0.00010000 100.00  1.0123
      radial_base         36 7.0
      radial_multiplier   2
       angular_grids specified
        division   0.4087  110
        division   0.5181  194
        division   0.6184  302
  #      division   0.7315  434
  #      division   0.7934  590
  #      division   0.9656  770
  #      division   1.4041  974
  #      outer_grid 974
        outer_grid 302
  ################################################################################
  #
  #  Definition of "minimal" basis
  #
  ################################################################################
  #     valence basis states
      valence      2  s   2.
      valence      2  p   4.
  #     ion occupancy
      ion_occ      2  s   1.
      ion_occ      2  p   3.
  ################################################################################
  #
  #  Suggested additional basis functions. For production calculations,
  #  uncomment them one after another (the most important basis functions are
  #  listed first).
  #
  ################################################################################
  #  "First tier" - improvements: -699.05 meV to -159.38 meV
       hydro 2 p 1.8
       hydro 3 d 7.6
       hydro 3 s 6.4
  #  "Second tier" - improvements: -49.91 meV to -5.39 meV
       hydro 4 f 11.6
       hydro 3 p 6.2
       hydro 3 d 5.6
       hydro 5 g 17.6
       hydro 1 s 0.75
  #  "Third tier" - improvements: -2.83 meV to -0.50 meV
  #     ionic 2 p auto
  #     hydro 4 f 10.8
  #     hydro 4 d 4.7
  #     hydro 2 s 6.8
  #  "Fourth tier" - improvements: -0.40 meV to -0.12 meV
  #     hydro 3 p 5
  #     hydro 3 s 3.3
  #     hydro 5 g 15.6
  #     hydro 4 f 17.6
  #     hydro 4 d 14
  # Further basis functions - -0.08 meV and below
  #     hydro 3 s 2.1
  #     hydro 4 d 11.6
  #     hydro 3 p 16
  #     hydro 2 s 17.2
  
  
  -----------------------------------------------------------------------
  Completed first pass over input file control.in .
  -----------------------------------------------------------------------
  
  
  -----------------------------------------------------------------------
  Parsing geometry.in (first pass over file, find array dimensions only).
  The contents of geometry.in will be repeated verbatim below
  unless switched off by setting 'verbatim_writeout .false.' .
  in the first line of geometry.in .
  -----------------------------------------------------------------------
  
  atom      -4.053030000      0.065001000     -1.525160000  O
  atom      -4.566710000      0.974813000     -1.912820000  H
  atom      -3.067820000      0.330172000     -1.477310000  H
  atom      -5.293160000      2.192130000     -2.328800000  O
  atom      -4.829300000      2.988660000     -1.973850000  H
  atom      -5.428570000      2.328640000     -3.235170000  H
  atom      -3.818880000      2.024990000      2.187990000  O
  atom      -3.690880000      1.961360000      3.202150000  H
  atom      -4.546490000      2.751300000      2.045370000  H
  atom      -1.975360000      2.858040000      0.453140000  O
  atom      -1.223550000      3.375850000      0.786238000  H
  atom      -2.537520000      2.567960000      1.156120000  H
  atom      -5.628340000      3.730740000      1.385610000  O
  atom      -6.090650000      4.418470000      1.860350000  H
  atom      -5.158540000      4.200260000      0.615875000  H
  
  -----------------------------------------------------------------------
  Completed first pass over input file geometry.in .
  -----------------------------------------------------------------------
  
 
  Basic array size parameters: 
  | Number of species                 :        2
  | Number of atoms                   :       15
  | Max. basis fn. angular momentum   :        4
  | Max. atomic/ionic basis occupied n:        2
  | Max. number of basis fn. types    :        2
  | Max. radial fns per species/type  :        8
  | Max. logarithmic grid size        :     1301
  | Max. radial integration grid size :       73
  | Max. angular integration grid size:      302
  | Max. angular grid division number :        8
  | Radial grid for Hartree potential :     1301
  | Number of spin channels           :        1

------------------------------------------------------------
          Reading file control.in.
------------------------------------------------------------
  XC: Using RPBE gradient-corrected functionals.
  Spin treatment: No spin polarisation.
  Scalar relativistic treatment of kinetic energy: on-site free-atom approximation to ZORA.
  Charge =   0.000000E+00: Neutral system requested explicitly.
  Using non-empirical van der Waals correction (Hirshfeld partitioning):
  Occupation type: Gaussian broadening, width =   0.100000E-01 eV.
  Using pulay charge density mixing.
  Pulay mixing - number of memorized iterations:   10
  Charge density mixing - mixing parameter:     0.1000
  Convergence accuracy of self-consistent charge density: 0.5000E-04
  Convergence accuracy of sum of eigenvalues: 0.5000E-02
  Convergence accuracy of total energy: 0.5000E-05
  Maximum number of s.-c. iterations  :  3000
  Kohn-Sham eigenvalues and eigenfunctions calculated by lapack diagonalisation (D&C).
  Number of empty states per atom:        8
  Threshold for basis singularities: 0.0000E+00
  Partition function in integrals calculations: rho / r^2
 Using packed matrix format           0
  Convergence accuracy of forces: 0.5000E-03
  Cleaning forces before final output.
  Hirshfeld charge analysis will be performed.
 
  Reading configuration options for species H                   .
  | Found nuclear charge :   1.0000
  | Found cutoff potl. onset [A], width [A], scale factor :    4.00000    2.00000    1.00000
  | Found cutoff specification for free atom: Cutoff potential begins at    8.00000 A.
  | Found logarithmic grid data [bohr] : 0.1000E-03 0.1000E+03 0.1012E+01
  | Threshold for basis-dependent cutoff potential is   0.100000E-03
  | Found data for basic radial integration grid :    24 points, outermost radius =    7.000 A
  | Found multiplier for basic radial grid :   2
  | Found angular grid specification: user-specified.
  | Specified grid contains     4 separate shells.
  | Check grid settings after all constraints further below.
  | Found l_max for Hartree potential  :   4
  | Found free-atom valence shell :  1 s   1.000
  | No ionic wave fns used. Skipping ion_occ.
  | Found hydrogenic basis function :  2 s   2.100
  | Found hydrogenic basis function :  2 p   3.500
  | Found hydrogenic basis function :  1 s   0.850
  | Found hydrogenic basis function :  2 p   3.700
  | Found hydrogenic basis function :  2 s   1.200
  | Found hydrogenic basis function :  3 d   7.000
  Species H                   : Missing cutoff potential type.
  Defaulting to exp(1/x)/(1-x)^2 type cutoff potential.
  Species H : On-site basis accuracy parameter (for Gram-Schmidt orthonormalisation) not specified.
  Using default value basis_acc =  0.1000000E-03.
  Species H                   : Using default innermost maximum threshold i_radial=  2 for radial functions.
  Species H                   : Basic radial grid will be enhanced according to radial_multiplier =   2, to contain    49 grid points.
 
  Reading configuration options for species O                   .
  | Found nuclear charge :   8.0000
  | Found atomic mass :    15.9994000000000      amu
  | Found l_max for Hartree potential  :   4
  | Found cutoff potl. onset [A], width [A], scale factor :    4.00000    2.00000    1.00000
  | Found cutoff specification for free atom: Cutoff potential begins at    8.00000 A.
  | Threshold for basis-dependent cutoff potential is   0.100000E-03
  | Found logarithmic grid data [bohr] : 0.1000E-03 0.1000E+03 0.1012E+01
  | Found data for basic radial integration grid :    36 points, outermost radius =    7.000 A
  | Found multiplier for basic radial grid :   2
  | Found angular grid specification: user-specified.
  | Specified grid contains     4 separate shells.
  | Check grid settings after all constraints further below.
  | Found free-atom valence shell :  2 s   2.000
  | Found free-atom valence shell :  2 p   4.000
  | No ionic wave fns used. Skipping ion_occ.
  | No ionic wave fns used. Skipping ion_occ.
  | Found hydrogenic basis function :  2 p   1.800
  | Found hydrogenic basis function :  3 d   7.600
  | Found hydrogenic basis function :  3 s   6.400
  | Found hydrogenic basis function :  4 f  11.600
  | Found hydrogenic basis function :  3 p   6.200
  | Found hydrogenic basis function :  3 d   5.600
  | Found hydrogenic basis function :  5 g  17.600
  | Found hydrogenic basis function :  1 s   0.750
  Species O                   : Missing cutoff potential type.
  Defaulting to exp(1/x)/(1-x)^2 type cutoff potential.
  Species O : On-site basis accuracy parameter (for Gram-Schmidt orthonormalisation) not specified.
  Using default value basis_acc =  0.1000000E-03.
  Species O                   : Using default innermost maximum threshold i_radial=  2 for radial functions.
  Species O                   : Basic radial grid will be enhanced according to radial_multiplier =   2, to contain    73 grid points.
 
  Finished reading input file 'control.in'. Consistency checks are next.
 
  Target number of points in a grid batch is not set. Defaulting to  100
  Method for grid partitioning is not set. Defaulting to parallel hash+maxmin partitioning.
  Batch size limit is not set. Defaulting to    200
  By default, will store active basis functions for each batch.
  If in need of memory, prune_basis_once .false. can be used to disable this option.
  communication_type for Hartree potential was not specified.
  Defaulting to calc_hartree .
  Pulay mixer: Number of initial linear mixing iterations not set.
  Defaulting to    0 iterations.
  Work space size for distributed Hartree potential not set.
  Defaulting to   0.200000E+03 MB.
  Algorithm-dependent basis array size parameters:
  | n_max_pulay                         :       10
  Geometry relaxation not requested: no relaxation will be performed.
  Handling of forces: Unphysical translation and rotation will be removed from forces.
  No accuracy limit for integral partition fn. given. Defaulting to 0.1000E-14.
  No threshold value for u(r) in integrations given. Defaulting to 0.1000E-05.
  No accuracy for occupation numbers given. Defaulting to 0.1000E-07.
  No threshold value for occupation numbers given. Defaulting to 0.0000E+00.
  No accuracy for fermi level given. Defaulting to 0.1000E-19.
  Maximum # of iterations to find E_F not set. Defaulting to  200.
  Will not use alltoall communication since running on < 1024 CPUs.
  Partitioning for Hartree potential was not defined. Using partition_type for integrals.
  | Reporting present value of keyword multip_moments_threshold  :       0.10000000E-09
  | This value may affect high angular momentum components of the Hartree potential in periodic systems.
  No q(lm)/r^(l+1) cutoff set for long-range Hartree potential.
  | Using default value of  0.100000E-09 .
  | Verify using the multipole_threshold keyword.
  Defaulting to new monopole extrapolation.
  Density update method: Loop over occupied states selected for charge density update.
------------------------------------------------------------


------------------------------------------------------------
          Reading geometry description geometry.in.
------------------------------------------------------------
  Input structure read successfully.
  The structure contains       15 atoms,  and a total of         50.000 electrons.

  Input geometry:
  | No unit cell requested.
  | Atomic structure:
  |       Atom                x [A]            y [A]            z [A]
  |    1: Species O             -4.053030         0.065001        -1.525160
  |    2: Species H             -4.566710         0.974813        -1.912820
  |    3: Species H             -3.067820         0.330172        -1.477310
  |    4: Species O             -5.293160         2.192130        -2.328800
  |    5: Species H             -4.829300         2.988660        -1.973850
  |    6: Species H             -5.428570         2.328640        -3.235170
  |    7: Species O             -3.818880         2.024990         2.187990
  |    8: Species H             -3.690880         1.961360         3.202150
  |    9: Species H             -4.546490         2.751300         2.045370
  |   10: Species O             -1.975360         2.858040         0.453140
  |   11: Species H             -1.223550         3.375850         0.786238
  |   12: Species H             -2.537520         2.567960         1.156120
  |   13: Species O             -5.628340         3.730740         1.385610
  |   14: Species H             -6.090650         4.418470         1.860350
  |   15: Species H             -5.158540         4.200260         0.615875
  |

  | The smallest distance between any two atoms is         0.92654057 AA.
  |
  | The first atom of this pair is atom number                      4 .
  | The second atom of this pair is atom number                     6 .

  Structure-dependent array size parameters: 
  | Maximum number of distinct radial functions  :       18
  | Maximum number of basis functions            :      345
  | Number of Kohn-Sham states (occupied + empty):       85
------------------------------------------------------------

------------------------------------------------------------
          Preparing all fixed parts of the calculation.
------------------------------------------------------------
  Determining machine precision:
    2.225073858507201E-308
  Setting up grids for atomic and cluster calculations.

  Creating wave function, potential, and density for free atoms.

  Species: H

  List of occupied orbitals and eigenvalues:
    n    l              occ      energy [Ha]    energy [eV]
    1    0           1.0000        -0.241408        -6.5691


  Species: O

  List of occupied orbitals and eigenvalues:
    n    l              occ      energy [Ha]    energy [eV]
    1    0           2.0000       -18.944147      -515.4965
    2    0           2.0000        -0.883529       -24.0421
    2    1           4.0000        -0.330176        -8.9845

  Creating fixed part of basis set: Ionic, confined, hydrogenic.
 
  H                    hydrogenic:
 
  List of hydrogenic basis orbitals: 
    n    l      effective z      eigenvalue [eV]  inner max. [A]     outer max. [A]     outer radius [A]   
    2    0         2.100000       -14.9965           0.193241           1.317192           5.372934
    2    1         3.500000       -41.6672           0.602363           0.602363           4.056010
    1    0         0.850000        -9.8292           0.624864           0.624864           5.372934
    2    1         3.700000       -46.5653           0.573616           0.573616           3.909951
    2    0         1.200000        -4.5995           0.334977           2.228160           5.505921
    3    2         7.000000       -74.0753           0.680692           0.680692           3.769152
 
 
  O                    hydrogenic:
 
  List of hydrogenic basis orbitals: 
    n    l      effective z      eigenvalue [eV]  inner max. [A]     outer max. [A]     outer radius [A]   
    2    1         1.800000       -11.0118           1.178546           1.178546           5.432516
    3    2         7.600000       -87.3182           0.624117           0.624117           3.541422
    3    0         6.400000       -61.9209           0.061166           1.081887           4.306510
    4    3        11.600000      -114.4238           0.731621           0.731621           3.584982
    3    1         6.200000       -58.1113           0.255677           1.030255           4.306510
    3    2         5.600000       -47.4081           0.847222           0.847222           4.413102
    5    4        17.600000      -168.5799           0.749730           0.749730           3.372413
    1    0         0.750000        -7.6499           0.705275           0.705275           5.366508
 

  Adding cutoff potential to free-atom effective potential.
  Creating atomic-like basis functions for current effective potential.

  Species H                   :

  List of atomic basis orbitals and eigenvalues:
    n    l      energy [Ha]    energy [eV]    outer radius [A]
    1    0        -0.241374        -6.5681       5.372934


  Species O                   :

  List of atomic basis orbitals and eigenvalues:
    n    l      energy [Ha]    energy [eV]    outer radius [A]
    1    0       -18.944147      -515.4965       1.415745
    2    0        -0.883529       -24.0421       5.048305
    2    1        -0.330173        -8.9845       5.301302

  Assembling full basis from fixed parts.
  | Species H :   atomic orbital   1 s accepted.
  | Species H :    hydro orbital   2 s accepted.
  | Species H :    hydro orbital   1 s accepted.
  | Species H :    hydro orbital   2 s accepted.
  | Species H :    hydro orbital   2 p accepted.
  | Species H :    hydro orbital   2 p accepted.
  | Species H :    hydro orbital   3 d accepted.
  | Species O :   atomic orbital   1 s accepted.
  | Species O :    hydro orbital   3 s accepted.
  | Species O :   atomic orbital   2 s accepted.
  | Species O :    hydro orbital   1 s accepted.
  | Species O :    hydro orbital   3 p accepted.
  | Species O :   atomic orbital   2 p accepted.
  | Species O :    hydro orbital   2 p accepted.
  | Species O :    hydro orbital   3 d accepted.
  | Species O :    hydro orbital   3 d accepted.
  | Species O :    hydro orbital   4 f accepted.
  | Species O :    hydro orbital   5 g accepted.
 
  Basis size parameters after reduction:
  | Total number of radial functions:       18
  | Total number of basis functions :      345
 
  Testing on-site integration grid accuracy.
  |  Species  Function  <phi|h_atom|phi> (log., in eV)  <phi|h_atom|phi> (rad., in eV)
           1        1                 -6.5683835025                 -6.5684759159
           1        2                 13.3711789951                 13.3708738703
           1        3                 23.6590910787                 23.6532055418
           1        4                 16.2963827186                 16.1870710655 ***
           1        5                 28.7627214838                 28.7627215090
           1        6                 59.5965249172                 59.5965950857
           1        7                 60.2220506392                 60.2220503827
           2        8               -515.4964576505               -515.4964530710
           2        9                 15.3030791347                 15.3030722972
           2       10                -21.7296094581                -21.7296135470
           2       11                 14.2969371730                 14.2969701621
           2       12                 21.0679693190                 21.0679697493
           2       13                 -2.3833606469                 -2.3833613176
           2       14                 13.7067136422                 13.7066766629
           2       15                 45.8013116808                 45.8013116965
           2       16                 52.2309815402                 52.2309831494
           2       17                 85.4120732416                 85.4120732763
           2       18                142.1019167745                142.1019167817
 * Note: Onsite integrals marked "***" above are less accurate than
 * onsite_accuracy_threshold =    0.03000 eV. Usually, this is harmless.
 * When in doubt, tighten the "radial" and/or "radial_multiplier" flags to check.

  Preparing densities etc. for the partition functions (integrals / Hartree potential).

  Preparations completed.
  max(cpu_time)          :      0.169 s.
  Wall clock time (cpu1) :      0.594 s.
------------------------------------------------------------

------------------------------------------------------------
          Begin self-consistency loop: Initialization.

          Date     :  20150727, Time     :  122559.271
------------------------------------------------------------

  Initializing index lists of integration centers etc. from given atomic structure:
  | Number of centers in hartree potential         :        15
  | Number of centers in hartree multipole         :        15
  | Number of centers in electron density summation:        15
  | Number of centers in basis integrals           :        15
  | Number of centers in integrals                 :        15
  Partitioning the integration grid into batches with parallel hashing+maxmin method.
  | Number of batches:     1911
  | Maximal batch size:     183
  | Minimal batch size:      55
  | Average batch size:     102.936
  | Standard deviation of batch sizes:      32.373

  Integration load balanced across     8 MPI tasks.
  Work distribution over tasks is as follows:
  Task     0 has      24629 integration points.
  Task     1 has      24629 integration points.
  Task     2 has      24554 integration points.
  Task     3 has      24585 integration points.
  Task     4 has      24648 integration points.
  Task     5 has      24530 integration points.
  Task     6 has      24581 integration points.
  Task     7 has      24554 integration points.
  Initializing partition tables, free-atom densities, potentials, etc. across the integration grid (initialize_grid_storage).
  | Net number of integration points:   196710
  | of which are non-zero points    :   196160
  Obtaining max. number of non-zero basis functions in each batch (get_n_compute_maxes).
  | Maximal number of non-zero basis functions:      341 in task     0
  | Maximal number of non-zero basis functions:      342 in task     1
  | Maximal number of non-zero basis functions:      341 in task     2
  | Maximal number of non-zero basis functions:      342 in task     3
  | Maximal number of non-zero basis functions:      341 in task     4
  | Maximal number of non-zero basis functions:      341 in task     5
  | Maximal number of non-zero basis functions:      341 in task     6
  | Maximal number of non-zero basis functions:      341 in task     7
  Integrating Hamiltonian matrix: batch-based integration.
  Time summed over all CPUs for integration: real work        6.916 s, elapsed        7.122 s
  Integrating overlap matrix.
  Time summed over all CPUs for integration: real work        3.714 s, elapsed        3.808 s

  Updating Kohn-Sham eigenvalues, eigenvectors, occupation numbers, and Fermi level.
  Solving generalized eigenproblem
  Updating Kohn-Sham eigenvalues and eigenfunctions.
  Transforming overlap matrix and checking for singularities.
  Overlap matrix is nonsingular:
  | Lowest eigenvalue:  0.296979E-03
  Solving real generalised eigenvalue problem by standard LAPACK (fast)
  Determining occupation numbers for Kohn-Sham eigenstates.
  | Chemical potential (Fermi level) in eV                 : -.36522808E+01
  | Error in electron count due to remaining E_F inaccuracy: 0.00000000E+00
  | Maximum occupation number of highest empty state:  0.00E+00

  Writing Kohn-Sham eigenvalues.

  State    Occupation    Eigenvalue [Ha]    Eigenvalue [eV]
      1       2.00000         -19.064795         -518.77947
      2       2.00000         -19.054644         -518.50326
      3       2.00000         -19.050541         -518.39160
      4       2.00000         -19.032794         -517.90867
      5       2.00000         -19.019416         -517.54465
      6       2.00000          -1.121165          -30.50846
      7       2.00000          -1.105750          -30.08898
      8       2.00000          -1.098884          -29.90216
      9       2.00000          -1.064267          -28.96017
     10       2.00000          -1.043113          -28.38454
     11       2.00000          -0.651735          -17.73462
     12       2.00000          -0.650160          -17.69175
     13       2.00000          -0.628631          -17.10591
     14       2.00000          -0.602684          -16.39987
     15       2.00000          -0.596129          -16.22149
     16       2.00000          -0.524376          -14.26899
     17       2.00000          -0.522619          -14.22118
     18       2.00000          -0.504283          -13.72224
     19       2.00000          -0.485990          -13.22447
     20       2.00000          -0.481905          -13.11330
     21       2.00000          -0.440985          -11.99981
     22       2.00000          -0.439497          -11.95933
     23       2.00000          -0.438495          -11.93204
     24       2.00000          -0.424310          -11.54607
     25       2.00000          -0.409554          -11.14453
     26       0.00000          -0.097574           -2.65511
     27       0.00000          -0.067573           -1.83874
     28       0.00000          -0.059037           -1.60648
     29       0.00000          -0.039207           -1.06688
     30       0.00000          -0.034490           -0.93853
     31       0.00000          -0.011479           -0.31237
     32       0.00000           0.024249            0.65985
     33       0.00000           0.032351            0.88032
     34       0.00000           0.049923            1.35847
     35       0.00000           0.057843            1.57399
     36       0.00000           0.070504            1.91850
     37       0.00000           0.075589            2.05688
     38       0.00000           0.091853            2.49946
     39       0.00000           0.094090            2.56033
     40       0.00000           0.099141            2.69775
     41       0.00000           0.104772            2.85099
     42       0.00000           0.112188            3.05278
     43       0.00000           0.114440            3.11407
     44       0.00000           0.122107            3.32270
     45       0.00000           0.134305            3.65462
     46       0.00000           0.141049            3.83813
     47       0.00000           0.144888            3.94260
     48       0.00000           0.152153            4.14029
     49       0.00000           0.164039            4.46372
     50       0.00000           0.173010            4.70785
     51       0.00000           0.188577            5.13145
     52       0.00000           0.208355            5.66964
     53       0.00000           0.236755            6.44244
     54       0.00000           0.239089            6.50595
     55       0.00000           0.246896            6.71839
     56       0.00000           0.266276            7.24575
     57       0.00000           0.273721            7.44832
     58       0.00000           0.286105            7.78532
     59       0.00000           0.306734            8.34665
     60       0.00000           0.323710            8.80860
     61       0.00000           0.345564            9.40326
     62       0.00000           0.347983            9.46910
     63       0.00000           0.350858            9.54734
     64       0.00000           0.371783           10.11674
     65       0.00000           0.372492           10.13603
     66       0.00000           0.383700           10.44101
     67       0.00000           0.397759           10.82357
     68       0.00000           0.420071           11.43070
     69       0.00000           0.431489           11.74141
     70       0.00000           0.438874           11.94238
     71       0.00000           0.448595           12.20689
     72       0.00000           0.460658           12.53514
     73       0.00000           0.473321           12.87972
     74       0.00000           0.492894           13.41233
     75       0.00000           0.513221           13.96546
     76       0.00000           0.528024           14.36826
     77       0.00000           0.535531           14.57255
     78       0.00000           0.563792           15.34155
     79       0.00000           0.579361           15.76520
     80       0.00000           0.585127           15.92210
     81       0.00000           0.604103           16.43849
     82       0.00000           0.641862           17.46595
     83       0.00000           0.655403           17.83441
     84       0.00000           0.685201           18.64528
     85       0.00000           0.742674           20.20920

  Highest occupied state (VBM) at    -11.14452548 eV
  | Occupation number:      2.00000000

  Lowest unoccupied state (CBM) at    -2.65511017 eV
  | Occupation number:      0.00000000

  Overall HOMO-LUMO gap:      8.48941531 eV.
  Calculating total energy contributions from superposition of free atom densities.

  Total energy components:
  | Sum of eigenvalues            :        -216.91344532 Ha       -5902.51516379 eV
  | XC energy correction          :         -45.57154286 Ha       -1240.06477506 eV
  | XC potential correction       :          58.23150001 Ha        1584.55973684 eV
  | Free-atom electrostatic energy:        -178.83384586 Ha       -4866.31654139 eV
  | Hartree energy correction     :           0.00000000 Ha           0.00000000 eV
  | van der Waals energy corr.    :           0.00000000 Ha           0.00000000 eV
  | Entropy correction            :           0.00000000 Ha           0.00000000 eV
  | ---------------------------
  | Total energy                  :        -383.08733403 Ha      -10424.33674339 eV
  | Total energy, T -> 0          :        -383.08733403 Ha      -10424.33674339 eV  <-- do not rely on this value for anything but (periodic) metals
  | Electronic free energy        :        -383.08733403 Ha      -10424.33674339 eV

  Derived energy quantities:
  | Kinetic energy                :         379.15495622 Ha       10317.33129888 eV
  | Electrostatic energy          :        -716.67074739 Ha      -19501.60326722 eV
  | Energy correction for multipole
  | error in Hartree potential    :           0.00000000 Ha           0.00000000 eV
  | Sum of eigenvalues per atom                           :        -393.50101092 eV
  | Total energy (T->0) per atom                          :        -694.95578289 eV  <-- do not rely on this value for anything but (periodic) metals
  | Electronic free energy per atom                       :        -694.95578289 eV
  Initialize hartree_potential_storage
  Max. number of atoms included in rho_multipole:           15

  End scf initialization - timings             :  max(cpu_time)    wall_clock(cpu1)
  | Time for scf. initialization               :        1.938 s           1.938 s
  | Boundary condition initialization          :        0.000 s           0.001 s
  | Integration                                :        1.370 s           1.370 s
  | Solution of K.-S. eqns.                    :        0.197 s           0.196 s
  | Grid partitioning                          :        0.157 s           0.156 s
  | Preloading free-atom quantities on grid    :        0.013 s           0.013 s
  | Free-atom superposition energy             :        0.066 s           0.065 s
  | Total energy evaluation                    :        0.000 s           0.001 s
------------------------------------------------------------

------------------------------------------------------------
          Begin self-consistency iteration #    1

  Date     :  20150727, Time     :  122601.209
------------------------------------------------------------
  Evaluating new KS density.
  Integration grid: deviation in total charge (<rho> - N_e) =   1.421085E-14
  Pulay mixing of updated and previous charge densities.

  Evaluating partitioned Hartree potential by multipole expansion.
  | Analytical far-field extrapolation by fixed multipoles:
  | Hartree multipole sum: apparent total charge =  -0.224926E-05
  Summing up the Hartree potential.
  Time summed over all CPUs for potential: real work        2.569 s, elapsed        2.582 s
  | RMS charge density error from multipole expansion :   0.163941E-02

  Integrating Hamiltonian matrix: batch-based integration.
  Time summed over all CPUs for integration: real work        6.898 s, elapsed        7.110 s

  Updating Kohn-Sham eigenvalues, eigenvectors, occupation numbers, and Fermi level.
  Solving generalized eigenproblem
  Updating Kohn-Sham eigenvalues and eigenfunctions.
  Solving real generalised eigenvalue problem by standard LAPACK (fast)
  Determining occupation numbers for Kohn-Sham eigenstates.
  | Chemical potential (Fermi level) in eV                 : -.32440636E+01
  | Error in electron count due to remaining E_F inaccuracy: 0.00000000E+00
  | Maximum occupation number of highest empty state:  0.00E+00

  Writing Kohn-Sham eigenvalues.

  State    Occupation    Eigenvalue [Ha]    Eigenvalue [eV]
      1       2.00000         -18.997758         -516.95531
      2       2.00000         -18.984637         -516.59827
      3       2.00000         -18.968354         -516.15516
      4       2.00000         -18.956861         -515.84244
      5       2.00000         -18.931108         -515.14166
      6       2.00000          -1.089914          -29.65807
      7       2.00000          -1.069055          -29.09046
      8       2.00000          -1.060713          -28.86348
      9       2.00000          -1.025005          -27.89180
     10       2.00000          -0.994505          -27.06186
     11       2.00000          -0.623511          -16.96661
     12       2.00000          -0.612892          -16.67765
     13       2.00000          -0.602307          -16.38960
     14       2.00000          -0.571343          -15.54703
     15       2.00000          -0.560052          -15.23978
     16       2.00000          -0.488791          -13.30069
     17       2.00000          -0.485283          -13.20523
     18       2.00000          -0.462771          -12.59264
     19       2.00000          -0.447042          -12.16464
     20       2.00000          -0.442832          -12.05008
     21       2.00000          -0.405572          -11.03616
     22       2.00000          -0.399403          -10.86830
     23       2.00000          -0.393189          -10.69922
     24       2.00000          -0.382902          -10.41930
     25       2.00000          -0.359419           -9.78030
     26       0.00000          -0.090713           -2.46841
     27       0.00000          -0.059686           -1.62415
     28       0.00000          -0.050215           -1.36642
     29       0.00000          -0.031260           -0.85064
     30       0.00000          -0.024144           -0.65698
     31       0.00000          -0.006426           -0.17485
     32       0.00000           0.029766            0.80996
     33       0.00000           0.042248            1.14963
     34       0.00000           0.061582            1.67573
     35       0.00000           0.064914            1.76641
     36       0.00000           0.079508            2.16353
     37       0.00000           0.085810            2.33501
     38       0.00000           0.101844            2.77132
     39       0.00000           0.105029            2.85798
     40       0.00000           0.110646            3.01083
     41       0.00000           0.114979            3.12875
     42       0.00000           0.124522            3.38842
     43       0.00000           0.127261            3.46294
     44       0.00000           0.130940            3.56305
     45       0.00000           0.141345            3.84620
     46       0.00000           0.150735            4.10170
     47       0.00000           0.156468            4.25770
     48       0.00000           0.166375            4.52730
     49       0.00000           0.175826            4.78447
     50       0.00000           0.183150            4.98376
     51       0.00000           0.200314            5.45081
     52       0.00000           0.216957            5.90370
     53       0.00000           0.247490            6.73453
     54       0.00000           0.249205            6.78122
     55       0.00000           0.258068            7.02238
     56       0.00000           0.274324            7.46474
     57       0.00000           0.283923            7.72594
     58       0.00000           0.295857            8.05069
     59       0.00000           0.315557            8.58674
     60       0.00000           0.333420            9.07282
     61       0.00000           0.355683            9.67862
     62       0.00000           0.355919            9.68504
     63       0.00000           0.361139            9.82710
     64       0.00000           0.381226           10.37368
     65       0.00000           0.384431           10.46090
     66       0.00000           0.392425           10.67842
     67       0.00000           0.406539           11.06248
     68       0.00000           0.431340           11.73735
     69       0.00000           0.439240           11.95234
     70       0.00000           0.447591           12.17956
     71       0.00000           0.457658           12.45351
     72       0.00000           0.471882           12.84057
     73       0.00000           0.483068           13.14494
     74       0.00000           0.503109           13.69028
     75       0.00000           0.526029           14.31397
     76       0.00000           0.540216           14.70003
     77       0.00000           0.547543           14.89941
     78       0.00000           0.576401           15.68467
     79       0.00000           0.591756           16.10250
     80       0.00000           0.596310           16.22641
     81       0.00000           0.617307           16.79778
     82       0.00000           0.655335           17.83258
     83       0.00000           0.667991           18.17695
     84       0.00000           0.699224           19.02686
     85       0.00000           0.755266           20.55183

  Highest occupied state (VBM) at     -9.78030154 eV
  | Occupation number:      2.00000000

  Lowest unoccupied state (CBM) at    -2.46841449 eV
  | Occupation number:      0.00000000

  Overall HOMO-LUMO gap:      7.31188705 eV.

  Total energy components:
  | Sum of eigenvalues            :        -214.63044140 Ha       -5840.39146634 eV
  | XC energy correction          :         -45.81340606 Ha       -1246.64620754 eV
  | XC potential correction       :          58.54807237 Ha        1593.17410909 eV
  | Free-atom electrostatic energy:        -178.83384586 Ha       -4866.31654139 eV
  | Hartree energy correction     :          -2.21142308 Ha         -60.17588386 eV
  | van der Waals energy corr.    :           0.00000000 Ha           0.00000000 eV
  | Entropy correction            :           0.00000000 Ha           0.00000000 eV
  | ---------------------------
  | Total energy                  :        -382.94104403 Ha      -10420.35599004 eV
  | Total energy, T -> 0          :        -382.94104403 Ha      -10420.35599004 eV  <-- do not rely on this value for anything but (periodic) metals
  | Electronic free energy        :        -382.94104403 Ha      -10420.35599004 eV

  Derived energy quantities:
  | Kinetic energy                :         380.59275739 Ha       10356.45585937 eV
  | Electrostatic energy          :        -717.72039537 Ha      -19530.16564187 eV
  | Energy correction for multipole
  | error in Hartree potential    :          -0.00010699 Ha          -0.00291142 eV
  | Sum of eigenvalues per atom                           :        -389.35943109 eV
  | Total energy (T->0) per atom                          :        -694.69039934 eV  <-- do not rely on this value for anything but (periodic) metals
  | Electronic free energy per atom                       :        -694.69039934 eV

  Self-consistency convergence accuracy:
  | Change of charge density      : 0.6635E+00
  | Change of sum of eigenvalues  : 0.6212E+02 eV
  | Change of total energy        : 0.3981E+01 eV

  End self-consistency iteration #     1       :  max(cpu_time)    wall_clock(cpu1)
  | Time for this iteration                    :        1.920 s           1.920 s
  | Charge density update                      :        0.640 s           0.640 s
  | Density mixing                             :        0.003 s           0.003 s
  | Hartree multipole update                   :        0.008 s           0.008 s
  | Hartree multipole summation                :        0.324 s           0.324 s
  | Integration                                :        0.890 s           0.890 s
  | Solution of K.-S. eqns.                    :        0.053 s           0.054 s
  | Total energy evaluation                    :        0.001 s           0.001 s
------------------------------------------------------------

------------------------------------------------------------
          Begin self-consistency iteration #    2

  Date     :  20150727, Time     :  122603.129
------------------------------------------------------------
  Evaluating new KS density.
  Integration grid: deviation in total charge (<rho> - N_e) =  -7.105427E-15
  Pulay mixing of updated and previous charge densities.

  Evaluating partitioned Hartree potential by multipole expansion.
  | Analytical far-field extrapolation by fixed multipoles:
  | Hartree multipole sum: apparent total charge =  -0.679049E-05
  Summing up the Hartree potential.
  Time summed over all CPUs for potential: real work        2.565 s, elapsed        2.583 s
  | RMS charge density error from multipole expansion :   0.658958E-02

  Integrating Hamiltonian matrix: batch-based integration.
  Time summed over all CPUs for integration: real work        6.883 s, elapsed        7.085 s

  Updating Kohn-Sham eigenvalues, eigenvectors, occupation numbers, and Fermi level.
  Solving generalized eigenproblem
  Updating Kohn-Sham eigenvalues and eigenfunctions.
  Solving real generalised eigenvalue problem by standard LAPACK (fast)
  Determining occupation numbers for Kohn-Sham eigenstates.
  | Chemical potential (Fermi level) in eV                 : -.22513217E+01
  | Error in electron count due to remaining E_F inaccuracy: 0.00000000E+00
  | Maximum occupation number of highest empty state:  0.00E+00

  Highest occupied state (VBM) at     -6.51164676 eV
  | Occupation number:      2.00000000

  Lowest unoccupied state (CBM) at    -2.08458627 eV
  | Occupation number:      0.00000000

  Overall HOMO-LUMO gap:      4.42706049 eV.

  Total energy components:
  | Sum of eigenvalues            :        -209.19053832 Ha       -5692.36417206 eV
  | XC energy correction          :         -46.41460604 Ha       -1263.00569142 eV
  | XC potential correction       :          59.33431049 Ha        1614.56873675 eV
  | Free-atom electrostatic energy:        -178.83384586 Ha       -4866.31654139 eV
  | Hartree energy correction     :          -7.66440539 Ha        -208.55908201 eV
  | van der Waals energy corr.    :           0.00000000 Ha           0.00000000 eV
  | Entropy correction            :           0.00000000 Ha           0.00000000 eV
  | ---------------------------
  | Total energy                  :        -382.76908513 Ha      -10415.67675013 eV
  | Total energy, T -> 0          :        -382.76908513 Ha      -10415.67675013 eV  <-- do not rely on this value for anything but (periodic) metals
  | Electronic free energy        :        -382.76908513 Ha      -10415.67675013 eV

  Derived energy quantities:
  | Kinetic energy                :         383.50468487 Ha       10435.69343756 eV
  | Electrostatic energy          :        -719.85916396 Ha      -19588.36449627 eV
  | Energy correction for multipole
  | error in Hartree potential    :          -0.00122825 Ha          -0.03342232 eV
  | Sum of eigenvalues per atom                           :        -379.49094480 eV
  | Total energy (T->0) per atom                          :        -694.37845001 eV  <-- do not rely on this value for anything but (periodic) metals
  | Electronic free energy per atom                       :        -694.37845001 eV

  Self-consistency convergence accuracy:
  | Change of charge density      : 0.5020E+00
  | Change of sum of eigenvalues  : 0.1480E+03 eV
  | Change of total energy        : 0.4679E+01 eV

  End self-consistency iteration #     2       :  max(cpu_time)    wall_clock(cpu1)
  | Time for this iteration                    :        1.908 s           1.908 s
  | Charge density update                      :        0.632 s           0.632 s
  | Density mixing                             :        0.006 s           0.005 s
  | Hartree multipole update                   :        0.005 s           0.005 s
  | Hartree multipole summation                :        0.323 s           0.324 s
  | Integration                                :        0.888 s           0.887 s
  | Solution of K.-S. eqns.                    :        0.054 s           0.054 s
  | Total energy evaluation                    :        0.000 s           0.001 s
------------------------------------------------------------

------------------------------------------------------------
          Begin self-consistency iteration #    3

  Date     :  20150727, Time     :  122605.037
------------------------------------------------------------
  Evaluating new KS density.
  Integration grid: deviation in total charge (<rho> - N_e) =   3.552714E-14
  Pulay mixing of updated and previous charge densities.

  Evaluating partitioned Hartree potential by multipole expansion.
  | Analytical far-field extrapolation by fixed multipoles:
  | Hartree multipole sum: apparent total charge =  -0.765851E-05
  Summing up the Hartree potential.
  Time summed over all CPUs for potential: real work        2.565 s, elapsed        2.582 s
  | RMS charge density error from multipole expansion :   0.133365E-01

  Integrating Hamiltonian matrix: batch-based integration.
  Time summed over all CPUs for integration: real work        6.889 s, elapsed        7.116 s

  Updating Kohn-Sham eigenvalues, eigenvectors, occupation numbers, and Fermi level.
  Solving generalized eigenproblem
  Updating Kohn-Sham eigenvalues and eigenfunctions.
  Solving real generalised eigenvalue problem by standard LAPACK (fast)
  Determining occupation numbers for Kohn-Sham eigenstates.
  | Chemical potential (Fermi level) in eV                 : -.50893240E+01
  | Error in electron count due to remaining E_F inaccuracy: 0.00000000E+00
  | Maximum occupation number of highest empty state:  0.00E+00

  Highest occupied state (VBM) at     -6.29546906 eV
  | Occupation number:      2.00000000

  Lowest unoccupied state (CBM) at    -2.09448235 eV
  | Occupation number:      0.00000000

  Overall HOMO-LUMO gap:      4.20098670 eV.

  Total energy components:
  | Sum of eigenvalues            :        -209.36187937 Ha       -5697.02659929 eV
  | XC energy correction          :         -46.39020854 Ha       -1262.34180173 eV
  | XC potential correction       :          59.29747379 Ha        1613.56635912 eV
  | Free-atom electrostatic energy:        -178.83384586 Ha       -4866.31654139 eV
  | Hartree energy correction     :          -7.47417508 Ha        -203.38265191 eV
  | van der Waals energy corr.    :           0.00000000 Ha           0.00000000 eV
  | Entropy correction            :           0.00000000 Ha           0.00000000 eV
  | ---------------------------
  | Total energy                  :        -382.76263507 Ha      -10415.50123520 eV
  | Total energy, T -> 0          :        -382.76263507 Ha      -10415.50123520 eV  <-- do not rely on this value for anything but (periodic) metals
  | Electronic free energy        :        -382.76263507 Ha      -10415.50123520 eV

  Derived energy quantities:
  | Kinetic energy                :         381.43561971 Ha       10379.39130994 eV
  | Electrostatic energy          :        -717.80804624 Ha      -19532.55074341 eV
  | Energy correction for multipole
  | error in Hartree potential    :          -0.00612286 Ha          -0.16661151 eV
  | Sum of eigenvalues per atom                           :        -379.80177329 eV
  | Total energy (T->0) per atom                          :        -694.36674901 eV  <-- do not rely on this value for anything but (periodic) metals
  | Electronic free energy per atom                       :        -694.36674901 eV

  Self-consistency convergence accuracy:
  | Change of charge density      : 0.2488E+00
  | Change of sum of eigenvalues  : -.4662E+01 eV
  | Change of total energy        : 0.1755E+00 eV

  End self-consistency iteration #     3       :  max(cpu_time)    wall_clock(cpu1)
  | Time for this iteration                    :        1.908 s           1.907 s
  | Charge density update                      :        0.627 s           0.626 s
  | Density mixing                             :        0.007 s           0.007 s
  | Hartree multipole update                   :        0.005 s           0.005 s
  | Hartree multipole summation                :        0.323 s           0.323 s
  | Integration                                :        0.891 s           0.891 s
  | Solution of K.-S. eqns.                    :        0.054 s           0.054 s
  | Total energy evaluation                    :        0.000 s           0.000 s
------------------------------------------------------------

------------------------------------------------------------
          Begin self-consistency iteration #    4

  Date     :  20150727, Time     :  122606.944
------------------------------------------------------------
  Evaluating new KS density.
  Integration grid: deviation in total charge (<rho> - N_e) =   1.421085E-14
  Pulay mixing of updated and previous charge densities.

  Evaluating partitioned Hartree potential by multipole expansion.
  | Analytical far-field extrapolation by fixed multipoles:
  | Hartree multipole sum: apparent total charge =  -0.936293E-05
  Summing up the Hartree potential.
  Time summed over all CPUs for potential: real work        2.564 s, elapsed        2.581 s
  | RMS charge density error from multipole expansion :   0.172508E-01

  Integrating Hamiltonian matrix: batch-based integration.
  Time summed over all CPUs for integration: real work        6.889 s, elapsed        7.110 s

  Updating Kohn-Sham eigenvalues, eigenvectors, occupation numbers, and Fermi level.
  Solving generalized eigenproblem
  Updating Kohn-Sham eigenvalues and eigenfunctions.
  Solving real generalised eigenvalue problem by standard LAPACK (fast)
  Determining occupation numbers for Kohn-Sham eigenstates.
  | Chemical potential (Fermi level) in eV                 : -.30693817E+01
  | Error in electron count due to remaining E_F inaccuracy: 0.00000000E+00
  | Maximum occupation number of highest empty state:  0.00E+00

  Highest occupied state (VBM) at     -5.13732057 eV
  | Occupation number:      2.00000000

  Lowest unoccupied state (CBM) at    -2.00761824 eV
  | Occupation number:      0.00000000

  Overall HOMO-LUMO gap:      3.12970233 eV.

  Total energy components:
  | Sum of eigenvalues            :        -207.68851462 Ha       -5651.49202768 eV
  | XC energy correction          :         -46.59373836 Ha       -1267.88012994 eV
  | XC potential correction       :          59.56289729 Ha        1620.78890000 eV
  | Free-atom electrostatic energy:        -178.83384586 Ha       -4866.31654139 eV
  | Hartree energy correction     :          -9.19824940 Ha        -250.29710120 eV
  | van der Waals energy corr.    :           0.00000000 Ha           0.00000000 eV
  | Entropy correction            :           0.00000000 Ha           0.00000000 eV
  | ---------------------------
  | Total energy                  :        -382.75145097 Ha      -10415.19690022 eV
  | Total energy, T -> 0          :        -382.75145097 Ha      -10415.19690022 eV  <-- do not rely on this value for anything but (periodic) metals
  | Electronic free energy        :        -382.75145097 Ha      -10415.19690022 eV

  Derived energy quantities:
  | Kinetic energy                :         381.62599511 Ha       10384.57168813 eV
  | Electrostatic energy          :        -717.78370771 Ha      -19531.88845841 eV
  | Energy correction for multipole
  | error in Hartree potential    :          -0.00822982 Ha          -0.22394488 eV
  | Sum of eigenvalues per atom                           :        -376.76613518 eV
  | Total energy (T->0) per atom                          :        -694.34646001 eV  <-- do not rely on this value for anything but (periodic) metals
  | Electronic free energy per atom                       :        -694.34646001 eV

  Self-consistency convergence accuracy:
  | Change of charge density      : 0.1338E+00
  | Change of sum of eigenvalues  : 0.4553E+02 eV
  | Change of total energy        : 0.3043E+00 eV

  End self-consistency iteration #     4       :  max(cpu_time)    wall_clock(cpu1)
  | Time for this iteration                    :        1.909 s           1.908 s
  | Charge density update                      :        0.627 s           0.627 s
  | Density mixing                             :        0.008 s           0.008 s
  | Hartree multipole update                   :        0.005 s           0.005 s
  | Hartree multipole summation                :        0.324 s           0.323 s
  | Integration                                :        0.890 s           0.890 s
  | Solution of K.-S. eqns.                    :        0.054 s           0.054 s
  | Total energy evaluation                    :        0.000 s           0.000 s
------------------------------------------------------------

------------------------------------------------------------
          Begin self-consistency iteration #    5

  Date     :  20150727, Time     :  122608.852
------------------------------------------------------------
  Evaluating new KS density.
  Integration grid: deviation in total charge (<rho> - N_e) =   1.421085E-14
  Pulay mixing of updated and previous charge densities.

  Evaluating partitioned Hartree potential by multipole expansion.
  | Analytical far-field extrapolation by fixed multipoles:
  | Hartree multipole sum: apparent total charge =  -0.945062E-05
  Summing up the Hartree potential.
  Time summed over all CPUs for potential: real work        2.564 s, elapsed        2.582 s
  | RMS charge density error from multipole expansion :   0.177733E-01

  Integrating Hamiltonian matrix: batch-based integration.
  Time summed over all CPUs for integration: real work        6.881 s, elapsed        7.110 s

  Updating Kohn-Sham eigenvalues, eigenvectors, occupation numbers, and Fermi level.
  Solving generalized eigenproblem
  Updating Kohn-Sham eigenvalues and eigenfunctions.
  Solving real generalised eigenvalue problem by standard LAPACK (fast)
  Determining occupation numbers for Kohn-Sham eigenstates.
  | Chemical potential (Fermi level) in eV                 : -.30556268E+01
  | Error in electron count due to remaining E_F inaccuracy: 0.00000000E+00
  | Maximum occupation number of highest empty state:  0.00E+00

  Highest occupied state (VBM) at     -4.95628496 eV
  | Occupation number:      2.00000000

  Lowest unoccupied state (CBM) at    -1.99975494 eV
  | Occupation number:      0.00000000

  Overall HOMO-LUMO gap:      2.95653002 eV.

  Total energy components:
  | Sum of eigenvalues            :        -207.63341364 Ha       -5649.99265350 eV
  | XC energy correction          :         -46.60414790 Ha       -1268.16338794 eV
  | XC potential correction       :          59.57594971 Ha        1621.14407455 eV
  | Free-atom electrostatic energy:        -178.83384586 Ha       -4866.31654139 eV
  | Hartree energy correction     :          -9.25578827 Ha        -251.86281347 eV
  | van der Waals energy corr.    :           0.00000000 Ha           0.00000000 eV
  | Entropy correction            :           0.00000000 Ha           0.00000000 eV
  | ---------------------------
  | Total energy                  :        -382.75124596 Ha      -10415.19132175 eV
  | Total energy, T -> 0          :        -382.75124596 Ha      -10415.19132175 eV  <-- do not rely on this value for anything but (periodic) metals
  | Electronic free energy        :        -382.75124596 Ha      -10415.19132175 eV

  Derived energy quantities:
  | Kinetic energy                :         381.64894438 Ha       10385.19616956 eV
  | Electrostatic energy          :        -717.79604244 Ha      -19532.22410337 eV
  | Energy correction for multipole
  | error in Hartree potential    :          -0.00840472 Ha          -0.22870394 eV
  | Sum of eigenvalues per atom                           :        -376.66617690 eV
  | Total energy (T->0) per atom                          :        -694.34608812 eV  <-- do not rely on this value for anything but (periodic) metals
  | Electronic free energy per atom                       :        -694.34608812 eV

  Self-consistency convergence accuracy:
  | Change of charge density      : 0.2942E-01
  | Change of sum of eigenvalues  : 0.1499E+01 eV
  | Change of total energy        : 0.5578E-02 eV

  End self-consistency iteration #     5       :  max(cpu_time)    wall_clock(cpu1)
  | Time for this iteration                    :        1.910 s           1.909 s
  | Charge density update                      :        0.627 s           0.626 s
  | Density mixing                             :        0.009 s           0.010 s
  | Hartree multipole update                   :        0.005 s           0.005 s
  | Hartree multipole summation                :        0.324 s           0.323 s
  | Integration                                :        0.890 s           0.890 s
  | Solution of K.-S. eqns.                    :        0.054 s           0.053 s
  | Total energy evaluation                    :        0.000 s           0.000 s
------------------------------------------------------------

------------------------------------------------------------
          Begin self-consistency iteration #    6

  Date     :  20150727, Time     :  122610.762
------------------------------------------------------------
  Evaluating new KS density.
  Integration grid: deviation in total charge (<rho> - N_e) =   2.131628E-14
  Pulay mixing of updated and previous charge densities.

  Evaluating partitioned Hartree potential by multipole expansion.
  | Analytical far-field extrapolation by fixed multipoles:
  | Hartree multipole sum: apparent total charge =  -0.948880E-05
  Summing up the Hartree potential.
  Time summed over all CPUs for potential: real work        2.564 s, elapsed        2.582 s
  | RMS charge density error from multipole expansion :   0.179666E-01

  Integrating Hamiltonian matrix: batch-based integration.
  Time summed over all CPUs for integration: real work        6.881 s, elapsed        7.112 s

  Updating Kohn-Sham eigenvalues, eigenvectors, occupation numbers, and Fermi level.
  Solving generalized eigenproblem
  Updating Kohn-Sham eigenvalues and eigenfunctions.
  Solving real generalised eigenvalue problem by standard LAPACK (fast)
  Determining occupation numbers for Kohn-Sham eigenstates.
  | Chemical potential (Fermi level) in eV                 : -.30483854E+01
  | Error in electron count due to remaining E_F inaccuracy: 0.00000000E+00
  | Maximum occupation number of highest empty state:  0.00E+00

  Highest occupied state (VBM) at     -4.94037903 eV
  | Occupation number:      2.00000000

  Lowest unoccupied state (CBM) at    -1.99520144 eV
  | Occupation number:      0.00000000

  Overall HOMO-LUMO gap:      2.94517759 eV.

  Total energy components:
  | Sum of eigenvalues            :        -207.60021785 Ha       -5649.08935025 eV
  | XC energy correction          :         -46.60903116 Ha       -1268.29626803 eV
  | XC potential correction       :          59.58219335 Ha        1621.31397255 eV
  | Free-atom electrostatic energy:        -178.83384586 Ha       -4866.31654139 eV
  | Hartree energy correction     :          -9.29039129 Ha        -252.80440965 eV
  | van der Waals energy corr.    :           0.00000000 Ha           0.00000000 eV
  | Entropy correction            :           0.00000000 Ha           0.00000000 eV
  | ---------------------------
  | Total energy                  :        -382.75129282 Ha      -10415.19259678 eV
  | Total energy, T -> 0          :        -382.75129282 Ha      -10415.19259678 eV  <-- do not rely on this value for anything but (periodic) metals
  | Electronic free energy        :        -382.75129282 Ha      -10415.19259678 eV

  Derived energy quantities:
  | Kinetic energy                :         381.64884672 Ha       10385.19351212 eV
  | Electrostatic energy          :        -717.79110838 Ha      -19532.08984087 eV
  | Energy correction for multipole
  | error in Hartree potential    :          -0.00849051 Ha          -0.23103845 eV
  | Sum of eigenvalues per atom                           :        -376.60595668 eV
  | Total energy (T->0) per atom                          :        -694.34617312 eV  <-- do not rely on this value for anything but (periodic) metals
  | Electronic free energy per atom                       :        -694.34617312 eV

  Self-consistency convergence accuracy:
  | Change of charge density      : 0.1155E-01
  | Change of sum of eigenvalues  : 0.9033E+00 eV
  | Change of total energy        : -.1275E-02 eV

  End self-consistency iteration #     6       :  max(cpu_time)    wall_clock(cpu1)
  | Time for this iteration                    :        1.911 s           1.911 s
  | Charge density update                      :        0.626 s           0.627 s
  | Density mixing                             :        0.011 s           0.011 s
  | Hartree multipole update                   :        0.005 s           0.004 s
  | Hartree multipole summation                :        0.324 s           0.323 s
  | Integration                                :        0.890 s           0.891 s
  | Solution of K.-S. eqns.                    :        0.054 s           0.054 s
  | Total energy evaluation                    :        0.000 s           0.000 s
------------------------------------------------------------

------------------------------------------------------------
          Begin self-consistency iteration #    7

  Date     :  20150727, Time     :  122612.673
------------------------------------------------------------
  Evaluating new KS density.
  Integration grid: deviation in total charge (<rho> - N_e) =   2.131628E-14
  Pulay mixing of updated and previous charge densities.

  Evaluating partitioned Hartree potential by multipole expansion.
  | Analytical far-field extrapolation by fixed multipoles:
  | Hartree multipole sum: apparent total charge =  -0.931512E-05
  Summing up the Hartree potential.
  Time summed over all CPUs for potential: real work        2.564 s, elapsed        2.581 s
  | RMS charge density error from multipole expansion :   0.179387E-01

  Integrating Hamiltonian matrix: batch-based integration.
  Time summed over all CPUs for integration: real work        6.885 s, elapsed        7.111 s

  Updating Kohn-Sham eigenvalues, eigenvectors, occupation numbers, and Fermi level.
  Solving generalized eigenproblem
  Updating Kohn-Sham eigenvalues and eigenfunctions.
  Solving real generalised eigenvalue problem by standard LAPACK (fast)
  Determining occupation numbers for Kohn-Sham eigenstates.
  | Chemical potential (Fermi level) in eV                 : -.30652207E+01
  | Error in electron count due to remaining E_F inaccuracy: 0.00000000E+00
  | Maximum occupation number of highest empty state:  0.00E+00

  Highest occupied state (VBM) at     -5.08790236 eV
  | Occupation number:      2.00000000

  Lowest unoccupied state (CBM) at    -1.99353726 eV
  | Occupation number:      0.00000000

  Overall HOMO-LUMO gap:      3.09436510 eV.

  Total energy components:
  | Sum of eigenvalues            :        -207.75712129 Ha       -5653.35891005 eV
  | XC energy correction          :         -46.59252855 Ha       -1267.84720924 eV
  | XC potential correction       :          59.56001231 Ha        1620.71039573 eV
  | Free-atom electrostatic energy:        -178.83384586 Ha       -4866.31654139 eV
  | Hartree energy correction     :          -9.12767826 Ha        -248.37676263 eV
  | van der Waals energy corr.    :           0.00000000 Ha           0.00000000 eV
  | Entropy correction            :           0.00000000 Ha           0.00000000 eV
  | ---------------------------
  | Total energy                  :        -382.75116165 Ha      -10415.18902759 eV
  | Total energy, T -> 0          :        -382.75116165 Ha      -10415.18902759 eV  <-- do not rely on this value for anything but (periodic) metals
  | Electronic free energy        :        -382.75116165 Ha      -10415.18902759 eV

  Derived energy quantities:
  | Kinetic energy                :         381.69992365 Ha       10386.58338609 eV
  | Electrostatic energy          :        -717.85855675 Ha      -19533.92520443 eV
  | Energy correction for multipole
  | error in Hartree potential    :          -0.00831093 Ha          -0.22615188 eV
  | Sum of eigenvalues per atom                           :        -376.89059400 eV
  | Total energy (T->0) per atom                          :        -694.34593517 eV  <-- do not rely on this value for anything but (periodic) metals
  | Electronic free energy per atom                       :        -694.34593517 eV

  Self-consistency convergence accuracy:
  | Change of charge density      : 0.1152E-01
  | Change of sum of eigenvalues  : -.4270E+01 eV
  | Change of total energy        : 0.3569E-02 eV

  End self-consistency iteration #     7       :  max(cpu_time)    wall_clock(cpu1)
  | Time for this iteration                    :        1.913 s           1.912 s
  | Charge density update                      :        0.627 s           0.627 s
  | Density mixing                             :        0.013 s           0.013 s
  | Hartree multipole update                   :        0.004 s           0.004 s
  | Hartree multipole summation                :        0.323 s           0.323 s
  | Integration                                :        0.890 s           0.890 s
  | Solution of K.-S. eqns.                    :        0.053 s           0.054 s
  | Total energy evaluation                    :        0.001 s           0.000 s
------------------------------------------------------------

------------------------------------------------------------
          Begin self-consistency iteration #    8

  Date     :  20150727, Time     :  122614.586
------------------------------------------------------------
  Evaluating new KS density.
  Integration grid: deviation in total charge (<rho> - N_e) =   3.552714E-14
  Pulay mixing of updated and previous charge densities.

  Evaluating partitioned Hartree potential by multipole expansion.
  | Analytical far-field extrapolation by fixed multipoles:
  | Hartree multipole sum: apparent total charge =  -0.933268E-05
  Summing up the Hartree potential.
  Time summed over all CPUs for potential: real work        2.564 s, elapsed        2.582 s
  | RMS charge density error from multipole expansion :   0.180048E-01

  Integrating Hamiltonian matrix: batch-based integration.
  Time summed over all CPUs for integration: real work        6.881 s, elapsed        7.111 s

  Updating Kohn-Sham eigenvalues, eigenvectors, occupation numbers, and Fermi level.
  Solving generalized eigenproblem
  Updating Kohn-Sham eigenvalues and eigenfunctions.
  Solving real generalised eigenvalue problem by standard LAPACK (fast)
  Determining occupation numbers for Kohn-Sham eigenstates.
  | Chemical potential (Fermi level) in eV                 : -.30648572E+01
  | Error in electron count due to remaining E_F inaccuracy: 0.00000000E+00
  | Maximum occupation number of highest empty state:  0.00E+00

  Highest occupied state (VBM) at     -5.06193094 eV
  | Occupation number:      2.00000000

  Lowest unoccupied state (CBM) at    -1.99530418 eV
  | Occupation number:      0.00000000

  Overall HOMO-LUMO gap:      3.06662676 eV.

  Total energy components:
  | Sum of eigenvalues            :        -207.73658921 Ha       -5652.80020370 eV
  | XC energy correction          :         -46.59508109 Ha       -1267.91666734 eV
  | XC potential correction       :          59.56332239 Ha        1620.80046776 eV
  | Free-atom electrostatic energy:        -178.83384586 Ha       -4866.31654139 eV
  | Hartree energy correction     :          -9.14896875 Ha        -248.95610644 eV
  | van der Waals energy corr.    :           0.00000000 Ha           0.00000000 eV
  | Entropy correction            :           0.00000000 Ha           0.00000000 eV
  | ---------------------------
  | Total energy                  :        -382.75116252 Ha      -10415.18905111 eV
  | Total energy, T -> 0          :        -382.75116252 Ha      -10415.18905111 eV  <-- do not rely on this value for anything but (periodic) metals
  | Electronic free energy        :        -382.75116252 Ha      -10415.18905111 eV

  Derived energy quantities:
  | Kinetic energy                :         381.70366031 Ha       10386.68506580 eV
  | Electrostatic energy          :        -717.85974174 Ha      -19533.95744957 eV
  | Energy correction for multipole
  | error in Hartree potential    :          -0.00835694 Ha          -0.22740388 eV
  | Sum of eigenvalues per atom                           :        -376.85334691 eV
  | Total energy (T->0) per atom                          :        -694.34593674 eV  <-- do not rely on this value for anything but (periodic) metals
  | Electronic free energy per atom                       :        -694.34593674 eV

  Self-consistency convergence accuracy:
  | Change of charge density      : 0.2060E-02
  | Change of sum of eigenvalues  : 0.5587E+00 eV
  | Change of total energy        : -.2352E-04 eV

  End self-consistency iteration #     8       :  max(cpu_time)    wall_clock(cpu1)
  | Time for this iteration                    :        1.914 s           1.914 s
  | Charge density update                      :        0.627 s           0.627 s
  | Density mixing                             :        0.014 s           0.013 s
  | Hartree multipole update                   :        0.005 s           0.005 s
  | Hartree multipole summation                :        0.323 s           0.324 s
  | Integration                                :        0.891 s           0.890 s
  | Solution of K.-S. eqns.                    :        0.054 s           0.054 s
  | Total energy evaluation                    :        0.000 s           0.001 s
------------------------------------------------------------

------------------------------------------------------------
          Begin self-consistency iteration #    9

  Date     :  20150727, Time     :  122616.500
------------------------------------------------------------
  Evaluating new KS density.
  Integration grid: deviation in total charge (<rho> - N_e) =   1.421085E-14
  Pulay mixing of updated and previous charge densities.

  Evaluating partitioned Hartree potential by multipole expansion.
  | Analytical far-field extrapolation by fixed multipoles:
  | Hartree multipole sum: apparent total charge =  -0.932469E-05
  Summing up the Hartree potential.
  Time summed over all CPUs for potential: real work        2.564 s, elapsed        2.582 s
  | RMS charge density error from multipole expansion :   0.179961E-01

  Integrating Hamiltonian matrix: batch-based integration.
  Time summed over all CPUs for integration: real work        6.870 s, elapsed        7.080 s

  Updating Kohn-Sham eigenvalues, eigenvectors, occupation numbers, and Fermi level.
  Solving generalized eigenproblem
  Updating Kohn-Sham eigenvalues and eigenfunctions.
  Solving real generalised eigenvalue problem by standard LAPACK (fast)
  Determining occupation numbers for Kohn-Sham eigenstates.
  | Chemical potential (Fermi level) in eV                 : -.30657711E+01
  | Error in electron count due to remaining E_F inaccuracy: 0.00000000E+00
  | Maximum occupation number of highest empty state:  0.00E+00

  Highest occupied state (VBM) at     -5.06896369 eV
  | Occupation number:      2.00000000

  Lowest unoccupied state (CBM) at    -1.99574789 eV
  | Occupation number:      0.00000000

  Overall HOMO-LUMO gap:      3.07321581 eV.

  Total energy components:
  | Sum of eigenvalues            :        -207.74123386 Ha       -5652.92659111 eV
  | XC energy correction          :         -46.59449912 Ha       -1267.90083114 eV
  | XC potential correction       :          59.56254898 Ha        1620.77942206 eV
  | Free-atom electrostatic energy:        -178.83384586 Ha       -4866.31654139 eV
  | Hartree energy correction     :          -9.14413114 Ha        -248.82446832 eV
  | van der Waals energy corr.    :           0.00000000 Ha           0.00000000 eV
  | Entropy correction            :           0.00000000 Ha           0.00000000 eV
  | ---------------------------
  | Total energy                  :        -382.75116100 Ha      -10415.18900989 eV
  | Total energy, T -> 0          :        -382.75116100 Ha      -10415.18900989 eV  <-- do not rely on this value for anything but (periodic) metals
  | Electronic free energy        :        -382.75116100 Ha      -10415.18900989 eV

  Derived energy quantities:
  | Kinetic energy                :         381.70677072 Ha       10386.76970429 eV
  | Electrostatic energy          :        -717.86343260 Ha      -19534.05788305 eV
  | Energy correction for multipole
[...]
   ----------------------------------------------------------------
   Total forces(   4)            : 0.143671E+00 0.104041E+01 0.258673E+01
  atom #    5
   Hellmann-Feynman + Multipole  : -.361707E+00 -.817111E+00 -.484175E+00
   Pulay + GGA                   : 0.403992E-01 0.127587E+00 0.393957E-01
   Van der Waals               : 0.185239E-02 0.175313E-02 0.539420E-02
   ----------------------------------------------------------------
   Total forces(   5)            : -.319455E+00 -.687771E+00 -.439386E+00
  atom #    6
   Hellmann-Feynman + Multipole  : -.236982E+00 0.402376E+00 -.232576E+01
   Pulay + GGA                   : -.399390E-01 0.394492E-01 -.123756E+00
   Van der Waals               : 0.833855E-03 -.130716E-03 0.117862E-02
   ----------------------------------------------------------------
   Total forces(   6)            : -.276087E+00 0.441694E+00 -.244834E+01
  atom #    7
   Hellmann-Feynman + Multipole  : 0.347265E+01 -.846034E+01 -.848189E+01
   Pulay + GGA                   : -.423406E+01 0.920177E+01 0.108056E+02
   Van der Waals               : 0.188758E-04 -.325577E-02 -.256244E-02
   ----------------------------------------------------------------
   Total forces(   7)            : -.761391E+00 0.738173E+00 0.232119E+01
  atom #    8
   Hellmann-Feynman + Multipole  : -.321445E+00 0.174288E+00 -.236173E+01
   Pulay + GGA                   : 0.396874E-02 0.494218E-02 0.129260E+00
   Van der Waals               : -.683187E-03 0.220615E-02 -.337575E-02
   ----------------------------------------------------------------
   Total forces(   8)            : -.318159E+00 0.181436E+00 -.223584E+01
  atom #    9
   Hellmann-Feynman + Multipole  : 0.127018E+01 -.147729E+01 0.400794E+00
   Pulay + GGA                   : -.523631E-01 0.668923E-01 0.142838E-01
   Van der Waals               : -.162768E-02 -.179962E-02 -.315667E-03
   ----------------------------------------------------------------
   Total forces(   9)            : 0.121619E+01 -.141220E+01 0.414762E+00
  atom #   10
   Hellmann-Feynman + Multipole  : -.180655E+01 -.389284E+01 -.156372E+02
   Pulay + GGA                   : 0.324745E+01 0.479152E+01 0.133976E+02
   Van der Waals               : -.743646E-02 -.196699E-02 -.573063E-02
   ----------------------------------------------------------------
   Total forces(  10)            : 0.143347E+01 0.896717E+00 -.224527E+01
  atom #   11
   Hellmann-Feynman + Multipole  : -.498855E+00 -.344520E+00 0.189002E+00
   Pulay + GGA                   : 0.883559E-01 0.748264E-01 0.540795E-01
   Van der Waals               : -.457287E-02 -.152703E-02 0.818087E-03
   ----------------------------------------------------------------
   Total forces(  11)            : -.415072E+00 -.271221E+00 0.243900E+00
  atom #   12
   Hellmann-Feynman + Multipole  : -.777327E+00 -.522319E+00 0.164661E+01
   Pulay + GGA                   : -.467828E-01 -.572365E-02 0.625143E-01
   Van der Waals               : -.390486E-02 -.793267E-03 -.580848E-02
   ----------------------------------------------------------------
   Total forces(  12)            : -.828015E+00 -.528836E+00 0.170331E+01
  atom #   13
   Hellmann-Feynman + Multipole  : -.153946E+01 -.135455E+02 0.467137E-01
   Pulay + GGA                   : 0.241599E+01 0.141645E+02 -.212039E+01
   Van der Waals               : 0.522596E-02 -.314597E-02 -.611100E-02
   ----------------------------------------------------------------
   Total forces(  13)            : 0.881759E+00 0.615837E+00 -.207979E+01
  atom #   14
   Hellmann-Feynman + Multipole  : -.283744E+00 0.541760E+00 0.299373E+00
   Pulay + GGA                   : -.824594E-01 0.894347E-01 0.718405E-01
   Van der Waals               : 0.247456E-02 -.221599E-02 -.354706E-03
   ----------------------------------------------------------------
   Total forces(  14)            : -.363729E+00 0.628978E+00 0.370859E+00
  atom #   15
   Hellmann-Feynman + Multipole  : -.926660E+00 -.875837E+00 0.163684E+01
   Pulay + GGA                   : 0.368660E-01 0.731688E-01 -.117688E+00
   Van der Waals               : 0.301416E-02 -.207506E-02 -.374211E-02
   ----------------------------------------------------------------
   Total forces(  15)            : -.886780E+00 -.804743E+00 0.151541E+01
  Timings for vdw_correction_hirshfeld (Tkatchenko-Scheffler 2009):
  | CPU time:        5.186 s, Wall clock time:        5.186 s.
  Removing unitary transformations (pure translations, rotations) from forces on atoms.
  Atomic forces before filtering:
  | Net force on center of mass :  0.990584E-02 0.370621E-02 0.292571E-02 eV/A
  | Net torque on center of mass:  -.157780E-01 -.103691E-01 0.815951E-02 eV
  Atomic forces after filtering:
  | Net force on center of mass :  0.107044E-14 -.535218E-15 -.535218E-15 eV/A
  | Net torque on center of mass:  0.103849E-14 -.755268E-15 -.944085E-15 eV
 
  Energy and forces in a compact form:
  | Total energy uncorrected      :         -0.104152524043388E+05 eV
  | Total energy corrected        :         -0.104152524043388E+05 eV  <-- do not rely on this value for anything but (periodic) metals
  | Electronic free energy        :         -0.104152524043388E+05 eV
  Total atomic forces (unitary forces cleaned) [eV/Ang]:
  |   1          0.663088768065467E+00          0.257590220643066E+01         -0.953661286489009E+00
  |   2          0.191625237191355E+01         -0.299602742258595E+01          0.130475644074611E+01
  |   3         -0.207892180083747E+01         -0.414500228718092E+00         -0.574650725149554E-01
  |   4          0.142761177112292E+00          0.104073258316788E+01          0.258659430113094E+01
  |   5         -0.320248229696730E+00         -0.687562286739852E+00         -0.439416326739137E+00
  |   6         -0.277065661881467E+00          0.442200389201850E+00         -0.244843965438220E+01
  |   7         -0.761902181107332E+00          0.737502992907544E+00          0.232088714365562E+01
  |   8         -0.318584284877147E+00          0.180563975980056E+00         -0.223616799181397E+01
  |   9          0.121573990754182E+01         -0.141276656784317E+01          0.414661452716370E+00
  |  10          0.143288414469134E+01          0.896173627962458E+00         -0.224558893128217E+01
  |  11         -0.415569861659604E+00         -0.271905321356598E+00          0.243608902256873E+00
  |  12         -0.828564295856484E+00         -0.529450295028995E+00          0.170299489100928E+01
  |  13          0.881353844459991E+00          0.615507250912217E+00         -0.207960550892376E+01
  |  14         -0.364017414865184E+00          0.628608967869746E+00          0.371209438357883E+00
  |  15         -0.887206483003039E+00         -0.804979872159758E+00          0.151563220227213E+01
 
  ------------------------------------ 
  Start decomposition of the XC Energy 
  ------------------------------------ 
  Hartree-Fock part   :          0.000000000 Ha              0.000000000 eV
  ------------------------------------ 
  X Energy            :        -44.957601535 Ha          -1223.358581572 eV
  C Energy GGA        :         -1.636311644 Ha            -44.526305313 eV
  Total XC Energy     :        -46.593913179 Ha          -1267.884886885 eV
  LDA X and C from self-consistent density 
  X Energy LDA        :        -40.515131426 Ha          -1102.472819297 eV
  C Energy LDA        :         -3.299605286 Ha            -89.786828141 eV
  ------------------------------------ 
  End decomposition of the XC Energy 
  ------------------------------------ 
  Performing Hirshfeld analysis of fragment charges and moments.
  ----------------------------------------------------------------------
  | Atom     1: O
  |   Hirshfeld charge        :     -0.37110518
  |   Free atom volume        :     23.95238533
  |   Hirshfeld volume        :     24.18375658
  |   Hirshfeld dipole vector :      0.02707620       0.06771780      -0.00661159
  |   Hirshfeld dipole moment :      0.07322933
  |   Hirshfeld second moments:      0.01840770      -0.01913534       0.02551116
  |                                 -0.01913534      -0.06341597      -0.02184536
  |                                  0.02551116      -0.02184536      -0.10420498
  ----------------------------------------------------------------------
  | Atom     2: H
  |   Hirshfeld charge        :      0.06945805
  |   Free atom volume        :     10.44207651
  |   Hirshfeld volume        :      8.37642537
  |   Hirshfeld dipole vector :     -0.02336241       0.03944158      -0.01557008
  |   Hirshfeld dipole moment :      0.04841350
  |   Hirshfeld second moments:      0.07464918       0.02946130      -0.00081662
  |                                  0.02946130       0.02779200       0.01324997
  |                                 -0.00081662       0.01324997       0.06204212
  ----------------------------------------------------------------------
  | Atom     3: H
  |   Hirshfeld charge        :      0.10387780
  |   Free atom volume        :     10.44207651
  |   Hirshfeld volume        :      7.85982075
  |   Hirshfeld dipole vector :      0.11271491       0.02461184       0.00833467
  |   Hirshfeld dipole moment :      0.11567134
  |   Hirshfeld second moments:      0.08527827      -0.02016555       0.00056782
  |                                 -0.02016555       0.07894330      -0.01526530
  |                                  0.00056782      -0.01526530       0.06651572
  ----------------------------------------------------------------------
  | Atom     4: O
  |   Hirshfeld charge        :     -0.17055177
  |   Free atom volume        :     23.95238533
  |   Hirshfeld volume        :     19.85755994
  |   Hirshfeld dipole vector :      0.03075987      -0.01056243      -0.01557477
  |   Hirshfeld dipole moment :      0.03605978
  |   Hirshfeld second moments:      0.05235622       0.02002497       0.02835565
  |                                  0.02002497       0.09668324       0.01176137
  |                                  0.02835565       0.01176137       0.11301279
  ----------------------------------------------------------------------
  | Atom     5: H
  |   Hirshfeld charge        :      0.17933104
  |   Free atom volume        :     10.44207651
  |   Hirshfeld volume        :      6.14396860
  |   Hirshfeld dipole vector :      0.05484453       0.08904350       0.03930140
  |   Hirshfeld dipole moment :      0.11171959
  |   Hirshfeld second moments:      0.10891931      -0.00372143      -0.00135663
  |                                 -0.00372143       0.12518387      -0.00591650
  |                                 -0.00135663      -0.00591650       0.13717174
  ----------------------------------------------------------------------
  | Atom     6: H
  |   Hirshfeld charge        :      0.17660250
  |   Free atom volume        :     10.44207651
  |   Hirshfeld volume        :      5.57604135
  |   Hirshfeld dipole vector :     -0.01792953       0.00840800      -0.12078511
  |   Hirshfeld dipole moment :      0.12239774
  |   Hirshfeld second moments:      0.12963302       0.01084948       0.00786504
  |                                  0.01084948       0.14384020       0.00452672
  |                                  0.00786504       0.00452672       0.13125370
  ----------------------------------------------------------------------
  | Atom     7: O
  |   Hirshfeld charge        :     -0.25438189
  |   Free atom volume        :     23.95238533
  |   Hirshfeld volume        :     21.51513124
  |   Hirshfeld dipole vector :      0.01178739       0.03229704       0.00302910
  |   Hirshfeld dipole moment :      0.03451401
  |   Hirshfeld second moments:      0.03168595      -0.02739772       0.00401674
  |                                 -0.02739772      -0.00339376      -0.02259456
  |                                  0.00401674      -0.02259456       0.06939221
  ----------------------------------------------------------------------
  | Atom     8: H
  |   Hirshfeld charge        :      0.14376652
  |   Free atom volume        :     10.44207651
  |   Hirshfeld volume        :      6.21562887
  |   Hirshfeld dipole vector :      0.02126263      -0.01181488       0.11697718
  |   Hirshfeld dipole moment :      0.11947951
  |   Hirshfeld second moments:      0.12075479      -0.01287194      -0.00231724
  |                                 -0.01287194       0.11204383      -0.00596624
  |                                 -0.00231724      -0.00596624       0.11169534
  ----------------------------------------------------------------------
  | Atom     9: H
  |   Hirshfeld charge        :      0.08983466
  |   Free atom volume        :     10.44207651
  |   Hirshfeld volume        :      7.65140865
  |   Hirshfeld dipole vector :     -0.02846631       0.03150183       0.00267394
  |   Hirshfeld dipole moment :      0.04254228
  |   Hirshfeld second moments:      0.06083802       0.02064450      -0.01752508
  |                                  0.02064450       0.05275884       0.01067141
  |                                 -0.01752508       0.01067141       0.10429279
  ----------------------------------------------------------------------
  | Atom    10: O
  |   Hirshfeld charge        :     -0.33373839
  |   Free atom volume        :     23.95238533
  |   Hirshfeld volume        :     22.40869000
  |   Hirshfeld dipole vector :      0.00742050      -0.00256387       0.06618811
  |   Hirshfeld dipole moment :      0.06665210
  |   Hirshfeld second moments:      0.03345330       0.05289980      -0.00291909
  |                                  0.05289980      -0.01771652       0.00327881
  |                                 -0.00291909       0.00327881      -0.01529277
  ----------------------------------------------------------------------
  | Atom    11: H
  |   Hirshfeld charge        :      0.12974389
  |   Free atom volume        :     10.44207651
  |   Hirshfeld volume        :      6.65052652
  |   Hirshfeld dipole vector :      0.09991206       0.06319629       0.04072615
  |   Hirshfeld dipole moment :      0.12503923
  |   Hirshfeld second moments:      0.10862567       0.01275994      -0.01061119
  |                                  0.01275994       0.09523557      -0.00505368
  |                                 -0.01061119      -0.00505368       0.10739429
  ----------------------------------------------------------------------
  | Atom    12: H
  |   Hirshfeld charge        :      0.07718974
  |   Free atom volume        :     10.44207651
  |   Hirshfeld volume        :      8.05435947
  |   Hirshfeld dipole vector :     -0.02244674      -0.01658940       0.03706246
  |   Hirshfeld dipole moment :      0.04639709
  |   Hirshfeld second moments:      0.06380866      -0.00417319       0.03572483
  |                                 -0.00417319       0.06835413       0.01422314
  |                                  0.03572483       0.01422314       0.05621399
  ----------------------------------------------------------------------
  | Atom    13: O
  |   Hirshfeld charge        :     -0.18827898
  |   Free atom volume        :     23.95238533
  |   Hirshfeld volume        :     20.09003501
  |   Hirshfeld dipole vector :      0.02236239       0.01197783       0.01470228
  |   Hirshfeld dipole moment :      0.02932067
  |   Hirshfeld second moments:      0.06061857      -0.02194787      -0.04120170
  |                                 -0.02194787       0.07406905      -0.00627002
  |                                 -0.04120170      -0.00627002       0.09477253
  ----------------------------------------------------------------------
  | Atom    14: H
  |   Hirshfeld charge        :      0.17154830
  |   Free atom volume        :     10.44207651
  |   Hirshfeld volume        :      5.50556831
  |   Hirshfeld dipole vector :     -0.06051364       0.08229281       0.06841590
  |   Hirshfeld dipole moment :      0.12294203
  |   Hirshfeld second moments:      0.13016788       0.00036833      -0.00970513
  |                                  0.00036833       0.13227498      -0.01212494
  |                                 -0.00970513      -0.01212494       0.14026117
  ----------------------------------------------------------------------
  | Atom    15: H
  |   Hirshfeld charge        :      0.17662592
  |   Free atom volume        :     10.44207651
  |   Hirshfeld volume        :      6.17309939
  |   Hirshfeld dipole vector :      0.05062293       0.05122532      -0.08597284
  |   Hirshfeld dipole moment :      0.11215187
  |   Hirshfeld second moments:      0.10763504      -0.01059249      -0.00174940
  |                                 -0.01059249       0.13382230       0.00418292
  |                                 -0.00174940       0.00418292       0.12404758
  ----------------------------------------------------------------------


------------------------------------------------------------------------------
  Final output of selected total energy values:

  The following output summarizes some interesting total energy values
  at the end of a run (AFTER all relaxation, molecular dynamics, etc.).

  | Total energy of the DFT / Hartree-Fock s.c.f. calculation      :         -10415.252404339 eV
  | Final zero-broadening corrected energy (caution - metals only) :         -10415.252404339 eV
  | For reference only, the value of 1 Hartree used in FHI-aims is :             27.211384500 eV

  Before relying on these values, please be sure to understand exactly which
  total energy value is referred to by a given number. Different objects may
  all carry the same name 'total energy'. Definitions:

  Total energy of the DFT / Hartree-Fock s.c.f. calculation:
  | Note that this energy does not include ANY quantities calculated after the
  | s.c.f. cycle, in particular not ANY RPA, MP2, etc. many-body perturbation terms.

  Final zero-broadening corrected energy:
  | For metallic systems only, a broadening of the occupation numbers at the Fermi
  | level can be extrapolated back to zero broadening by an electron-gas inspired
  | formula. For all systems that are not real metals, this value can be
  | meaningless and should be avoided.

------------------------------------------------------------------------------

------------------------------------------------------------
          Leaving FHI-aims.
          Date     :  20150727, Time     :  122633.870

          Computational steps:
          | Number of self-consistency cycles          :           15

          Detailed time accounting                     :  max(cpu_time)    wall_clock(cpu1)
          | Total time                                 :       35.209 s          35.250 s
          | Preparation time                           :        0.169 s           0.594 s
          | Grid partitioning                          :        0.157 s           0.156 s
          | Preloading free-atom quantities on grid    :        0.013 s           0.013 s
          | Free-atom superposition energy             :        0.066 s           0.065 s
          | Total time for integrations                :       14.724 s          14.722 s
          | Total time for solution of K.-S. equations :        1.004 s           1.004 s
          | Total time for density & force components  :       12.155 s          12.154 s
          | Total time for mixing                      :        0.192 s           0.189 s
          | Total time for Hartree multipole update    :        0.074 s           0.075 s
          | Total time for Hartree multipole sum       :        5.926 s           5.927 s
          | Total time for total energy evaluation     :        0.004 s           0.007 s
          | Total time for scaled ZORA corrections     :        0.000 s           0.000 s
          | Total time for TS (2009) vdW correction    :        0.052 s           0.052 s

          Have a nice day.
------------------------------------------------------------
