  MPI-parallelism will be employed.
------------------------------------------------------------
          Invoking FHI-aims ...
          Version 081213
          Compiled on 2013/08/29 at 17:41:06 on host generoso.

          When using FHI-aims, please cite the following reference:

          Volker Blum, Ralf Gehrke, Felix Hanke, Paula Havu,
          Ville Havu, Xinguo Ren, Karsten Reuter, and Matthias Scheffler,
          'Ab Initio Molecular Simulations with Numeric Atom-Centered Orbitals: FHI-aims',
          Computer Physics Communications 180, 2175-2196 (2009)

          For any questions about FHI-aims, please visit the aimsclub website
          with its forums and wiki. Contributions to both the forums and the
          wiki are warmly encouraged - they are for you, and everyone is welcome there.

------------------------------------------------------------

  Date     :  20150727, Time     :  124118.882
  Time zero on CPU 1             :   0.519920000000000E-01  s.
  Internal wall clock time zero  :           207232878.882  s.

  Using        8 parallel tasks.
  Task        0 on host gen60 reporting.
  Task        1 on host gen60 reporting.
  Task        2 on host gen60 reporting.
  Task        3 on host gen60 reporting.
  Task        4 on host gen60 reporting.
  Task        5 on host gen60 reporting.
  Task        6 on host gen60 reporting.
  Task        7 on host gen60 reporting.

  Performing system and environment tests:
  | Environment variable OMP_NUM_THREADS correctly set to 1.
  | Checking for scalapack...
  | No scalapack compiled in.

  Obtaining array dimensions for all initial allocations:
  
  -----------------------------------------------------------------------
  Parsing control.in (first pass over file, find array dimensions only).
  The contents of control.in will be repeated verbatim below
  unless switched off by setting 'verbatim_writeout .false.' .
  in the first line of control.in .
  -----------------------------------------------------------------------
  
  #########################################################################################
  #
  #  Volker Blum, FHI 2008 : Test run input file control.in
  #
  #########################################################################################
  #
  #  Physical model
  #
    xc                 rpbe
    spin               none
    relativistic       atomic_zora scalar
    charge             0.
   vdw_correction_hirshfeld
  #
  #  SCF convergence
  #
    occupation_type    gaussian 0.01
    mixer              pulay
      n_max_pulay        10
      charge_mix_param   0.1
    sc_accuracy_rho    5E-5
    sc_accuracy_eev    5E-3
    sc_accuracy_etot   5E-6
    sc_iter_limit      3000
  #
  #  Eigenvalue solver
  #
    KS_method          lapack
      empty_states       8
      basis_threshold    0.e-5
  #
  #  Efficiency
  #
  #   all previous settings are now default, except stratmann still
  #   undecided. Continue to handle stratmann with care, if at all.
  #
  #  partition_type stratmann
    partition_type rho_r2
  #  hartree_partition_type stratmann
  #
  #  Oprions for large clusters (100's of atoms: memory saving / better scaling)
  #
  # for periodic systems:
  #
    density_update_method orbital
    packed_matrix_format none
  #  k_grid 6 6 6
  #  output k_eigenvalue 1
  #  distributed_spline_storage .true.
  #
  #  Relaxation
  #
  #  relax_geometry   bfgs 5.e-3
    sc_accuracy_forces 5.E-4
    final_forces_cleaned .true.
  #
  #  Output options
  #
  #  output mulliken
    output Hirshfeld
  #  output dipole
  
  #harmonic_length_scale 0.001
  
  ################################################################################
  #
  #  FHI-aims code project
  #  VB, Fritz-Haber Institut, 2007
  #
  #  Suggested "safe" defaults for H atom (to be pasted into control.in file)
  #  Basis constructed for a non-relativistic H2 molecule using the
  #  PW-LDA functional.
  #
  ################################################################################
    species        H
  #     global species definitions
      nucleus             1
      cut_pot             4.0  2.0  1.0
      cut_free_atom       finite 8.0
      logarithmic         0.00010000 100.00  1.0123
      basis_dep_cutoff    1d-4  # 1d-4 is safe default - please check 5d-4 if you wish!
      radial_base         24 7.0
      radial_multiplier   2
      angular_grids       specified
        division   0.2783  110
        division   0.3822  194
        division   0.5626  302
  #      division   0.5922  434
  #      division   0.6227  590
  #      division   0.7206  770
        outer_grid  302
      l_hartree           4
  ################################################################################
  #
  #  Definition of "minimal" basis
  #
  ################################################################################
  #     valence basis states
      valence      1  s   1.
  #     ion occupancy
      ion_occ      1  s   0.5
  ################################################################################
  #
  #  Suggested additional basis functions. For production calculations,
  #  uncomment them one after another (the most important basis functions are
  #  listed first).
  #
  ################################################################################
  #  "First tier" - improvements: -1014.90 meV to -62.69 meV
       hydro 2 s 2.1
       hydro 2 p 3.5
  #  "Second tier" - improvements: -12.89 meV to -1.83 meV
       hydro 1 s 0.85
       hydro 2 p 3.7
       hydro 2 s 1.2
       hydro 3 d 7
  #  "Third tier" - improvements: -0.25 meV to -0.12 meV
  #     hydro 4 f 11.2
  #     hydro 3 p 4.8
  #     hydro 4 d 9
  #     hydro 3 s 3.2
  
  ################################################################################
  #
  #  FHI-aims code project
  #  VB, Fritz-Haber Institut, 2007
  #
  #  Suggested "safe" defaults for O atom (to be pasted into control.in file)
  #  All values have been tested for a non-relativistic, non-spinpolarized O2
  #  molecule using the PW-LDA functional. Validity for PBE is expected.
  #
  #  Constructed for dimers: 1.0 A, 1.208 A, 1.5 A, 2.0 A, 3.0 A
  #
  ################################################################################
    species        O
  #     global species definitions
      nucleus             8
      mass                15.9994
      l_hartree           4
      cut_pot             4.0  2.0  1.0
      cut_free_atom       finite 8.0
      basis_dep_cutoff    1d-4  # 1d-4 is safe default - please check 5d-4 if you wish!
      logarithmic         0.00010000 100.00  1.0123
      radial_base         36 7.0
      radial_multiplier   2
       angular_grids specified
        division   0.4087  110
        division   0.5181  194
        division   0.6184  302
  #      division   0.7315  434
  #      division   0.7934  590
  #      division   0.9656  770
  #      division   1.4041  974
  #      outer_grid 974
        outer_grid 302
  ################################################################################
  #
  #  Definition of "minimal" basis
  #
  ################################################################################
  #     valence basis states
      valence      2  s   2.
      valence      2  p   4.
  #     ion occupancy
      ion_occ      2  s   1.
      ion_occ      2  p   3.
  ################################################################################
  #
  #  Suggested additional basis functions. For production calculations,
  #  uncomment them one after another (the most important basis functions are
  #  listed first).
  #
  ################################################################################
  #  "First tier" - improvements: -699.05 meV to -159.38 meV
       hydro 2 p 1.8
       hydro 3 d 7.6
       hydro 3 s 6.4
  #  "Second tier" - improvements: -49.91 meV to -5.39 meV
       hydro 4 f 11.6
       hydro 3 p 6.2
       hydro 3 d 5.6
       hydro 5 g 17.6
       hydro 1 s 0.75
  #  "Third tier" - improvements: -2.83 meV to -0.50 meV
  #     ionic 2 p auto
  #     hydro 4 f 10.8
  #     hydro 4 d 4.7
  #     hydro 2 s 6.8
  #  "Fourth tier" - improvements: -0.40 meV to -0.12 meV
  #     hydro 3 p 5
  #     hydro 3 s 3.3
  #     hydro 5 g 15.6
  #     hydro 4 f 17.6
  #     hydro 4 d 14
  # Further basis functions - -0.08 meV and below
  #     hydro 3 s 2.1
  #     hydro 4 d 11.6
  #     hydro 3 p 16
  #     hydro 2 s 17.2
  
  
  -----------------------------------------------------------------------
  Completed first pass over input file control.in .
  -----------------------------------------------------------------------
  
  
  -----------------------------------------------------------------------
  Parsing geometry.in (first pass over file, find array dimensions only).
  The contents of geometry.in will be repeated verbatim below
  unless switched off by setting 'verbatim_writeout .false.' .
  in the first line of geometry.in .
  -----------------------------------------------------------------------
  
  atom      -4.053030000      0.065001000     -1.525160000  O
  atom      -4.566710000      0.974813000     -1.912820000  H
  atom      -3.067820000      0.330172000     -1.477310000  H
  atom      -1.975360000      2.858040000      0.453140000  O
  atom      -1.223550000      3.375850000      0.786238000  H
  atom      -2.537520000      2.567960000      1.156120000  H
  atom      -5.628340000      3.730740000      1.385610000  O
  atom      -6.090650000      4.418470000      1.860350000  H
  atom      -5.158540000      4.200260000      0.615875000  H
  
  -----------------------------------------------------------------------
  Completed first pass over input file geometry.in .
  -----------------------------------------------------------------------
  
 
  Basic array size parameters: 
  | Number of species                 :        2
  | Number of atoms                   :        9
  | Max. basis fn. angular momentum   :        4
  | Max. atomic/ionic basis occupied n:        2
  | Max. number of basis fn. types    :        2
  | Max. radial fns per species/type  :        8
  | Max. logarithmic grid size        :     1301
  | Max. radial integration grid size :       73
  | Max. angular integration grid size:      302
  | Max. angular grid division number :        8
  | Radial grid for Hartree potential :     1301
  | Number of spin channels           :        1

------------------------------------------------------------
          Reading file control.in.
------------------------------------------------------------
  XC: Using RPBE gradient-corrected functionals.
  Spin treatment: No spin polarisation.
  Scalar relativistic treatment of kinetic energy: on-site free-atom approximation to ZORA.
  Charge =   0.000000E+00: Neutral system requested explicitly.
  Using non-empirical van der Waals correction (Hirshfeld partitioning):
  Occupation type: Gaussian broadening, width =   0.100000E-01 eV.
  Using pulay charge density mixing.
  Pulay mixing - number of memorized iterations:   10
  Charge density mixing - mixing parameter:     0.1000
  Convergence accuracy of self-consistent charge density: 0.5000E-04
  Convergence accuracy of sum of eigenvalues: 0.5000E-02
  Convergence accuracy of total energy: 0.5000E-05
  Maximum number of s.-c. iterations  :  3000
  Kohn-Sham eigenvalues and eigenfunctions calculated by lapack diagonalisation (D&C).
  Number of empty states per atom:        8
  Threshold for basis singularities: 0.0000E+00
  Partition function in integrals calculations: rho / r^2
 Using packed matrix format           0
  Convergence accuracy of forces: 0.5000E-03
  Cleaning forces before final output.
  Hirshfeld charge analysis will be performed.
 
  Reading configuration options for species H                   .
  | Found nuclear charge :   1.0000
  | Found cutoff potl. onset [A], width [A], scale factor :    4.00000    2.00000    1.00000
  | Found cutoff specification for free atom: Cutoff potential begins at    8.00000 A.
  | Found logarithmic grid data [bohr] : 0.1000E-03 0.1000E+03 0.1012E+01
  | Threshold for basis-dependent cutoff potential is   0.100000E-03
  | Found data for basic radial integration grid :    24 points, outermost radius =    7.000 A
  | Found multiplier for basic radial grid :   2
  | Found angular grid specification: user-specified.
  | Specified grid contains     4 separate shells.
  | Check grid settings after all constraints further below.
  | Found l_max for Hartree potential  :   4
  | Found free-atom valence shell :  1 s   1.000
  | No ionic wave fns used. Skipping ion_occ.
  | Found hydrogenic basis function :  2 s   2.100
  | Found hydrogenic basis function :  2 p   3.500
  | Found hydrogenic basis function :  1 s   0.850
  | Found hydrogenic basis function :  2 p   3.700
  | Found hydrogenic basis function :  2 s   1.200
  | Found hydrogenic basis function :  3 d   7.000
  Species H                   : Missing cutoff potential type.
  Defaulting to exp(1/x)/(1-x)^2 type cutoff potential.
  Species H : On-site basis accuracy parameter (for Gram-Schmidt orthonormalisation) not specified.
  Using default value basis_acc =  0.1000000E-03.
  Species H                   : Using default innermost maximum threshold i_radial=  2 for radial functions.
  Species H                   : Basic radial grid will be enhanced according to radial_multiplier =   2, to contain    49 grid points.
 
  Reading configuration options for species O                   .
  | Found nuclear charge :   8.0000
  | Found atomic mass :    15.9994000000000      amu
  | Found l_max for Hartree potential  :   4
  | Found cutoff potl. onset [A], width [A], scale factor :    4.00000    2.00000    1.00000
  | Found cutoff specification for free atom: Cutoff potential begins at    8.00000 A.
  | Threshold for basis-dependent cutoff potential is   0.100000E-03
  | Found logarithmic grid data [bohr] : 0.1000E-03 0.1000E+03 0.1012E+01
  | Found data for basic radial integration grid :    36 points, outermost radius =    7.000 A
  | Found multiplier for basic radial grid :   2
  | Found angular grid specification: user-specified.
  | Specified grid contains     4 separate shells.
  | Check grid settings after all constraints further below.
  | Found free-atom valence shell :  2 s   2.000
  | Found free-atom valence shell :  2 p   4.000
  | No ionic wave fns used. Skipping ion_occ.
  | No ionic wave fns used. Skipping ion_occ.
  | Found hydrogenic basis function :  2 p   1.800
  | Found hydrogenic basis function :  3 d   7.600
  | Found hydrogenic basis function :  3 s   6.400
  | Found hydrogenic basis function :  4 f  11.600
  | Found hydrogenic basis function :  3 p   6.200
  | Found hydrogenic basis function :  3 d   5.600
  | Found hydrogenic basis function :  5 g  17.600
  | Found hydrogenic basis function :  1 s   0.750
  Species O                   : Missing cutoff potential type.
  Defaulting to exp(1/x)/(1-x)^2 type cutoff potential.
  Species O : On-site basis accuracy parameter (for Gram-Schmidt orthonormalisation) not specified.
  Using default value basis_acc =  0.1000000E-03.
  Species O                   : Using default innermost maximum threshold i_radial=  2 for radial functions.
  Species O                   : Basic radial grid will be enhanced according to radial_multiplier =   2, to contain    73 grid points.
 
  Finished reading input file 'control.in'. Consistency checks are next.
 
  Target number of points in a grid batch is not set. Defaulting to  100
  Method for grid partitioning is not set. Defaulting to parallel hash+maxmin partitioning.
  Batch size limit is not set. Defaulting to    200
  By default, will store active basis functions for each batch.
  If in need of memory, prune_basis_once .false. can be used to disable this option.
  communication_type for Hartree potential was not specified.
  Defaulting to calc_hartree .
  Pulay mixer: Number of initial linear mixing iterations not set.
  Defaulting to    0 iterations.
  Work space size for distributed Hartree potential not set.
  Defaulting to   0.200000E+03 MB.
  Algorithm-dependent basis array size parameters:
  | n_max_pulay                         :       10
  Geometry relaxation not requested: no relaxation will be performed.
  Handling of forces: Unphysical translation and rotation will be removed from forces.
  No accuracy limit for integral partition fn. given. Defaulting to 0.1000E-14.
  No threshold value for u(r) in integrations given. Defaulting to 0.1000E-05.
  No accuracy for occupation numbers given. Defaulting to 0.1000E-07.
  No threshold value for occupation numbers given. Defaulting to 0.0000E+00.
  No accuracy for fermi level given. Defaulting to 0.1000E-19.
  Maximum # of iterations to find E_F not set. Defaulting to  200.
  Will not use alltoall communication since running on < 1024 CPUs.
  Partitioning for Hartree potential was not defined. Using partition_type for integrals.
  | Reporting present value of keyword multip_moments_threshold  :       0.10000000E-09
  | This value may affect high angular momentum components of the Hartree potential in periodic systems.
  No q(lm)/r^(l+1) cutoff set for long-range Hartree potential.
  | Using default value of  0.100000E-09 .
  | Verify using the multipole_threshold keyword.
  Defaulting to new monopole extrapolation.
  Density update method: Loop over occupied states selected for charge density update.
------------------------------------------------------------


------------------------------------------------------------
          Reading geometry description geometry.in.
------------------------------------------------------------
  Input structure read successfully.
  The structure contains        9 atoms,  and a total of         30.000 electrons.

  Input geometry:
  | No unit cell requested.
  | Atomic structure:
  |       Atom                x [A]            y [A]            z [A]
  |    1: Species O             -4.053030         0.065001        -1.525160
  |    2: Species H             -4.566710         0.974813        -1.912820
  |    3: Species H             -3.067820         0.330172        -1.477310
  |    4: Species O             -1.975360         2.858040         0.453140
  |    5: Species H             -1.223550         3.375850         0.786238
  |    6: Species H             -2.537520         2.567960         1.156120
  |    7: Species O             -5.628340         3.730740         1.385610
  |    8: Species H             -6.090650         4.418470         1.860350
  |    9: Species H             -5.158540         4.200260         0.615875
  |

  | The smallest distance between any two atoms is         0.94570141 AA.
  |
  | The first atom of this pair is atom number                      4 .
  | The second atom of this pair is atom number                     6 .

  Structure-dependent array size parameters: 
  | Maximum number of distinct radial functions  :       18
  | Maximum number of basis functions            :      207
  | Number of Kohn-Sham states (occupied + empty):       51
------------------------------------------------------------

------------------------------------------------------------
          Preparing all fixed parts of the calculation.
------------------------------------------------------------
  Determining machine precision:
    2.225073858507201E-308
  Setting up grids for atomic and cluster calculations.

  Creating wave function, potential, and density for free atoms.

  Species: H

  List of occupied orbitals and eigenvalues:
    n    l              occ      energy [Ha]    energy [eV]
    1    0           1.0000        -0.241408        -6.5691


  Species: O

  List of occupied orbitals and eigenvalues:
    n    l              occ      energy [Ha]    energy [eV]
    1    0           2.0000       -18.944147      -515.4965
    2    0           2.0000        -0.883529       -24.0421
    2    1           4.0000        -0.330176        -8.9845

  Creating fixed part of basis set: Ionic, confined, hydrogenic.
 
  H                    hydrogenic:
 
  List of hydrogenic basis orbitals: 
    n    l      effective z      eigenvalue [eV]  inner max. [A]     outer max. [A]     outer radius [A]   
    2    0         2.100000       -14.9965           0.193241           1.317192           5.372934
    2    1         3.500000       -41.6672           0.602363           0.602363           4.056010
    1    0         0.850000        -9.8292           0.624864           0.624864           5.372934
    2    1         3.700000       -46.5653           0.573616           0.573616           3.909951
    2    0         1.200000        -4.5995           0.334977           2.228160           5.505921
    3    2         7.000000       -74.0753           0.680692           0.680692           3.769152
 
 
  O                    hydrogenic:
 
  List of hydrogenic basis orbitals: 
    n    l      effective z      eigenvalue [eV]  inner max. [A]     outer max. [A]     outer radius [A]   
    2    1         1.800000       -11.0118           1.178546           1.178546           5.432516
    3    2         7.600000       -87.3182           0.624117           0.624117           3.541422
    3    0         6.400000       -61.9209           0.061166           1.081887           4.306510
    4    3        11.600000      -114.4238           0.731621           0.731621           3.584982
    3    1         6.200000       -58.1113           0.255677           1.030255           4.306510
    3    2         5.600000       -47.4081           0.847222           0.847222           4.413102
    5    4        17.600000      -168.5799           0.749730           0.749730           3.372413
    1    0         0.750000        -7.6499           0.705275           0.705275           5.366508
 

  Adding cutoff potential to free-atom effective potential.
  Creating atomic-like basis functions for current effective potential.

  Species H                   :

  List of atomic basis orbitals and eigenvalues:
    n    l      energy [Ha]    energy [eV]    outer radius [A]
    1    0        -0.241374        -6.5681       5.372934


  Species O                   :

  List of atomic basis orbitals and eigenvalues:
    n    l      energy [Ha]    energy [eV]    outer radius [A]
    1    0       -18.944147      -515.4965       1.415745
    2    0        -0.883529       -24.0421       5.048305
    2    1        -0.330173        -8.9845       5.301302

  Assembling full basis from fixed parts.
  | Species H :   atomic orbital   1 s accepted.
  | Species H :    hydro orbital   2 s accepted.
  | Species H :    hydro orbital   1 s accepted.
  | Species H :    hydro orbital   2 s accepted.
  | Species H :    hydro orbital   2 p accepted.
  | Species H :    hydro orbital   2 p accepted.
  | Species H :    hydro orbital   3 d accepted.
  | Species O :   atomic orbital   1 s accepted.
  | Species O :    hydro orbital   3 s accepted.
  | Species O :   atomic orbital   2 s accepted.
  | Species O :    hydro orbital   1 s accepted.
  | Species O :    hydro orbital   3 p accepted.
  | Species O :   atomic orbital   2 p accepted.
  | Species O :    hydro orbital   2 p accepted.
  | Species O :    hydro orbital   3 d accepted.
  | Species O :    hydro orbital   3 d accepted.
  | Species O :    hydro orbital   4 f accepted.
  | Species O :    hydro orbital   5 g accepted.
 
  Basis size parameters after reduction:
  | Total number of radial functions:       18
  | Total number of basis functions :      207
 
  Testing on-site integration grid accuracy.
  |  Species  Function  <phi|h_atom|phi> (log., in eV)  <phi|h_atom|phi> (rad., in eV)
           1        1                 -6.5683835025                 -6.5684759159
           1        2                 13.3711789951                 13.3708738703
           1        3                 23.6590910787                 23.6532055418
           1        4                 16.2963827186                 16.1870710655 ***
           1        5                 28.7627214838                 28.7627215090
           1        6                 59.5965249172                 59.5965950857
           1        7                 60.2220506392                 60.2220503827
           2        8               -515.4964576505               -515.4964530710
           2        9                 15.3030791347                 15.3030722972
           2       10                -21.7296094581                -21.7296135470
           2       11                 14.2969371730                 14.2969701621
           2       12                 21.0679693190                 21.0679697493
           2       13                 -2.3833606469                 -2.3833613176
           2       14                 13.7067136422                 13.7066766629
           2       15                 45.8013116808                 45.8013116965
           2       16                 52.2309815402                 52.2309831494
           2       17                 85.4120732416                 85.4120732763
           2       18                142.1019167745                142.1019167817
 * Note: Onsite integrals marked "***" above are less accurate than
 * onsite_accuracy_threshold =    0.03000 eV. Usually, this is harmless.
 * When in doubt, tighten the "radial" and/or "radial_multiplier" flags to check.

  Preparing densities etc. for the partition functions (integrals / Hartree potential).

  Preparations completed.
  max(cpu_time)          :      0.169 s.
  Wall clock time (cpu1) :      0.727 s.
------------------------------------------------------------

------------------------------------------------------------
          Begin self-consistency loop: Initialization.

          Date     :  20150727, Time     :  124119.648
------------------------------------------------------------

  Initializing index lists of integration centers etc. from given atomic structure:
  | Number of centers in hartree potential         :         9
  | Number of centers in hartree multipole         :         9
  | Number of centers in electron density summation:         9
  | Number of centers in basis integrals           :         9
  | Number of centers in integrals                 :         9
  Partitioning the integration grid into batches with parallel hashing+maxmin method.
  | Number of batches:     1119
  | Maximal batch size:     199
  | Minimal batch size:      49
  | Average batch size:     105.475
  | Standard deviation of batch sizes:      30.996

  Integration load balanced across     8 MPI tasks.
  Work distribution over tasks is as follows:
  Task     0 has      14699 integration points.
  Task     1 has      14695 integration points.
  Task     2 has      14742 integration points.
  Task     3 has      14858 integration points.
  Task     4 has      14731 integration points.
  Task     5 has      14868 integration points.
  Task     6 has      14673 integration points.
  Task     7 has      14760 integration points.
  Initializing partition tables, free-atom densities, potentials, etc. across the integration grid (initialize_grid_storage).
  | Net number of integration points:   118026
  | of which are non-zero points    :   117509
  Obtaining max. number of non-zero basis functions in each batch (get_n_compute_maxes).
  | Maximal number of non-zero basis functions:      205 in task     0
  | Maximal number of non-zero basis functions:      205 in task     1
  | Maximal number of non-zero basis functions:      205 in task     2
  | Maximal number of non-zero basis functions:      205 in task     3
  | Maximal number of non-zero basis functions:      205 in task     4
  | Maximal number of non-zero basis functions:      205 in task     5
  | Maximal number of non-zero basis functions:      205 in task     6
  | Maximal number of non-zero basis functions:      205 in task     7
  Integrating Hamiltonian matrix: batch-based integration.
  Time summed over all CPUs for integration: real work        2.109 s, elapsed        2.195 s
  Integrating overlap matrix.
  Time summed over all CPUs for integration: real work        1.071 s, elapsed        1.110 s

  Updating Kohn-Sham eigenvalues, eigenvectors, occupation numbers, and Fermi level.
  Solving generalized eigenproblem
  Updating Kohn-Sham eigenvalues and eigenfunctions.
  Transforming overlap matrix and checking for singularities.
  Overlap matrix is nonsingular:
  | Lowest eigenvalue:  0.464695E-03
  Solving real generalised eigenvalue problem by standard LAPACK (fast)
  Determining occupation numbers for Kohn-Sham eigenstates.
  | Chemical potential (Fermi level) in eV                 : -.82781993E+01
  | Error in electron count due to remaining E_F inaccuracy: 0.00000000E+00
  | Maximum occupation number of highest empty state:  0.00E+00

  Writing Kohn-Sham eigenvalues.

  State    Occupation    Eigenvalue [Ha]    Eigenvalue [eV]
      1       2.00000         -19.054456         -518.49814
      2       2.00000         -19.044507         -518.22739
      3       2.00000         -19.019187         -517.53840
      4       2.00000          -1.103366          -30.02411
      5       2.00000          -1.089089          -29.63562
      6       2.00000          -1.042750          -28.37466
      7       2.00000          -0.646545          -17.59338
      8       2.00000          -0.618247          -16.82336
      9       2.00000          -0.569540          -15.49797
     10       2.00000          -0.501586          -13.64885
     11       2.00000          -0.501069          -13.63479
     12       2.00000          -0.478836          -13.02980
     13       2.00000          -0.438069          -11.92046
     14       2.00000          -0.430102          -11.70368
     15       2.00000          -0.409175          -11.13421
     16       0.00000          -0.093015           -2.53107
     17       0.00000          -0.069741           -1.89775
     18       0.00000          -0.054211           -1.47516
     19       0.00000          -0.018956           -0.51583
     20       0.00000          -0.003019           -0.08215
     21       0.00000           0.001065            0.02899
     22       0.00000           0.075668            2.05904
     23       0.00000           0.082452            2.24362
     24       0.00000           0.093417            2.54200
     25       0.00000           0.099948            2.71972
     26       0.00000           0.105170            2.86183
     27       0.00000           0.112741            3.06785
     28       0.00000           0.120323            3.27415
     29       0.00000           0.126340            3.43788
     30       0.00000           0.143050            3.89259
     31       0.00000           0.159847            4.34966
     32       0.00000           0.189564            5.15830
     33       0.00000           0.202170            5.50133
     34       0.00000           0.231252            6.29268
     35       0.00000           0.252359            6.86703
     36       0.00000           0.257698            7.01231
     37       0.00000           0.316334            8.60789
     38       0.00000           0.328252            8.93218
     39       0.00000           0.342276            9.31381
     40       0.00000           0.371385           10.10590
     41       0.00000           0.399528           10.87171
     42       0.00000           0.405932           11.04598
     43       0.00000           0.413265           11.24551
     44       0.00000           0.428077           11.64856
     45       0.00000           0.438206           11.92419
     46       0.00000           0.447741           12.18366
     47       0.00000           0.466431           12.69224
     48       0.00000           0.487586           13.26789
     49       0.00000           0.505852           13.76494
     50       0.00000           0.555629           15.11944
     51       0.00000           0.566460           15.41416

  Highest occupied state (VBM) at    -11.13421126 eV
  | Occupation number:      2.00000000

  Lowest unoccupied state (CBM) at    -2.53106573 eV
  | Occupation number:      0.00000000

  Overall HOMO-LUMO gap:      8.60314553 eV.
  Calculating total energy contributions from superposition of free atom densities.

  Total energy components:
  | Sum of eigenvalues            :        -129.89304651 Ha       -3534.56963259 eV
  | XC energy correction          :         -27.27600494 Ha        -742.21785809 eV
  | XC potential correction       :          34.83974144 Ha         948.03760011 eV
  | Free-atom electrostatic energy:        -107.52021430 Ha       -2925.77389288 eV
  | Hartree energy correction     :           0.00000000 Ha           0.00000000 eV
  | van der Waals energy corr.    :           0.00000000 Ha           0.00000000 eV
  | Entropy correction            :           0.00000000 Ha           0.00000000 eV
  | ---------------------------
  | Total energy                  :        -229.84952432 Ha       -6254.52378345 eV
  | Total energy, T -> 0          :        -229.84952432 Ha       -6254.52378345 eV  <-- do not rely on this value for anything but (periodic) metals
  | Electronic free energy        :        -229.84952432 Ha       -6254.52378345 eV

  Derived energy quantities:
  | Kinetic energy                :         227.35580063 Ha        6186.66610931 eV
  | Electrostatic energy          :        -429.92932001 Ha      -11698.97203467 eV
  | Energy correction for multipole
  | error in Hartree potential    :           0.00000000 Ha           0.00000000 eV
  | Sum of eigenvalues per atom                           :        -392.72995918 eV
  | Total energy (T->0) per atom                          :        -694.94708705 eV  <-- do not rely on this value for anything but (periodic) metals
  | Electronic free energy per atom                       :        -694.94708705 eV
  Initialize hartree_potential_storage
  Max. number of atoms included in rho_multipole:            9

  End scf initialization - timings             :  max(cpu_time)    wall_clock(cpu1)
  | Time for scf. initialization               :        0.667 s           0.667 s
  | Boundary condition initialization          :        0.000 s           0.001 s
  | Integration                                :        0.414 s           0.415 s
  | Solution of K.-S. eqns.                    :        0.065 s           0.064 s
  | Grid partitioning                          :        0.093 s           0.092 s
  | Preloading free-atom quantities on grid    :        0.014 s           0.013 s
  | Free-atom superposition energy             :        0.029 s           0.030 s
  | Total energy evaluation                    :        0.001 s           0.000 s
------------------------------------------------------------

------------------------------------------------------------
          Begin self-consistency iteration #    1

  Date     :  20150727, Time     :  124120.315
------------------------------------------------------------
  Evaluating new KS density.
  Integration grid: deviation in total charge (<rho> - N_e) =  -3.552714E-15
  Pulay mixing of updated and previous charge densities.

  Evaluating partitioned Hartree potential by multipole expansion.
  | Analytical far-field extrapolation by fixed multipoles:
  | Hartree multipole sum: apparent total charge =  -0.118899E-05
  Summing up the Hartree potential.
  Time summed over all CPUs for potential: real work        0.942 s, elapsed        0.952 s
  | RMS charge density error from multipole expansion :   0.122884E-02

  Integrating Hamiltonian matrix: batch-based integration.
  Time summed over all CPUs for integration: real work        2.100 s, elapsed        2.174 s

  Updating Kohn-Sham eigenvalues, eigenvectors, occupation numbers, and Fermi level.
  Solving generalized eigenproblem
  Updating Kohn-Sham eigenvalues and eigenfunctions.
  Solving real generalised eigenvalue problem by standard LAPACK (fast)
  Determining occupation numbers for Kohn-Sham eigenstates.
  | Chemical potential (Fermi level) in eV                 : -.78894174E+01
  | Error in electron count due to remaining E_F inaccuracy: 0.00000000E+00
  | Maximum occupation number of highest empty state:  0.00E+00

  Writing Kohn-Sham eigenvalues.

  State    Occupation    Eigenvalue [Ha]    Eigenvalue [eV]
      1       2.00000         -18.975206         -516.34163
      2       2.00000         -18.967662         -516.13635
      3       2.00000         -18.944994         -515.51951
      4       2.00000          -1.064780          -28.97415
      5       2.00000          -1.051528          -28.61352
      6       2.00000          -1.004541          -27.33494
      7       2.00000          -0.613443          -16.69264
      8       2.00000          -0.586345          -15.95526
      9       2.00000          -0.538108          -14.64266
     10       2.00000          -0.463706          -12.61808
     11       2.00000          -0.462130          -12.57521
     12       2.00000          -0.441576          -12.01591
     13       2.00000          -0.397831          -10.82553
     14       2.00000          -0.390527          -10.62678
     15       2.00000          -0.369069          -10.04289
     16       0.00000          -0.084865           -2.30929
     17       0.00000          -0.061718           -1.67942
     18       0.00000          -0.047329           -1.28788
     19       0.00000          -0.009907           -0.26957
     20       0.00000           0.004402            0.11978
     21       0.00000           0.008198            0.22309
     22       0.00000           0.083205            2.26411
     23       0.00000           0.091288            2.48407
     24       0.00000           0.101588            2.76436
     25       0.00000           0.108191            2.94403
     26       0.00000           0.112921            3.07274
     27       0.00000           0.118413            3.22218
     28       0.00000           0.127650            3.47352
     29       0.00000           0.135020            3.67408
     30       0.00000           0.151040            4.11000
     31       0.00000           0.168208            4.57716
     32       0.00000           0.196512            5.34736
     33       0.00000           0.209321            5.69592
     34       0.00000           0.239067            6.50535
     35       0.00000           0.260852            7.09813
     36       0.00000           0.266294            7.24622
     37       0.00000           0.323311            8.79775
     38       0.00000           0.335274            9.12326
     39       0.00000           0.350038            9.52502
     40       0.00000           0.377724           10.27840
     41       0.00000           0.407628           11.09213
     42       0.00000           0.414949           11.29134
     43       0.00000           0.422335           11.49232
     44       0.00000           0.436586           11.88011
     45       0.00000           0.447325           12.17234
     46       0.00000           0.457084           12.43789
     47       0.00000           0.476586           12.96857
     48       0.00000           0.498029           13.55207
     49       0.00000           0.516881           14.06504
     50       0.00000           0.567905           15.45349
     51       0.00000           0.577731           15.72086

  Highest occupied state (VBM) at    -10.04288997 eV
  | Occupation number:      2.00000000

  Lowest unoccupied state (CBM) at    -2.30928609 eV
  | Occupation number:      0.00000000

  Overall HOMO-LUMO gap:      7.73360388 eV.

  Total energy components:
  | Sum of eigenvalues            :        -128.54289289 Ha       -3497.83008310 eV
  | XC energy correction          :         -27.42621068 Ha        -746.30516409 eV
  | XC potential correction       :          35.03702149 Ha         953.40586362 eV
  | Free-atom electrostatic energy:        -107.52021430 Ha       -2925.77389288 eV
  | Hartree energy correction     :          -1.30521802 Ha         -35.51678951 eV
  | van der Waals energy corr.    :           0.00000000 Ha           0.00000000 eV
  | Entropy correction            :           0.00000000 Ha           0.00000000 eV
  | ---------------------------
  | Total energy                  :        -229.75751439 Ha       -6252.02006596 eV
  | Total energy, T -> 0          :        -229.75751439 Ha       -6252.02006596 eV  <-- do not rely on this value for anything but (periodic) metals
  | Electronic free energy        :        -229.75751439 Ha       -6252.02006596 eV

  Derived energy quantities:
  | Kinetic energy                :         228.23972855 Ha        6210.71901164 eV
  | Electrostatic energy          :        -430.57103226 Ha      -11716.43391350 eV
  | Energy correction for multipole
  | error in Hartree potential    :          -0.00012322 Ha          -0.00335290 eV
  | Sum of eigenvalues per atom                           :        -388.64778701 eV
  | Total energy (T->0) per atom                          :        -694.66889622 eV  <-- do not rely on this value for anything but (periodic) metals
  | Electronic free energy per atom                       :        -694.66889622 eV

  Self-consistency convergence accuracy:
  | Change of charge density      : 0.5262E+00
  | Change of sum of eigenvalues  : 0.3674E+02 eV
  | Change of total energy        : 0.2504E+01 eV

  End self-consistency iteration #     1       :  max(cpu_time)    wall_clock(cpu1)
  | Time for this iteration                    :        0.620 s           0.620 s
  | Charge density update                      :        0.205 s           0.205 s
  | Density mixing                             :        0.002 s           0.002 s
  | Hartree multipole update                   :        0.004 s           0.004 s
  | Hartree multipole summation                :        0.120 s           0.120 s
  | Integration                                :        0.272 s           0.272 s
  | Solution of K.-S. eqns.                    :        0.017 s           0.017 s
  | Total energy evaluation                    :        0.000 s           0.000 s
------------------------------------------------------------

------------------------------------------------------------
          Begin self-consistency iteration #    2

  Date     :  20150727, Time     :  124120.935
------------------------------------------------------------
  Evaluating new KS density.
  Integration grid: deviation in total charge (<rho> - N_e) =   7.105427E-15
  Pulay mixing of updated and previous charge densities.

  Evaluating partitioned Hartree potential by multipole expansion.
  | Analytical far-field extrapolation by fixed multipoles:
  | Hartree multipole sum: apparent total charge =  -0.332815E-05
  Summing up the Hartree potential.
  Time summed over all CPUs for potential: real work        0.941 s, elapsed        0.952 s
  | RMS charge density error from multipole expansion :   0.482273E-02

  Integrating Hamiltonian matrix: batch-based integration.
  Time summed over all CPUs for integration: real work        2.094 s, elapsed        2.158 s

  Updating Kohn-Sham eigenvalues, eigenvectors, occupation numbers, and Fermi level.
  Solving generalized eigenproblem
  Updating Kohn-Sham eigenvalues and eigenfunctions.
  Solving real generalised eigenvalue problem by standard LAPACK (fast)
  Determining occupation numbers for Kohn-Sham eigenstates.
  | Chemical potential (Fermi level) in eV                 : -.71253828E+01
  | Error in electron count due to remaining E_F inaccuracy: 0.00000000E+00
  | Maximum occupation number of highest empty state:  0.00E+00

  Highest occupied state (VBM) at     -7.60140451 eV
  | Occupation number:      2.00000000

  Lowest unoccupied state (CBM) at    -1.79879353 eV
  | Occupation number:      0.00000000

  Overall HOMO-LUMO gap:      5.80261098 eV.

  Total energy components:
  | Sum of eigenvalues            :        -125.49987737 Ha       -3415.02541776 eV
  | XC energy correction          :         -27.78111513 Ha        -755.96260560 eV
  | XC potential correction       :          35.50289807 Ha         966.08301031 eV
  | Free-atom electrostatic energy:        -107.52021430 Ha       -2925.77389288 eV
  | Hartree energy correction     :          -4.35764599 Ha        -118.57758057 eV
  | van der Waals energy corr.    :           0.00000000 Ha           0.00000000 eV
  | Entropy correction            :           0.00000000 Ha           0.00000000 eV
  | ---------------------------
  | Total energy                  :        -229.65595472 Ha       -6249.25648650 eV
  | Total energy, T -> 0          :        -229.65595472 Ha       -6249.25648650 eV  <-- do not rely on this value for anything but (periodic) metals
  | Electronic free energy        :        -229.65595472 Ha       -6249.25648650 eV

  Derived energy quantities:
  | Kinetic energy                :         229.93367321 Ha        6256.81359108 eV
  | Electrostatic energy          :        -431.80851279 Ha      -11750.10747198 eV
  | Energy correction for multipole
  | error in Hartree potential    :          -0.00085472 Ha          -0.02325822 eV
  | Sum of eigenvalues per atom                           :        -379.44726864 eV
  | Total energy (T->0) per atom                          :        -694.36183183 eV  <-- do not rely on this value for anything but (periodic) metals
  | Electronic free energy per atom                       :        -694.36183183 eV

  Self-consistency convergence accuracy:
  | Change of charge density      : 0.3961E+00
  | Change of sum of eigenvalues  : 0.8280E+02 eV
  | Change of total energy        : 0.2764E+01 eV

  End self-consistency iteration #     2       :  max(cpu_time)    wall_clock(cpu1)
  | Time for this iteration                    :        0.618 s           0.618 s
  | Charge density update                      :        0.205 s           0.205 s
  | Density mixing                             :        0.003 s           0.003 s
  | Hartree multipole update                   :        0.004 s           0.004 s
  | Hartree multipole summation                :        0.119 s           0.119 s
  | Integration                                :        0.271 s           0.271 s
  | Solution of K.-S. eqns.                    :        0.016 s           0.016 s
  | Total energy evaluation                    :        0.000 s           0.000 s
------------------------------------------------------------

------------------------------------------------------------
          Begin self-consistency iteration #    3

  Date     :  20150727, Time     :  124121.553
------------------------------------------------------------
  Evaluating new KS density.
  Integration grid: deviation in total charge (<rho> - N_e) =  -1.065814E-14
  Pulay mixing of updated and previous charge densities.

  Evaluating partitioned Hartree potential by multipole expansion.
  | Analytical far-field extrapolation by fixed multipoles:
  | Hartree multipole sum: apparent total charge =  -0.309760E-05
  Summing up the Hartree potential.
  Time summed over all CPUs for potential: real work        0.941 s, elapsed        0.952 s
  | RMS charge density error from multipole expansion :   0.100649E-01

  Integrating Hamiltonian matrix: batch-based integration.
  Time summed over all CPUs for integration: real work        2.092 s, elapsed        2.160 s

  Updating Kohn-Sham eigenvalues, eigenvectors, occupation numbers, and Fermi level.
  Solving generalized eigenproblem
  Updating Kohn-Sham eigenvalues and eigenfunctions.
  Solving real generalised eigenvalue problem by standard LAPACK (fast)
  Determining occupation numbers for Kohn-Sham eigenstates.
  | Chemical potential (Fermi level) in eV                 : -.66719316E+01
  | Error in electron count due to remaining E_F inaccuracy: 0.00000000E+00
  | Maximum occupation number of highest empty state:  0.00E+00

  Highest occupied state (VBM) at     -7.71709316 eV
  | Occupation number:      2.00000000

  Lowest unoccupied state (CBM) at    -1.66179659 eV
  | Occupation number:      0.00000000

  Overall HOMO-LUMO gap:      6.05529657 eV.

  Total energy components:
  | Sum of eigenvalues            :        -125.71747100 Ha       -3420.94644170 eV
  | XC energy correction          :         -27.75912206 Ha        -755.36414377 eV
  | XC potential correction       :          35.47184255 Ha         965.23794666 eV
  | Free-atom electrostatic energy:        -107.52021430 Ha       -2925.77389288 eV
  | Hartree energy correction     :          -4.12871999 Ha        -112.34818704 eV
  | van der Waals energy corr.    :           0.00000000 Ha           0.00000000 eV
  | Entropy correction            :           0.00000000 Ha           0.00000000 eV
  | ---------------------------
  | Total energy                  :        -229.65368479 Ha       -6249.19471872 eV
  | Total energy, T -> 0          :        -229.65368479 Ha       -6249.19471872 eV  <-- do not rely on this value for anything but (periodic) metals
  | Electronic free energy        :        -229.65368479 Ha       -6249.19471872 eV

  Derived energy quantities:
  | Kinetic energy                :         228.62773400 Ha        6221.27717733 eV
  | Electrostatic energy          :        -430.52229674 Ha      -11715.10775228 eV
  | Energy correction for multipole
  | error in Hartree potential    :          -0.00346035 Ha          -0.09416101 eV
  | Sum of eigenvalues per atom                           :        -380.10516019 eV
  | Total energy (T->0) per atom                          :        -694.35496875 eV  <-- do not rely on this value for anything but (periodic) metals
  | Electronic free energy per atom                       :        -694.35496875 eV

  Self-consistency convergence accuracy:
  | Change of charge density      : 0.2043E+00
  | Change of sum of eigenvalues  : -.5921E+01 eV
  | Change of total energy        : 0.6177E-01 eV

  End self-consistency iteration #     3       :  max(cpu_time)    wall_clock(cpu1)
  | Time for this iteration                    :        0.617 s           0.618 s
  | Charge density update                      :        0.202 s           0.203 s
  | Density mixing                             :        0.004 s           0.004 s
  | Hartree multipole update                   :        0.003 s           0.004 s
  | Hartree multipole summation                :        0.120 s           0.120 s
  | Integration                                :        0.270 s           0.270 s
  | Solution of K.-S. eqns.                    :        0.017 s           0.017 s
  | Total energy evaluation                    :        0.000 s           0.000 s
------------------------------------------------------------

------------------------------------------------------------
          Begin self-consistency iteration #    4

  Date     :  20150727, Time     :  124122.171
------------------------------------------------------------
  Evaluating new KS density.
  Integration grid: deviation in total charge (<rho> - N_e) =   1.065814E-14
  Pulay mixing of updated and previous charge densities.

  Evaluating partitioned Hartree potential by multipole expansion.
  | Analytical far-field extrapolation by fixed multipoles:
  | Hartree multipole sum: apparent total charge =  -0.375240E-05
  Summing up the Hartree potential.
  Time summed over all CPUs for potential: real work        0.941 s, elapsed        0.952 s
  | RMS charge density error from multipole expansion :   0.129588E-01

  Integrating Hamiltonian matrix: batch-based integration.
  Time summed over all CPUs for integration: real work        2.084 s, elapsed        2.159 s

  Updating Kohn-Sham eigenvalues, eigenvectors, occupation numbers, and Fermi level.
  Solving generalized eigenproblem
  Updating Kohn-Sham eigenvalues and eigenfunctions.
  Solving real generalised eigenvalue problem by standard LAPACK (fast)
  Determining occupation numbers for Kohn-Sham eigenstates.
  | Chemical potential (Fermi level) in eV                 : -.62567886E+01
  | Error in electron count due to remaining E_F inaccuracy: 0.00000000E+00
  | Maximum occupation number of highest empty state:  0.00E+00

  Highest occupied state (VBM) at     -6.82071619 eV
  | Occupation number:      2.00000000

  Lowest unoccupied state (CBM) at    -1.44414598 eV
  | Occupation number:      0.00000000

  Overall HOMO-LUMO gap:      5.37657021 eV.

  Total energy components:
  | Sum of eigenvalues            :        -124.70781205 Ha       -3393.47222387 eV
  | XC energy correction          :         -27.89041457 Ha        -758.93679470 eV
  | XC potential correction       :          35.64401489 Ha         969.92299423 eV
  | Free-atom electrostatic energy:        -107.52021430 Ha       -2925.77389288 eV
  | Hartree energy correction     :          -5.17122831 Ha        -140.71628201 eV
  | van der Waals energy corr.    :           0.00000000 Ha           0.00000000 eV
  | Entropy correction            :           0.00000000 Ha           0.00000000 eV
  | ---------------------------
  | Total energy                  :        -229.64565435 Ha       -6248.97619923 eV
  | Total energy, T -> 0          :        -229.64565435 Ha       -6248.97619923 eV  <-- do not rely on this value for anything but (periodic) metals
  | Electronic free energy        :        -229.64565435 Ha       -6248.97619923 eV

  Derived energy quantities:
  | Kinetic energy                :         228.80514492 Ha        6226.10477411 eV
  | Electrostatic energy          :        -430.56038470 Ha      -11716.14417864 eV
  | Energy correction for multipole
  | error in Hartree potential    :          -0.00453105 Ha          -0.12329610 eV
  | Sum of eigenvalues per atom                           :        -377.05246932 eV
  | Total energy (T->0) per atom                          :        -694.33068880 eV  <-- do not rely on this value for anything but (periodic) metals
  | Electronic free energy per atom                       :        -694.33068880 eV

  Self-consistency convergence accuracy:
  | Change of charge density      : 0.1140E+00
  | Change of sum of eigenvalues  : 0.2747E+02 eV
  | Change of total energy        : 0.2185E+00 eV

  End self-consistency iteration #     4       :  max(cpu_time)    wall_clock(cpu1)
  | Time for this iteration                    :        0.619 s           0.619 s
  | Charge density update                      :        0.204 s           0.203 s
  | Density mixing                             :        0.004 s           0.005 s
  | Hartree multipole update                   :        0.004 s           0.004 s
  | Hartree multipole summation                :        0.120 s           0.119 s
  | Integration                                :        0.270 s           0.271 s
  | Solution of K.-S. eqns.                    :        0.017 s           0.016 s
  | Total energy evaluation                    :        0.000 s           0.001 s
------------------------------------------------------------

------------------------------------------------------------
          Begin self-consistency iteration #    5

  Date     :  20150727, Time     :  124122.790
------------------------------------------------------------
  Evaluating new KS density.
  Integration grid: deviation in total charge (<rho> - N_e) =  -3.552714E-15
  Pulay mixing of updated and previous charge densities.

  Evaluating partitioned Hartree potential by multipole expansion.
  | Analytical far-field extrapolation by fixed multipoles:
  | Hartree multipole sum: apparent total charge =  -0.370435E-05
  Summing up the Hartree potential.
  Time summed over all CPUs for potential: real work        0.941 s, elapsed        0.952 s
  | RMS charge density error from multipole expansion :   0.133427E-01

  Integrating Hamiltonian matrix: batch-based integration.
  Time summed over all CPUs for integration: real work        2.087 s, elapsed        2.156 s

  Updating Kohn-Sham eigenvalues, eigenvectors, occupation numbers, and Fermi level.
  Solving generalized eigenproblem
  Updating Kohn-Sham eigenvalues and eigenfunctions.
  Solving real generalised eigenvalue problem by standard LAPACK (fast)
  Determining occupation numbers for Kohn-Sham eigenstates.
  | Chemical potential (Fermi level) in eV                 : -.62613189E+01
  | Error in electron count due to remaining E_F inaccuracy: 0.00000000E+00
  | Maximum occupation number of highest empty state:  0.00E+00

  Highest occupied state (VBM) at     -6.61272278 eV
  | Occupation number:      2.00000000

  Lowest unoccupied state (CBM) at    -1.43474740 eV
  | Occupation number:      0.00000000

  Overall HOMO-LUMO gap:      5.17797538 eV.

  Total energy components:
  | Sum of eigenvalues            :        -124.69765887 Ha       -3393.19594168 eV
  | XC energy correction          :         -27.89235816 Ha        -758.98968253 eV
  | XC potential correction       :          35.64634825 Ha         969.98648819 eV
  | Free-atom electrostatic energy:        -107.52021430 Ha       -2925.77389288 eV
  | Hartree energy correction     :          -5.18150965 Ha        -140.99605126 eV
  | van der Waals energy corr.    :           0.00000000 Ha           0.00000000 eV
  | Entropy correction            :           0.00000000 Ha           0.00000000 eV
  | ---------------------------
  | Total energy                  :        -229.64539273 Ha       -6248.96908016 eV
  | Total energy, T -> 0          :        -229.64539273 Ha       -6248.96908016 eV  <-- do not rely on this value for anything but (periodic) metals
  | Electronic free energy        :        -229.64539273 Ha       -6248.96908016 eV

  Derived energy quantities:
  | Kinetic energy                :         228.78905191 Ha        6225.66686094 eV
  | Electrostatic energy          :        -430.54208648 Ha      -11715.64625857 eV
  | Energy correction for multipole
  | error in Hartree potential    :          -0.00458505 Ha          -0.12476567 eV
  | Sum of eigenvalues per atom                           :        -377.02177130 eV
  | Total energy (T->0) per atom                          :        -694.32989780 eV  <-- do not rely on this value for anything but (periodic) metals
  | Electronic free energy per atom                       :        -694.32989780 eV

  Self-consistency convergence accuracy:
  | Change of charge density      : 0.2682E-01
  | Change of sum of eigenvalues  : 0.2763E+00 eV
  | Change of total energy        : 0.7119E-02 eV

  End self-consistency iteration #     5       :  max(cpu_time)    wall_clock(cpu1)
  | Time for this iteration                    :        0.618 s           0.618 s
  | Charge density update                      :        0.203 s           0.202 s
  | Density mixing                             :        0.005 s           0.006 s
  | Hartree multipole update                   :        0.004 s           0.003 s
  | Hartree multipole summation                :        0.119 s           0.120 s
  | Integration                                :        0.271 s           0.270 s
  | Solution of K.-S. eqns.                    :        0.016 s           0.017 s
  | Total energy evaluation                    :        0.000 s           0.000 s
------------------------------------------------------------

------------------------------------------------------------
          Begin self-consistency iteration #    6

  Date     :  20150727, Time     :  124123.408
------------------------------------------------------------
  Evaluating new KS density.
  Integration grid: deviation in total charge (<rho> - N_e) =   7.105427E-15
  Pulay mixing of updated and previous charge densities.

  Evaluating partitioned Hartree potential by multipole expansion.
  | Analytical far-field extrapolation by fixed multipoles:
  | Hartree multipole sum: apparent total charge =  -0.373202E-05
  Summing up the Hartree potential.
  Time summed over all CPUs for potential: real work        0.941 s, elapsed        0.951 s
  | RMS charge density error from multipole expansion :   0.136017E-01

  Integrating Hamiltonian matrix: batch-based integration.
  Time summed over all CPUs for integration: real work        2.086 s, elapsed        2.161 s

  Updating Kohn-Sham eigenvalues, eigenvectors, occupation numbers, and Fermi level.
  Solving generalized eigenproblem
  Updating Kohn-Sham eigenvalues and eigenfunctions.
  Solving real generalised eigenvalue problem by standard LAPACK (fast)
  Determining occupation numbers for Kohn-Sham eigenstates.
  | Chemical potential (Fermi level) in eV                 : -.62296551E+01
  | Error in electron count due to remaining E_F inaccuracy: 0.00000000E+00
  | Maximum occupation number of highest empty state:  0.00E+00

  Highest occupied state (VBM) at     -6.57598019 eV
  | Occupation number:      2.00000000

  Lowest unoccupied state (CBM) at    -1.41755701 eV
  | Occupation number:      0.00000000

  Overall HOMO-LUMO gap:      5.15842318 eV.

  Total energy components:
  | Sum of eigenvalues            :        -124.63442673 Ha       -3391.47530776 eV
  | XC energy correction          :         -27.90098775 Ha        -759.22450567 eV
  | XC potential correction       :          35.65763855 Ha         970.29371298 eV
  | Free-atom electrostatic energy:        -107.52021430 Ha       -2925.77389288 eV
  | Hartree energy correction     :          -5.24747608 Ha        -142.79108926 eV
  | van der Waals energy corr.    :           0.00000000 Ha           0.00000000 eV
  | Entropy correction            :           0.00000000 Ha           0.00000000 eV
  | ---------------------------
  | Total energy                  :        -229.64546632 Ha       -6248.97108258 eV
  | Total energy, T -> 0          :        -229.64546632 Ha       -6248.97108258 eV  <-- do not rely on this value for anything but (periodic) metals
  | Electronic free energy        :        -229.64546632 Ha       -6248.97108258 eV

  Derived energy quantities:
  | Kinetic energy                :         228.79223269 Ha        6225.75341429 eV
  | Electrostatic energy          :        -430.53671125 Ha      -11715.49999121 eV
  | Energy correction for multipole
  | error in Hartree potential    :          -0.00467167 Ha          -0.12712262 eV
  | Sum of eigenvalues per atom                           :        -376.83058975 eV
  | Total energy (T->0) per atom                          :        -694.33012029 eV  <-- do not rely on this value for anything but (periodic) metals
  | Electronic free energy per atom                       :        -694.33012029 eV

  Self-consistency convergence accuracy:
  | Change of charge density      : 0.6539E-02
  | Change of sum of eigenvalues  : 0.1721E+01 eV
  | Change of total energy        : -.2002E-02 eV

  End self-consistency iteration #     6       :  max(cpu_time)    wall_clock(cpu1)
  | Time for this iteration                    :        0.621 s           0.621 s
  | Charge density update                      :        0.204 s           0.204 s
  | Density mixing                             :        0.006 s           0.006 s
  | Hartree multipole update                   :        0.003 s           0.004 s
  | Hartree multipole summation                :        0.120 s           0.119 s
  | Integration                                :        0.270 s           0.271 s
  | Solution of K.-S. eqns.                    :        0.016 s           0.016 s
  | Total energy evaluation                    :        0.000 s           0.001 s
------------------------------------------------------------

------------------------------------------------------------
          Begin self-consistency iteration #    7

  Date     :  20150727, Time     :  124124.029
------------------------------------------------------------
  Evaluating new KS density.
  Integration grid: deviation in total charge (<rho> - N_e) =   0.000000E+00
  Pulay mixing of updated and previous charge densities.

  Evaluating partitioned Hartree potential by multipole expansion.
  | Analytical far-field extrapolation by fixed multipoles:
  | Hartree multipole sum: apparent total charge =  -0.358979E-05
  Summing up the Hartree potential.
  Time summed over all CPUs for potential: real work        0.941 s, elapsed        0.951 s
  | RMS charge density error from multipole expansion :   0.135773E-01

  Integrating Hamiltonian matrix: batch-based integration.
  Time summed over all CPUs for integration: real work        2.087 s, elapsed        2.162 s

  Updating Kohn-Sham eigenvalues, eigenvectors, occupation numbers, and Fermi level.
  Solving generalized eigenproblem
  Updating Kohn-Sham eigenvalues and eigenfunctions.
  Solving real generalised eigenvalue problem by standard LAPACK (fast)
  Determining occupation numbers for Kohn-Sham eigenstates.
  | Chemical potential (Fermi level) in eV                 : -.62764856E+01
  | Error in electron count due to remaining E_F inaccuracy: 0.00000000E+00
  | Maximum occupation number of highest empty state:  0.00E+00

  Highest occupied state (VBM) at     -6.65355825 eV
  | Occupation number:      2.00000000

  Lowest unoccupied state (CBM) at    -1.44061337 eV
  | Occupation number:      0.00000000

  Overall HOMO-LUMO gap:      5.21294488 eV.

  Total energy components:
  | Sum of eigenvalues            :        -124.72253916 Ha       -3393.87296900 eV
  | XC energy correction          :         -27.88884405 Ha        -758.89405861 eV
  | XC potential correction       :          35.64141045 Ha         969.85212396 eV
  | Free-atom electrostatic energy:        -107.52021430 Ha       -2925.77389288 eV
  | Hartree energy correction     :          -5.15519825 Ha        -140.28008184 eV
  | van der Waals energy corr.    :           0.00000000 Ha           0.00000000 eV
  | Entropy correction            :           0.00000000 Ha           0.00000000 eV
  | ---------------------------
  | Total energy                  :        -229.64538531 Ha       -6248.96887837 eV
  | Total energy, T -> 0          :        -229.64538531 Ha       -6248.96887837 eV  <-- do not rely on this value for anything but (periodic) metals
  | Electronic free energy        :        -229.64538531 Ha       -6248.96887837 eV

  Derived energy quantities:
  | Kinetic energy                :         228.82097384 Ha        6226.53550083 eV
  | Electrostatic energy          :        -430.57751511 Ha      -11716.61032059 eV
  | Energy correction for multipole
  | error in Hartree potential    :          -0.00448985 Ha          -0.12217510 eV
  | Sum of eigenvalues per atom                           :        -377.09699656 eV
  | Total energy (T->0) per atom                          :        -694.32987537 eV  <-- do not rely on this value for anything but (periodic) metals
  | Electronic free energy per atom                       :        -694.32987537 eV

  Self-consistency convergence accuracy:
  | Change of charge density      : 0.8901E-02
  | Change of sum of eigenvalues  : -.2398E+01 eV
  | Change of total energy        : 0.2204E-02 eV

  End self-consistency iteration #     7       :  max(cpu_time)    wall_clock(cpu1)
  | Time for this iteration                    :        0.623 s           0.622 s
  | Charge density update                      :        0.204 s           0.204 s
  | Density mixing                             :        0.007 s           0.007 s
  | Hartree multipole update                   :        0.004 s           0.003 s
  | Hartree multipole summation                :        0.120 s           0.120 s
  | Integration                                :        0.270 s           0.271 s
  | Solution of K.-S. eqns.                    :        0.016 s           0.016 s
  | Total energy evaluation                    :        0.000 s           0.001 s
------------------------------------------------------------

------------------------------------------------------------
          Begin self-consistency iteration #    8

  Date     :  20150727, Time     :  124124.651
------------------------------------------------------------
  Evaluating new KS density.
  Integration grid: deviation in total charge (<rho> - N_e) =   0.000000E+00
  Pulay mixing of updated and previous charge densities.

  Evaluating partitioned Hartree potential by multipole expansion.
  | Analytical far-field extrapolation by fixed multipoles:
  | Hartree multipole sum: apparent total charge =  -0.358620E-05
  Summing up the Hartree potential.
  Time summed over all CPUs for potential: real work        0.941 s, elapsed        0.951 s
  | RMS charge density error from multipole expansion :   0.135964E-01

  Integrating Hamiltonian matrix: batch-based integration.
  Time summed over all CPUs for integration: real work        2.085 s, elapsed        2.162 s

  Updating Kohn-Sham eigenvalues, eigenvectors, occupation numbers, and Fermi level.
  Solving generalized eigenproblem
  Updating Kohn-Sham eigenvalues and eigenfunctions.
  Solving real generalised eigenvalue problem by standard LAPACK (fast)
  Determining occupation numbers for Kohn-Sham eigenstates.
  | Chemical potential (Fermi level) in eV                 : -.62765861E+01
  | Error in electron count due to remaining E_F inaccuracy: 0.00000000E+00
  | Maximum occupation number of highest empty state:  0.00E+00

  Highest occupied state (VBM) at     -6.64920734 eV
  | Occupation number:      2.00000000

  Lowest unoccupied state (CBM) at    -1.44019362 eV
  | Occupation number:      0.00000000

  Overall HOMO-LUMO gap:      5.20901372 eV.

  Total energy components:
  | Sum of eigenvalues            :        -124.72169877 Ha       -3393.85010073 eV
  | XC energy correction          :         -27.88901808 Ha        -758.89879422 eV
  | XC potential correction       :          35.64162491 Ha         969.85795970 eV
  | Free-atom electrostatic energy:        -107.52021430 Ha       -2925.77389288 eV
  | Hartree energy correction     :          -5.15607941 Ha        -140.30405946 eV
  | van der Waals energy corr.    :           0.00000000 Ha           0.00000000 eV
  | Entropy correction            :           0.00000000 Ha           0.00000000 eV
  | ---------------------------
  | Total energy                  :        -229.64538565 Ha       -6248.96888759 eV
  | Total energy, T -> 0          :        -229.64538565 Ha       -6248.96888759 eV  <-- do not rely on this value for anything but (periodic) metals
  | Electronic free energy        :        -229.64538565 Ha       -6248.96888759 eV

  Derived energy quantities:
  | Kinetic energy                :         228.82151252 Ha        6226.55015915 eV
  | Electrostatic energy          :        -430.57788010 Ha      -11716.62025253 eV
  | Energy correction for multipole
  | error in Hartree potential    :          -0.00448912 Ha          -0.12215504 eV
  | Sum of eigenvalues per atom                           :        -377.09445564 eV
  | Total energy (T->0) per atom                          :        -694.32987640 eV  <-- do not rely on this value for anything but (periodic) metals
  | Electronic free energy per atom                       :        -694.32987640 eV

  Self-consistency convergence accuracy:
  | Change of charge density      : 0.8560E-03
  | Change of sum of eigenvalues  : 0.2287E-01 eV
  | Change of total energy        : -.9226E-05 eV

  End self-consistency iteration #     8       :  max(cpu_time)    wall_clock(cpu1)
  | Time for this iteration                    :        0.622 s           0.623 s
  | Charge density update                      :        0.203 s           0.204 s
  | Density mixing                             :        0.008 s           0.008 s
  | Hartree multipole update                   :        0.004 s           0.003 s
  | Hartree multipole summation                :        0.120 s           0.120 s
  | Integration                                :        0.271 s           0.271 s
  | Solution of K.-S. eqns.                    :        0.016 s           0.016 s
  | Total energy evaluation                    :        0.000 s           0.000 s
------------------------------------------------------------

------------------------------------------------------------
          Begin self-consistency iteration #    9

  Date     :  20150727, Time     :  124125.274
------------------------------------------------------------
  Evaluating new KS density.
  Integration grid: deviation in total charge (<rho> - N_e) =  -1.065814E-14
  Pulay mixing of updated and previous charge densities.

  Evaluating partitioned Hartree potential by multipole expansion.
  | Analytical far-field extrapolation by fixed multipoles:
  | Hartree multipole sum: apparent total charge =  -0.357949E-05
  Summing up the Hartree potential.
  Time summed over all CPUs for potential: real work        0.941 s, elapsed        0.951 s
  | RMS charge density error from multipole expansion :   0.135867E-01

  Integrating Hamiltonian matrix: batch-based integration.
  Time summed over all CPUs for integration: real work        2.081 s, elapsed        2.157 s

  Updating Kohn-Sham eigenvalues, eigenvectors, occupation numbers, and Fermi level.
  Solving generalized eigenproblem
  Updating Kohn-Sham eigenvalues and eigenfunctions.
  Solving real generalised eigenvalue problem by standard LAPACK (fast)
  Determining occupation numbers for Kohn-Sham eigenstates.
  | Chemical potential (Fermi level) in eV                 : -.62781399E+01
  | Error in electron count due to remaining E_F inaccuracy: 0.00000000E+00
  | Maximum occupation number of highest empty state:  0.00E+00

  Highest occupied state (VBM) at     -6.65512567 eV
  | Occupation number:      2.00000000

  Lowest unoccupied state (CBM) at    -1.44136547 eV
  | Occupation number:      0.00000000

  Overall HOMO-LUMO gap:      5.21376020 eV.

  Total energy components:
  | Sum of eigenvalues            :        -124.72540237 Ha       -3393.95088088 eV
  | XC energy correction          :         -27.88853787 Ha        -758.88572719 eV
  | XC potential correction       :          35.64098532 Ha         969.84055558 eV
  | Free-atom electrostatic energy:        -107.52021430 Ha       -2925.77389288 eV
  | Hartree energy correction     :          -5.15221556 Ha        -140.19891875 eV
  | van der Waals energy corr.    :           0.00000000 Ha           0.00000000 eV
  | Entropy correction            :           0.00000000 Ha           0.00000000 eV
  | ---------------------------
  | Total energy                  :        -229.64538479 Ha       -6248.96886412 eV
  | Total energy, T -> 0          :        -229.64538479 Ha       -6248.96886412 eV  <-- do not rely on this value for anything but (periodic) metals
  | Electronic free energy        :        -229.64538479 Ha       -6248.96886412 eV

  Derived energy quantities:
  | Kinetic energy                :         228.82369676 Ha        6226.60959538 eV
  | Electrostatic energy          :        -430.58054368 Ha      -11716.69273232 eV
  | Energy correction for multipole
  | error in Hartree potential    :          -0.00447777 Ha          -0.12184638 eV
  | Sum of eigenvalues per atom                           :        -377.10565343 eV
  | Total energy (T->0) per atom                          :        -694.32987379 eV  <-- do not rely on this value for anything but (periodic) metals
  | Electronic free energy per atom                       :        -694.32987379 eV

  Self-consistency convergence accuracy:
  | Change of charge density      : 0.6613E-03
  | Change of sum of eigenvalues  : -.1008E+00 eV
  | Change of total energy        : 0.2347E-04 eV

  End self-consistency iteration #     9       :  max(cpu_time)    wall_clock(cpu1)
  | Time for this iteration                    :        0.622 s           0.621 s
  | Charge density update                      :        0.203 s           0.202 s
  | Density mixing                             :        0.009 s           0.009 s
  | Hartree multipole update                   :        0.003 s           0.004 s
  | Hartree multipole summation                :        0.120 s           0.119 s
  | Integration                                :        0.270 s           0.270 s
  | Solution of K.-S. eqns.                    :        0.017 s           0.017 s
  | Total energy evaluation                    :        0.000 s           0.000 s
------------------------------------------------------------

------------------------------------------------------------
          Begin self-consistency iteration #   10

  Date     :  20150727, Time     :  124125.895
------------------------------------------------------------
  Evaluating new KS density.
  Integration grid: deviation in total charge (<rho> - N_e) =  -7.105427E-15
  Pulay mixing of updated and previous charge densities.

  Evaluating partitioned Hartree potential by multipole expansion.
  | Analytical far-field extrapolation by fixed multipoles:
  | Hartree multipole sum: apparent total charge =  -0.357651E-05
  Summing up the Hartree potential.
  Time summed over all CPUs for potential: real work        0.941 s, elapsed        0.951 s
  | RMS charge density error from multipole expansion :   0.135882E-01

  Integrating Hamiltonian matrix: batch-based integration.
  Time summed over all CPUs for integration: real work        2.082 s, elapsed        2.157 s

  Updating Kohn-Sham eigenvalues, eigenvectors, occupation numbers, and Fermi level.
  Solving generalized eigenproblem
  Updating Kohn-Sham eigenvalues and eigenfunctions.
  Solving real generalised eigenvalue problem by standard LAPACK (fast)
  Determining occupation numbers for Kohn-Sham eigenstates.
  | Chemical potential (Fermi level) in eV                 : -.62775485E+01
  | Error in electron count due to remaining E_F inaccuracy: 0.00000000E+00
  | Maximum occupation number of highest empty state:  0.00E+00

  Highest occupied state (VBM) at     -6.65563909 eV
  | Occupation number:      2.00000000

  Lowest unoccupied state (CBM) at    -1.44130264 eV
  | Occupation number:      0.00000000

  Overall HOMO-LUMO gap:      5.21433644 eV.

  Total energy components:
  | Sum of eigenvalues            :        -124.72517033 Ha       -3393.94456659 eV
  | XC energy correction          :         -27.88863492 Ha        -758.88836808 eV
  | XC potential correction       :          35.64110830 Ha         969.84390186 eV
  | Free-atom electrostatic energy:        -107.52021430 Ha       -2925.77389288 eV
  | Hartree energy correction     :          -5.15247351 Ha        -140.20593793 eV
  | van der Waals energy corr.    :           0.00000000 Ha           0.00000000 eV
  | Entropy correction            :           0.00000000 Ha           0.00000000 eV
  | ---------------------------
  | Total energy                  :        -229.64538477 Ha       -6248.96886361 eV
  | Total energy, T -> 0          :        -229.64538477 Ha       -6248.96886361 eV  <-- do not rely on this value for anything but (periodic) metals
  | Electronic free energy        :        -229.64538477 Ha       -6248.96886361 eV

  Derived energy quantities:
  | Kinetic energy                :         228.82448910 Ha        6226.63115594 eV
  | Electrostatic energy          :        -430.58123895 Ha      -11716.71165147 eV
  | Energy correction for multipole
  | error in Hartree potential    :          -0.00447398 Ha          -0.12174326 eV
  | Sum of eigenvalues per atom                           :        -377.10495184 eV
  | Total energy (T->0) per atom                          :        -694.32987373 eV  <-- do not rely on this value for anything but (periodic) metals
  | Electronic free energy per atom                       :        -694.32987373 eV

  Self-consistency convergence accuracy:
  | Change of charge density      : 0.2305E-03
  | Change of sum of eigenvalues  : 0.6314E-02 eV
  | Change of total energy        : 0.5072E-06 eV

[...]
  |   Hirshfeld volume        :     21.52451238
  |   Hirshfeld dipole vector :      0.00553257       0.00776249       0.06002179
  |   Hirshfeld dipole moment :      0.06077401
  |   Hirshfeld second moments:      0.05558698       0.05588519      -0.01590139
  |                                  0.05588519       0.00358496      -0.00328134
  |                                 -0.01590139      -0.00328134       0.01545471
  ----------------------------------------------------------------------
  | Atom     5: H
  |   Hirshfeld charge        :      0.15217313
  |   Free atom volume        :     10.44207651
  |   Hirshfeld volume        :      6.09841524
  |   Hirshfeld dipole vector :      0.10053733       0.06814499       0.03782085
  |   Hirshfeld dipole moment :      0.12720814
  |   Hirshfeld second moments:      0.12138951       0.01154619      -0.01309812
  |                                  0.01154619       0.10836646      -0.00623472
  |                                 -0.01309812      -0.00623472       0.12386994
  ----------------------------------------------------------------------
  | Atom     6: H
  |   Hirshfeld charge        :      0.14764134
  |   Free atom volume        :     10.44207651
  |   Hirshfeld volume        :      6.67898480
  |   Hirshfeld dipole vector :     -0.06762074      -0.04224056       0.08551865
  |   Hirshfeld dipole moment :      0.11691993
  |   Hirshfeld second moments:      0.10373851       0.01570174       0.01207611
  |                                  0.01570174       0.10752955       0.00068402
  |                                  0.01207611       0.00068402       0.10923302
  ----------------------------------------------------------------------
  | Atom     7: O
  |   Hirshfeld charge        :     -0.28974884
  |   Free atom volume        :     23.95238533
  |   Hirshfeld volume        :     21.83505484
  |   Hirshfeld dipole vector :     -0.00123058       0.05430701      -0.00831206
  |   Hirshfeld dipole moment :      0.05495322
  |   Hirshfeld second moments:      0.00381718      -0.01786821      -0.06135403
  |                                 -0.01786821       0.00756167       0.00443955
  |                                 -0.06135403       0.00443955       0.03908682
  ----------------------------------------------------------------------
  | Atom     8: H
  |   Hirshfeld charge        :      0.14295117
  |   Free atom volume        :     10.44207651
  |   Hirshfeld volume        :      6.18758710
  |   Hirshfeld dipole vector :     -0.06344639       0.08709979       0.06669157
  |   Hirshfeld dipole moment :      0.12672641
  |   Hirshfeld second moments:      0.11040431       0.00227314      -0.01712007
  |                                  0.00227314       0.11211208      -0.00856328
  |                                 -0.01712007      -0.00856328       0.12371115
  ----------------------------------------------------------------------
  | Atom     9: H
  |   Hirshfeld charge        :      0.14903050
  |   Free atom volume        :     10.44207651
  |   Hirshfeld volume        :      6.52174760
  |   Hirshfeld dipole vector :      0.05159971       0.05395362      -0.09175741
  |   Hirshfeld dipole moment :      0.11829178
  |   Hirshfeld second moments:      0.09517792      -0.01078260      -0.00554540
  |                                 -0.01078260       0.11915331       0.00773650
  |                                 -0.00554540       0.00773650       0.11334952
  ----------------------------------------------------------------------


  Total energy components:
  | Sum of eigenvalues            :        -124.72521826 Ha       -3393.94587095 eV
  | XC energy correction          :         -27.88862701 Ha        -758.88815284 eV
  | XC potential correction       :          35.64109810 Ha         969.84362430 eV
  | Free-atom electrostatic energy:        -107.52021430 Ha       -2925.77389288 eV
  | Hartree energy correction     :          -5.15242326 Ha        -140.20457050 eV
  | van der Waals energy corr.    :          -0.00069671 Ha          -0.01895839 eV
  | Entropy correction            :           0.00000000 Ha           0.00000000 eV
  | ---------------------------
  | Total energy                  :        -229.64608145 Ha       -6248.98782126 eV
  | Total energy, T -> 0          :        -229.64608145 Ha       -6248.98782126 eV  <-- do not rely on this value for anything but (periodic) metals
  | Electronic free energy        :        -229.64608145 Ha       -6248.98782126 eV

  Derived energy quantities:
  | Kinetic energy                :         228.82449698 Ha        6226.63137043 eV
  | Electrostatic energy          :        -430.58125471 Ha      -11716.71208046 eV
  | Energy correction for multipole
  | error in Hartree potential    :          -0.00447324 Ha          -0.12172307 eV
  | Sum of eigenvalues per atom                           :        -377.10509677 eV
  | Total energy (T->0) per atom                          :        -694.33198014 eV  <-- do not rely on this value for anything but (periodic) metals
  | Electronic free energy per atom                       :        -694.33198014 eV

  atomic forces [eV/Ang]:
  -----------------------
  atom #    1
   Hellmann-Feynman + Multipole  : -.736676E+01 -.119399E+02 0.317546E+01
   Pulay + GGA                   : 0.712908E+01 0.156003E+02 -.452272E+01
   Van der Waals               : 0.175022E-02 0.378919E-02 0.298425E-02
   ----------------------------------------------------------------
   Total forces(   1)            : -.235921E+00 0.366418E+01 -.134428E+01
  atom #    2
   Hellmann-Feynman + Multipole  : 0.233017E+01 -.355850E+01 0.158886E+01
   Pulay + GGA                   : -.475167E-01 0.115735E+00 -.502384E-01
   Van der Waals               : 0.889833E-03 0.168551E-02 0.200609E-02
   ----------------------------------------------------------------
   Total forces(   2)            : 0.228354E+01 -.344108E+01 0.154063E+01
  atom #    3
   Hellmann-Feynman + Multipole  : -.216669E+01 -.225776E+00 -.165730E+00
   Pulay + GGA                   : 0.139354E+00 0.322219E-01 0.609560E-02
   Van der Waals               : 0.935871E-03 0.303755E-02 0.273099E-02
   ----------------------------------------------------------------
   Total forces(   3)            : -.202640E+01 -.190516E+00 -.156903E+00
  atom #    4
   Hellmann-Feynman + Multipole  : -.209444E+01 -.324094E+01 -.168283E+02
   Pulay + GGA                   : 0.285042E+01 0.359642E+01 0.152368E+02
   Van der Waals               : -.845943E-02 -.223660E-02 -.227539E-02
   ----------------------------------------------------------------
   Total forces(   4)            : 0.747523E+00 0.353235E+00 -.159378E+01
  atom #    5
   Hellmann-Feynman + Multipole  : -.528178E+00 -.321479E+00 0.318675E+00
   Pulay + GGA                   : 0.106162E+00 0.726475E-01 0.562541E-01
   Van der Waals               : -.145685E-02 -.327849E-03 -.344702E-03
   ----------------------------------------------------------------
   Total forces(   5)            : -.423473E+00 -.249159E+00 0.374585E+00
  atom #    6
   Hellmann-Feynman + Multipole  : -.330615E+00 -.744281E-01 0.108752E+01
   Pulay + GGA                   : -.773386E-01 -.458843E-01 0.958457E-01
   Van der Waals               : -.467902E-02 -.256330E-03 -.256199E-02
   ----------------------------------------------------------------
   Total forces(   6)            : -.412632E+00 -.120569E+00 0.118081E+01
  atom #    7
   Hellmann-Feynman + Multipole  : 0.103662E+01 -.161713E+02 0.207830E+01
   Pulay + GGA                   : 0.303317E+00 0.163103E+02 -.390731E+01
   Van der Waals               : 0.557678E-02 -.239631E-02 -.192136E-02
   ----------------------------------------------------------------
   Total forces(   7)            : 0.134551E+01 0.136656E+00 -.183094E+01
  atom #    8
   Hellmann-Feynman + Multipole  : -.236476E+00 0.543990E+00 0.190599E+00
   Pulay + GGA                   : -.801265E-01 0.992982E-01 0.849659E-01
   Van der Waals               : 0.904917E-03 -.494431E-03 -.299000E-03
   ----------------------------------------------------------------
   Total forces(   8)            : -.315698E+00 0.642794E+00 0.275266E+00
  atom #    9
   Hellmann-Feynman + Multipole  : -.101554E+01 -.860672E+00 0.165614E+01
   Pulay + GGA                   : 0.516424E-01 0.734458E-01 -.110589E+00
   Van der Waals               : 0.453768E-02 -.280074E-02 -.318890E-03
   ----------------------------------------------------------------
   Total forces(   9)            : -.959363E+00 -.790027E+00 0.154523E+01
  Timings for vdw_correction_hirshfeld (Tkatchenko-Scheffler 2009):
  | CPU time:        1.653 s, Wall clock time:        1.653 s.
  Removing unitary transformations (pure translations, rotations) from forces on atoms.
  Atomic forces before filtering:
  | Net force on center of mass :  0.309619E-02 0.551447E-02 -.937087E-02 eV/A
  | Net torque on center of mass:  0.597832E-02 -.959896E-02 -.330766E-02 eV
  Atomic forces after filtering:
  | Net force on center of mass :  -.892031E-15 0.892031E-16 0.178406E-15 eV/A
  | Net torque on center of mass:  -.802472E-15 0.113290E-14 -.320989E-14 eV
 
  Energy and forces in a compact form:
  | Total energy uncorrected      :         -0.624898782125542E+04 eV
  | Total energy corrected        :         -0.624898782125542E+04 eV  <-- do not rely on this value for anything but (periodic) metals
  | Electronic free energy        :         -0.624898782125542E+04 eV
  Total atomic forces (unitary forces cleaned) [eV/Ang]:
  |   1         -0.236341162814644E+00          0.366312094842691E+01         -0.134257962367826E+01
  |   2          0.228276462572576E+01         -0.344234005567059E+01          0.154231448952933E+01
  |   3         -0.202685768445968E+01         -0.191334018416173E+00         -0.155642428952183E+00
  |   4          0.747212646368069E+00          0.353115774438207E+00         -0.159351473880406E+01
  |   5         -0.423775560277027E+00         -0.249028275593704E+00          0.374439223389127E+00
  |   6         -0.412608256385229E+00         -0.120655099668162E+00          0.118134951587772E+01
  |   7          0.134535816068943E+01          0.135910626827995E+00         -0.182948697230967E+01
  |   8         -0.315832174767475E+00          0.642052445945642E+00          0.276730893549887E+00
  |   9         -0.959920594079210E+00         -0.790842346290127E+00          0.154638964139811E+01
 
  ------------------------------------ 
  Start decomposition of the XC Energy 
  ------------------------------------ 
  Hartree-Fock part   :          0.000000000 Ha              0.000000000 eV
  ------------------------------------ 
  X Energy            :        -26.920302427 Ha           -732.538700210 eV
  C Energy GGA        :         -0.968324586 Ha            -26.349452629 eV
  Total XC Energy     :        -27.888627013 Ha           -758.888152839 eV
  LDA X and C from self-consistent density 
  X Energy LDA        :        -24.227597363 Ha           -659.266467349 eV
  C Energy LDA        :         -1.973097231 Ha            -53.690707404 eV
  ------------------------------------ 
  End decomposition of the XC Energy 
  ------------------------------------ 
  Performing Hirshfeld analysis of fragment charges and moments.
  ----------------------------------------------------------------------
  | Atom     1: O
  |   Hirshfeld charge        :     -0.29318297
  |   Free atom volume        :     23.95238533
  |   Hirshfeld volume        :     22.73645156
  |   Hirshfeld dipole vector :      0.03005039       0.04641988      -0.00818839
  |   Hirshfeld dipole moment :      0.05590064
  |   Hirshfeld second moments:      0.04982779      -0.02574711       0.02679286
  |                                 -0.02574711      -0.00958800      -0.02809283
  |                                  0.02679286      -0.02809283      -0.06533161
  ----------------------------------------------------------------------
  | Atom     2: H
  |   Hirshfeld charge        :      0.14964093
  |   Free atom volume        :     10.44207651
  |   Hirshfeld volume        :      6.67760648
  |   Hirshfeld dipole vector :     -0.06424912       0.09602063      -0.04219279
  |   Hirshfeld dipole moment :      0.12299651
  |   Hirshfeld second moments:      0.12682752       0.00420506       0.00395909
  |                                  0.00420506       0.09616019      -0.00407562
  |                                  0.00395909      -0.00407562       0.09296968
  ----------------------------------------------------------------------
  | Atom     3: H
  |   Hirshfeld charge        :      0.13658850
  |   Free atom volume        :     10.44207651
  |   Hirshfeld volume        :      6.98928450
  |   Hirshfeld dipole vector :      0.11713499       0.01717145       0.00634299
  |   Hirshfeld dipole moment :      0.11855673
  |   Hirshfeld second moments:      0.10152230      -0.01981388      -0.00002216
  |                                 -0.01981388       0.10306310      -0.01629554
  |                                 -0.00002216      -0.01629554       0.09015270
  ----------------------------------------------------------------------
  | Atom     4: O
  |   Hirshfeld charge        :     -0.29516088
  |   Free atom volume        :     23.95238533
  |   Hirshfeld volume        :     21.52451238
  |   Hirshfeld dipole vector :      0.00553257       0.00776249       0.06002179
  |   Hirshfeld dipole moment :      0.06077401
  |   Hirshfeld second moments:      0.05558698       0.05588519      -0.01590139
  |                                  0.05588519       0.00358496      -0.00328134
  |                                 -0.01590139      -0.00328134       0.01545471
  ----------------------------------------------------------------------
  | Atom     5: H
  |   Hirshfeld charge        :      0.15217313
  |   Free atom volume        :     10.44207651
  |   Hirshfeld volume        :      6.09841524
  |   Hirshfeld dipole vector :      0.10053733       0.06814499       0.03782085
  |   Hirshfeld dipole moment :      0.12720814
  |   Hirshfeld second moments:      0.12138951       0.01154619      -0.01309812
  |                                  0.01154619       0.10836646      -0.00623472
  |                                 -0.01309812      -0.00623472       0.12386994
  ----------------------------------------------------------------------
  | Atom     6: H
  |   Hirshfeld charge        :      0.14764134
  |   Free atom volume        :     10.44207651
  |   Hirshfeld volume        :      6.67898480
  |   Hirshfeld dipole vector :     -0.06762074      -0.04224056       0.08551865
  |   Hirshfeld dipole moment :      0.11691993
  |   Hirshfeld second moments:      0.10373851       0.01570174       0.01207611
  |                                  0.01570174       0.10752955       0.00068402
  |                                  0.01207611       0.00068402       0.10923302
  ----------------------------------------------------------------------
  | Atom     7: O
  |   Hirshfeld charge        :     -0.28974884
  |   Free atom volume        :     23.95238533
  |   Hirshfeld volume        :     21.83505484
  |   Hirshfeld dipole vector :     -0.00123058       0.05430701      -0.00831206
  |   Hirshfeld dipole moment :      0.05495322
  |   Hirshfeld second moments:      0.00381718      -0.01786821      -0.06135403
  |                                 -0.01786821       0.00756167       0.00443955
  |                                 -0.06135403       0.00443955       0.03908682
  ----------------------------------------------------------------------
  | Atom     8: H
  |   Hirshfeld charge        :      0.14295117
  |   Free atom volume        :     10.44207651
  |   Hirshfeld volume        :      6.18758710
  |   Hirshfeld dipole vector :     -0.06344639       0.08709979       0.06669157
  |   Hirshfeld dipole moment :      0.12672641
  |   Hirshfeld second moments:      0.11040431       0.00227314      -0.01712007
  |                                  0.00227314       0.11211208      -0.00856328
  |                                 -0.01712007      -0.00856328       0.12371115
  ----------------------------------------------------------------------
  | Atom     9: H
  |   Hirshfeld charge        :      0.14903050
  |   Free atom volume        :     10.44207651
  |   Hirshfeld volume        :      6.52174760
  |   Hirshfeld dipole vector :      0.05159971       0.05395362      -0.09175741
  |   Hirshfeld dipole moment :      0.11829178
  |   Hirshfeld second moments:      0.09517792      -0.01078260      -0.00554540
  |                                 -0.01078260       0.11915331       0.00773650
  |                                 -0.00554540       0.00773650       0.11334952
  ----------------------------------------------------------------------


------------------------------------------------------------------------------
  Final output of selected total energy values:

  The following output summarizes some interesting total energy values
  at the end of a run (AFTER all relaxation, molecular dynamics, etc.).

  | Total energy of the DFT / Hartree-Fock s.c.f. calculation      :          -6248.987821255 eV
  | Final zero-broadening corrected energy (caution - metals only) :          -6248.987821255 eV
  | For reference only, the value of 1 Hartree used in FHI-aims is :             27.211384500 eV

  Before relying on these values, please be sure to understand exactly which
  total energy value is referred to by a given number. Different objects may
  all carry the same name 'total energy'. Definitions:

  Total energy of the DFT / Hartree-Fock s.c.f. calculation:
  | Note that this energy does not include ANY quantities calculated after the
  | s.c.f. cycle, in particular not ANY RPA, MP2, etc. many-body perturbation terms.

  Final zero-broadening corrected energy:
  | For metallic systems only, a broadening of the occupation numbers at the Fermi
  | level can be extrapolated back to zero broadening by an electron-gas inspired
  | formula. For all systems that are not real metals, this value can be
  | meaningless and should be avoided.

------------------------------------------------------------------------------

------------------------------------------------------------
          Leaving FHI-aims.
          Date     :  20150727, Time     :  124130.918

          Computational steps:
          | Number of self-consistency cycles          :           15

          Detailed time accounting                     :  max(cpu_time)    wall_clock(cpu1)
          | Total time                                 :       12.009 s          12.036 s
          | Preparation time                           :        0.169 s           0.727 s
          | Grid partitioning                          :        0.093 s           0.092 s
          | Preloading free-atom quantities on grid    :        0.014 s           0.013 s
          | Free-atom superposition energy             :        0.029 s           0.030 s
          | Total time for integrations                :        4.468 s           4.472 s
          | Total time for solution of K.-S. equations :        0.309 s           0.309 s
          | Total time for density & force components  :        3.880 s           3.878 s
          | Total time for mixing                      :        0.108 s           0.110 s
          | Total time for Hartree multipole update    :        0.057 s           0.055 s
          | Total time for Hartree multipole sum       :        2.186 s           2.185 s
          | Total time for total energy evaluation     :        0.004 s           0.005 s
          | Total time for scaled ZORA corrections     :        0.000 s           0.000 s
          | Total time for TS (2009) vdW correction    :        0.021 s           0.020 s

          Have a nice day.
------------------------------------------------------------
