  MPI-parallelism will be employed.
------------------------------------------------------------
          Invoking FHI-aims ...
          Version 081213
          Compiled on 2013/08/29 at 17:41:06 on host generoso.

          When using FHI-aims, please cite the following reference:

          Volker Blum, Ralf Gehrke, Felix Hanke, Paula Havu,
          Ville Havu, Xinguo Ren, Karsten Reuter, and Matthias Scheffler,
          'Ab Initio Molecular Simulations with Numeric Atom-Centered Orbitals: FHI-aims',
          Computer Physics Communications 180, 2175-2196 (2009)

          For any questions about FHI-aims, please visit the aimsclub website
          with its forums and wiki. Contributions to both the forums and the
          wiki are warmly encouraged - they are for you, and everyone is welcome there.

------------------------------------------------------------

  Date     :  20150727, Time     :  115351.785
  Time zero on CPU 1             :   0.509920000000000E-01  s.
  Internal wall clock time zero  :           207230031.785  s.

  Using        8 parallel tasks.
  Task        0 on host gen60 reporting.
  Task        1 on host gen60 reporting.
  Task        2 on host gen60 reporting.
  Task        3 on host gen60 reporting.
  Task        4 on host gen60 reporting.
  Task        5 on host gen60 reporting.
  Task        6 on host gen60 reporting.
  Task        7 on host gen60 reporting.

  Performing system and environment tests:
  | Environment variable OMP_NUM_THREADS correctly set to 1.
  | Checking for scalapack...
  | No scalapack compiled in.

  Obtaining array dimensions for all initial allocations:
  
  -----------------------------------------------------------------------
  Parsing control.in (first pass over file, find array dimensions only).
  The contents of control.in will be repeated verbatim below
  unless switched off by setting 'verbatim_writeout .false.' .
  in the first line of control.in .
  -----------------------------------------------------------------------
  
  #########################################################################################
  #
  #  Volker Blum, FHI 2008 : Test run input file control.in
  #
  #########################################################################################
  #
  #  Physical model
  #
    xc                 rpbe
    spin               none
    relativistic       atomic_zora scalar
    charge             0.
   vdw_correction_hirshfeld
  #
  #  SCF convergence
  #
    occupation_type    gaussian 0.01
    mixer              pulay
      n_max_pulay        10
      charge_mix_param   0.1
    sc_accuracy_rho    5E-5
    sc_accuracy_eev    5E-3
    sc_accuracy_etot   5E-6
    sc_iter_limit      3000
  #
  #  Eigenvalue solver
  #
    KS_method          lapack
      empty_states       8
      basis_threshold    0.e-5
  #
  #  Efficiency
  #
  #   all previous settings are now default, except stratmann still
  #   undecided. Continue to handle stratmann with care, if at all.
  #
  #  partition_type stratmann
    partition_type rho_r2
  #  hartree_partition_type stratmann
  #
  #  Oprions for large clusters (100's of atoms: memory saving / better scaling)
  #
  # for periodic systems:
  #
    density_update_method orbital
    packed_matrix_format none
  #  k_grid 6 6 6
  #  output k_eigenvalue 1
  #  distributed_spline_storage .true.
  #
  #  Relaxation
  #
  #  relax_geometry   bfgs 5.e-3
    sc_accuracy_forces 5.E-4
    final_forces_cleaned .true.
  #
  #  Output options
  #
  #  output mulliken
    output Hirshfeld
  #  output dipole
  
  #harmonic_length_scale 0.001
  
  ################################################################################
  #
  #  FHI-aims code project
  #  VB, Fritz-Haber Institut, 2007
  #
  #  Suggested "safe" defaults for H atom (to be pasted into control.in file)
  #  Basis constructed for a non-relativistic H2 molecule using the
  #  PW-LDA functional.
  #
  ################################################################################
    species        H
  #     global species definitions
      nucleus             1
      cut_pot             4.0  2.0  1.0
      cut_free_atom       finite 8.0
      logarithmic         0.00010000 100.00  1.0123
      basis_dep_cutoff    1d-4  # 1d-4 is safe default - please check 5d-4 if you wish!
      radial_base         24 7.0
      radial_multiplier   2
      angular_grids       specified
        division   0.2783  110
        division   0.3822  194
        division   0.5626  302
  #      division   0.5922  434
  #      division   0.6227  590
  #      division   0.7206  770
        outer_grid  302
      l_hartree           4
  ################################################################################
  #
  #  Definition of "minimal" basis
  #
  ################################################################################
  #     valence basis states
      valence      1  s   1.
  #     ion occupancy
      ion_occ      1  s   0.5
  ################################################################################
  #
  #  Suggested additional basis functions. For production calculations,
  #  uncomment them one after another (the most important basis functions are
  #  listed first).
  #
  ################################################################################
  #  "First tier" - improvements: -1014.90 meV to -62.69 meV
       hydro 2 s 2.1
       hydro 2 p 3.5
  #  "Second tier" - improvements: -12.89 meV to -1.83 meV
       hydro 1 s 0.85
       hydro 2 p 3.7
       hydro 2 s 1.2
       hydro 3 d 7
  #  "Third tier" - improvements: -0.25 meV to -0.12 meV
  #     hydro 4 f 11.2
  #     hydro 3 p 4.8
  #     hydro 4 d 9
  #     hydro 3 s 3.2
  
  ################################################################################
  #
  #  FHI-aims code project
  #  VB, Fritz-Haber Institut, 2007
  #
  #  Suggested "safe" defaults for O atom (to be pasted into control.in file)
  #  All values have been tested for a non-relativistic, non-spinpolarized O2
  #  molecule using the PW-LDA functional. Validity for PBE is expected.
  #
  #  Constructed for dimers: 1.0 A, 1.208 A, 1.5 A, 2.0 A, 3.0 A
  #
  ################################################################################
    species        O
  #     global species definitions
      nucleus             8
      mass                15.9994
      l_hartree           4
      cut_pot             4.0  2.0  1.0
      cut_free_atom       finite 8.0
      basis_dep_cutoff    1d-4  # 1d-4 is safe default - please check 5d-4 if you wish!
      logarithmic         0.00010000 100.00  1.0123
      radial_base         36 7.0
      radial_multiplier   2
       angular_grids specified
        division   0.4087  110
        division   0.5181  194
        division   0.6184  302
  #      division   0.7315  434
  #      division   0.7934  590
  #      division   0.9656  770
  #      division   1.4041  974
  #      outer_grid 974
        outer_grid 302
  ################################################################################
  #
  #  Definition of "minimal" basis
  #
  ################################################################################
  #     valence basis states
      valence      2  s   2.
      valence      2  p   4.
  #     ion occupancy
      ion_occ      2  s   1.
      ion_occ      2  p   3.
  ################################################################################
  #
  #  Suggested additional basis functions. For production calculations,
  #  uncomment them one after another (the most important basis functions are
  #  listed first).
  #
  ################################################################################
  #  "First tier" - improvements: -699.05 meV to -159.38 meV
       hydro 2 p 1.8
       hydro 3 d 7.6
       hydro 3 s 6.4
  #  "Second tier" - improvements: -49.91 meV to -5.39 meV
       hydro 4 f 11.6
       hydro 3 p 6.2
       hydro 3 d 5.6
       hydro 5 g 17.6
       hydro 1 s 0.75
  #  "Third tier" - improvements: -2.83 meV to -0.50 meV
  #     ionic 2 p auto
  #     hydro 4 f 10.8
  #     hydro 4 d 4.7
  #     hydro 2 s 6.8
  #  "Fourth tier" - improvements: -0.40 meV to -0.12 meV
  #     hydro 3 p 5
  #     hydro 3 s 3.3
  #     hydro 5 g 15.6
  #     hydro 4 f 17.6
  #     hydro 4 d 14
  # Further basis functions - -0.08 meV and below
  #     hydro 3 s 2.1
  #     hydro 4 d 11.6
  #     hydro 3 p 16
  #     hydro 2 s 17.2
  
  
  -----------------------------------------------------------------------
  Completed first pass over input file control.in .
  -----------------------------------------------------------------------
  
  
  -----------------------------------------------------------------------
  Parsing geometry.in (first pass over file, find array dimensions only).
  The contents of geometry.in will be repeated verbatim below
  unless switched off by setting 'verbatim_writeout .false.' .
  in the first line of geometry.in .
  -----------------------------------------------------------------------
  
  atom      -4.053030000      0.065001000     -1.525160000  O
  atom      -4.566710000      0.974813000     -1.912820000  H
  atom      -3.067820000      0.330172000     -1.477310000  H
  atom      -4.581760000     -0.256435000      0.939478000  O
  atom      -4.349860000      0.471090000      1.504340000  H
  atom      -5.393870000     -0.726611000      1.228070000  H
  atom      -5.293160000      2.192130000     -2.328800000  O
  atom      -4.829300000      2.988660000     -1.973850000  H
  atom      -5.428570000      2.328640000     -3.235170000  H
  atom      -1.975360000      2.858040000      0.453140000  O
  atom      -1.223550000      3.375850000      0.786238000  H
  atom      -2.537520000      2.567960000      1.156120000  H
  atom      -5.628340000      3.730740000      1.385610000  O
  atom      -6.090650000      4.418470000      1.860350000  H
  atom      -5.158540000      4.200260000      0.615875000  H
  
  -----------------------------------------------------------------------
  Completed first pass over input file geometry.in .
  -----------------------------------------------------------------------
  
 
  Basic array size parameters: 
  | Number of species                 :        2
  | Number of atoms                   :       15
  | Max. basis fn. angular momentum   :        4
  | Max. atomic/ionic basis occupied n:        2
  | Max. number of basis fn. types    :        2
  | Max. radial fns per species/type  :        8
  | Max. logarithmic grid size        :     1301
  | Max. radial integration grid size :       73
  | Max. angular integration grid size:      302
  | Max. angular grid division number :        8
  | Radial grid for Hartree potential :     1301
  | Number of spin channels           :        1

------------------------------------------------------------
          Reading file control.in.
------------------------------------------------------------
  XC: Using RPBE gradient-corrected functionals.
  Spin treatment: No spin polarisation.
  Scalar relativistic treatment of kinetic energy: on-site free-atom approximation to ZORA.
  Charge =   0.000000E+00: Neutral system requested explicitly.
  Using non-empirical van der Waals correction (Hirshfeld partitioning):
  Occupation type: Gaussian broadening, width =   0.100000E-01 eV.
  Using pulay charge density mixing.
  Pulay mixing - number of memorized iterations:   10
  Charge density mixing - mixing parameter:     0.1000
  Convergence accuracy of self-consistent charge density: 0.5000E-04
  Convergence accuracy of sum of eigenvalues: 0.5000E-02
  Convergence accuracy of total energy: 0.5000E-05
  Maximum number of s.-c. iterations  :  3000
  Kohn-Sham eigenvalues and eigenfunctions calculated by lapack diagonalisation (D&C).
  Number of empty states per atom:        8
  Threshold for basis singularities: 0.0000E+00
  Partition function in integrals calculations: rho / r^2
 Using packed matrix format           0
  Convergence accuracy of forces: 0.5000E-03
  Cleaning forces before final output.
  Hirshfeld charge analysis will be performed.
 
  Reading configuration options for species H                   .
  | Found nuclear charge :   1.0000
  | Found cutoff potl. onset [A], width [A], scale factor :    4.00000    2.00000    1.00000
  | Found cutoff specification for free atom: Cutoff potential begins at    8.00000 A.
  | Found logarithmic grid data [bohr] : 0.1000E-03 0.1000E+03 0.1012E+01
  | Threshold for basis-dependent cutoff potential is   0.100000E-03
  | Found data for basic radial integration grid :    24 points, outermost radius =    7.000 A
  | Found multiplier for basic radial grid :   2
  | Found angular grid specification: user-specified.
  | Specified grid contains     4 separate shells.
  | Check grid settings after all constraints further below.
  | Found l_max for Hartree potential  :   4
  | Found free-atom valence shell :  1 s   1.000
  | No ionic wave fns used. Skipping ion_occ.
  | Found hydrogenic basis function :  2 s   2.100
  | Found hydrogenic basis function :  2 p   3.500
  | Found hydrogenic basis function :  1 s   0.850
  | Found hydrogenic basis function :  2 p   3.700
  | Found hydrogenic basis function :  2 s   1.200
  | Found hydrogenic basis function :  3 d   7.000
  Species H                   : Missing cutoff potential type.
  Defaulting to exp(1/x)/(1-x)^2 type cutoff potential.
  Species H : On-site basis accuracy parameter (for Gram-Schmidt orthonormalisation) not specified.
  Using default value basis_acc =  0.1000000E-03.
  Species H                   : Using default innermost maximum threshold i_radial=  2 for radial functions.
  Species H                   : Basic radial grid will be enhanced according to radial_multiplier =   2, to contain    49 grid points.
 
  Reading configuration options for species O                   .
  | Found nuclear charge :   8.0000
  | Found atomic mass :    15.9994000000000      amu
  | Found l_max for Hartree potential  :   4
  | Found cutoff potl. onset [A], width [A], scale factor :    4.00000    2.00000    1.00000
  | Found cutoff specification for free atom: Cutoff potential begins at    8.00000 A.
  | Threshold for basis-dependent cutoff potential is   0.100000E-03
  | Found logarithmic grid data [bohr] : 0.1000E-03 0.1000E+03 0.1012E+01
  | Found data for basic radial integration grid :    36 points, outermost radius =    7.000 A
  | Found multiplier for basic radial grid :   2
  | Found angular grid specification: user-specified.
  | Specified grid contains     4 separate shells.
  | Check grid settings after all constraints further below.
  | Found free-atom valence shell :  2 s   2.000
  | Found free-atom valence shell :  2 p   4.000
  | No ionic wave fns used. Skipping ion_occ.
  | No ionic wave fns used. Skipping ion_occ.
  | Found hydrogenic basis function :  2 p   1.800
  | Found hydrogenic basis function :  3 d   7.600
  | Found hydrogenic basis function :  3 s   6.400
  | Found hydrogenic basis function :  4 f  11.600
  | Found hydrogenic basis function :  3 p   6.200
  | Found hydrogenic basis function :  3 d   5.600
  | Found hydrogenic basis function :  5 g  17.600
  | Found hydrogenic basis function :  1 s   0.750
  Species O                   : Missing cutoff potential type.
  Defaulting to exp(1/x)/(1-x)^2 type cutoff potential.
  Species O : On-site basis accuracy parameter (for Gram-Schmidt orthonormalisation) not specified.
  Using default value basis_acc =  0.1000000E-03.
  Species O                   : Using default innermost maximum threshold i_radial=  2 for radial functions.
  Species O                   : Basic radial grid will be enhanced according to radial_multiplier =   2, to contain    73 grid points.
 
  Finished reading input file 'control.in'. Consistency checks are next.
 
  Target number of points in a grid batch is not set. Defaulting to  100
  Method for grid partitioning is not set. Defaulting to parallel hash+maxmin partitioning.
  Batch size limit is not set. Defaulting to    200
  By default, will store active basis functions for each batch.
  If in need of memory, prune_basis_once .false. can be used to disable this option.
  communication_type for Hartree potential was not specified.
  Defaulting to calc_hartree .
  Pulay mixer: Number of initial linear mixing iterations not set.
  Defaulting to    0 iterations.
  Work space size for distributed Hartree potential not set.
  Defaulting to   0.200000E+03 MB.
  Algorithm-dependent basis array size parameters:
  | n_max_pulay                         :       10
  Geometry relaxation not requested: no relaxation will be performed.
  Handling of forces: Unphysical translation and rotation will be removed from forces.
  No accuracy limit for integral partition fn. given. Defaulting to 0.1000E-14.
  No threshold value for u(r) in integrations given. Defaulting to 0.1000E-05.
  No accuracy for occupation numbers given. Defaulting to 0.1000E-07.
  No threshold value for occupation numbers given. Defaulting to 0.0000E+00.
  No accuracy for fermi level given. Defaulting to 0.1000E-19.
  Maximum # of iterations to find E_F not set. Defaulting to  200.
  Will not use alltoall communication since running on < 1024 CPUs.
  Partitioning for Hartree potential was not defined. Using partition_type for integrals.
  | Reporting present value of keyword multip_moments_threshold  :       0.10000000E-09
  | This value may affect high angular momentum components of the Hartree potential in periodic systems.
  No q(lm)/r^(l+1) cutoff set for long-range Hartree potential.
  | Using default value of  0.100000E-09 .
  | Verify using the multipole_threshold keyword.
  Defaulting to new monopole extrapolation.
  Density update method: Loop over occupied states selected for charge density update.
------------------------------------------------------------


------------------------------------------------------------
          Reading geometry description geometry.in.
------------------------------------------------------------
  Input structure read successfully.
  The structure contains       15 atoms,  and a total of         50.000 electrons.

  Input geometry:
  | No unit cell requested.
  | Atomic structure:
  |       Atom                x [A]            y [A]            z [A]
  |    1: Species O             -4.053030         0.065001        -1.525160
  |    2: Species H             -4.566710         0.974813        -1.912820
  |    3: Species H             -3.067820         0.330172        -1.477310
  |    4: Species O             -4.581760        -0.256435         0.939478
  |    5: Species H             -4.349860         0.471090         1.504340
  |    6: Species H             -5.393870        -0.726611         1.228070
  |    7: Species O             -5.293160         2.192130        -2.328800
  |    8: Species H             -4.829300         2.988660        -1.973850
  |    9: Species H             -5.428570         2.328640        -3.235170
  |   10: Species O             -1.975360         2.858040         0.453140
  |   11: Species H             -1.223550         3.375850         0.786238
  |   12: Species H             -2.537520         2.567960         1.156120
  |   13: Species O             -5.628340         3.730740         1.385610
  |   14: Species H             -6.090650         4.418470         1.860350
  |   15: Species H             -5.158540         4.200260         0.615875
  |

  | The smallest distance between any two atoms is         0.92654057 AA.
  |
  | The first atom of this pair is atom number                      7 .
  | The second atom of this pair is atom number                     9 .

  Structure-dependent array size parameters: 
  | Maximum number of distinct radial functions  :       18
  | Maximum number of basis functions            :      345
  | Number of Kohn-Sham states (occupied + empty):       85
------------------------------------------------------------

------------------------------------------------------------
          Preparing all fixed parts of the calculation.
------------------------------------------------------------
  Determining machine precision:
    2.225073858507201E-308
  Setting up grids for atomic and cluster calculations.

  Creating wave function, potential, and density for free atoms.

  Species: H

  List of occupied orbitals and eigenvalues:
    n    l              occ      energy [Ha]    energy [eV]
    1    0           1.0000        -0.241408        -6.5691


  Species: O

  List of occupied orbitals and eigenvalues:
    n    l              occ      energy [Ha]    energy [eV]
    1    0           2.0000       -18.944147      -515.4965
    2    0           2.0000        -0.883529       -24.0421
    2    1           4.0000        -0.330176        -8.9845

  Creating fixed part of basis set: Ionic, confined, hydrogenic.
 
  H                    hydrogenic:
 
  List of hydrogenic basis orbitals: 
    n    l      effective z      eigenvalue [eV]  inner max. [A]     outer max. [A]     outer radius [A]   
    2    0         2.100000       -14.9965           0.193241           1.317192           5.372934
    2    1         3.500000       -41.6672           0.602363           0.602363           4.056010
    1    0         0.850000        -9.8292           0.624864           0.624864           5.372934
    2    1         3.700000       -46.5653           0.573616           0.573616           3.909951
    2    0         1.200000        -4.5995           0.334977           2.228160           5.505921
    3    2         7.000000       -74.0753           0.680692           0.680692           3.769152
 
 
  O                    hydrogenic:
 
  List of hydrogenic basis orbitals: 
    n    l      effective z      eigenvalue [eV]  inner max. [A]     outer max. [A]     outer radius [A]   
    2    1         1.800000       -11.0118           1.178546           1.178546           5.432516
    3    2         7.600000       -87.3182           0.624117           0.624117           3.541422
    3    0         6.400000       -61.9209           0.061166           1.081887           4.306510
    4    3        11.600000      -114.4238           0.731621           0.731621           3.584982
    3    1         6.200000       -58.1113           0.255677           1.030255           4.306510
    3    2         5.600000       -47.4081           0.847222           0.847222           4.413102
    5    4        17.600000      -168.5799           0.749730           0.749730           3.372413
    1    0         0.750000        -7.6499           0.705275           0.705275           5.366508
 

  Adding cutoff potential to free-atom effective potential.
  Creating atomic-like basis functions for current effective potential.

  Species H                   :

  List of atomic basis orbitals and eigenvalues:
    n    l      energy [Ha]    energy [eV]    outer radius [A]
    1    0        -0.241374        -6.5681       5.372934


  Species O                   :

  List of atomic basis orbitals and eigenvalues:
    n    l      energy [Ha]    energy [eV]    outer radius [A]
    1    0       -18.944147      -515.4965       1.415745
    2    0        -0.883529       -24.0421       5.048305
    2    1        -0.330173        -8.9845       5.301302

  Assembling full basis from fixed parts.
  | Species H :   atomic orbital   1 s accepted.
  | Species H :    hydro orbital   2 s accepted.
  | Species H :    hydro orbital   1 s accepted.
  | Species H :    hydro orbital   2 s accepted.
  | Species H :    hydro orbital   2 p accepted.
  | Species H :    hydro orbital   2 p accepted.
  | Species H :    hydro orbital   3 d accepted.
  | Species O :   atomic orbital   1 s accepted.
  | Species O :    hydro orbital   3 s accepted.
  | Species O :   atomic orbital   2 s accepted.
  | Species O :    hydro orbital   1 s accepted.
  | Species O :    hydro orbital   3 p accepted.
  | Species O :   atomic orbital   2 p accepted.
  | Species O :    hydro orbital   2 p accepted.
  | Species O :    hydro orbital   3 d accepted.
  | Species O :    hydro orbital   3 d accepted.
  | Species O :    hydro orbital   4 f accepted.
  | Species O :    hydro orbital   5 g accepted.
 
  Basis size parameters after reduction:
  | Total number of radial functions:       18
  | Total number of basis functions :      345
 
  Testing on-site integration grid accuracy.
  |  Species  Function  <phi|h_atom|phi> (log., in eV)  <phi|h_atom|phi> (rad., in eV)
           1        1                 -6.5683835025                 -6.5684759159
           1        2                 13.3711789951                 13.3708738703
           1        3                 23.6590910787                 23.6532055418
           1        4                 16.2963827186                 16.1870710655 ***
           1        5                 28.7627214838                 28.7627215090
           1        6                 59.5965249172                 59.5965950857
           1        7                 60.2220506392                 60.2220503827
           2        8               -515.4964576505               -515.4964530710
           2        9                 15.3030791347                 15.3030722972
           2       10                -21.7296094581                -21.7296135470
           2       11                 14.2969371730                 14.2969701621
           2       12                 21.0679693190                 21.0679697493
           2       13                 -2.3833606469                 -2.3833613176
           2       14                 13.7067136422                 13.7066766629
           2       15                 45.8013116808                 45.8013116965
           2       16                 52.2309815402                 52.2309831494
           2       17                 85.4120732416                 85.4120732763
           2       18                142.1019167745                142.1019167817
 * Note: Onsite integrals marked "***" above are less accurate than
 * onsite_accuracy_threshold =    0.03000 eV. Usually, this is harmless.
 * When in doubt, tighten the "radial" and/or "radial_multiplier" flags to check.

  Preparing densities etc. for the partition functions (integrals / Hartree potential).

  Preparations completed.
  max(cpu_time)          :      0.170 s.
  Wall clock time (cpu1) :      0.738 s.
------------------------------------------------------------

------------------------------------------------------------
          Begin self-consistency loop: Initialization.

          Date     :  20150727, Time     :  115352.564
------------------------------------------------------------

  Initializing index lists of integration centers etc. from given atomic structure:
  | Number of centers in hartree potential         :        15
  | Number of centers in hartree multipole         :        15
  | Number of centers in electron density summation:        15
  | Number of centers in basis integrals           :        15
  | Number of centers in integrals                 :        15
  Partitioning the integration grid into batches with parallel hashing+maxmin method.
  | Number of batches:     1902
  | Maximal batch size:     174
  | Minimal batch size:      52
  | Average batch size:     103.423
  | Standard deviation of batch sizes:      29.720

  Integration load balanced across     8 MPI tasks.
  Work distribution over tasks is as follows:
  Task     0 has      24608 integration points.
  Task     1 has      24586 integration points.
  Task     2 has      24670 integration points.
  Task     3 has      24558 integration points.
  Task     4 has      24557 integration points.
  Task     5 has      24584 integration points.
  Task     6 has      24606 integration points.
  Task     7 has      24541 integration points.
  Initializing partition tables, free-atom densities, potentials, etc. across the integration grid (initialize_grid_storage).
  | Net number of integration points:   196710
  | of which are non-zero points    :   196143
  Obtaining max. number of non-zero basis functions in each batch (get_n_compute_maxes).
  | Maximal number of non-zero basis functions:      341 in task     0
  | Maximal number of non-zero basis functions:      341 in task     1
  | Maximal number of non-zero basis functions:      341 in task     2
  | Maximal number of non-zero basis functions:      341 in task     3
  | Maximal number of non-zero basis functions:      341 in task     4
  | Maximal number of non-zero basis functions:      341 in task     5
  | Maximal number of non-zero basis functions:      341 in task     6
  | Maximal number of non-zero basis functions:      341 in task     7
  Integrating Hamiltonian matrix: batch-based integration.
  Time summed over all CPUs for integration: real work        6.831 s, elapsed        6.928 s
  Integrating overlap matrix.
  Time summed over all CPUs for integration: real work        3.626 s, elapsed        3.649 s

  Updating Kohn-Sham eigenvalues, eigenvectors, occupation numbers, and Fermi level.
  Solving generalized eigenproblem
  Updating Kohn-Sham eigenvalues and eigenfunctions.
  Transforming overlap matrix and checking for singularities.
  Overlap matrix is nonsingular:
  | Lowest eigenvalue:  0.344299E-03
  Solving real generalised eigenvalue problem by standard LAPACK (fast)
  Determining occupation numbers for Kohn-Sham eigenstates.
  | Chemical potential (Fermi level) in eV                 : -.50192355E+01
  | Error in electron count due to remaining E_F inaccuracy: 0.00000000E+00
  | Maximum occupation number of highest empty state:  0.00E+00

  Writing Kohn-Sham eigenvalues.

  State    Occupation    Eigenvalue [Ha]    Eigenvalue [eV]
      1       2.00000         -19.064796         -518.77951
      2       2.00000         -19.054476         -518.49867
      3       2.00000         -19.051950         -518.42994
      4       2.00000         -19.044534         -518.22814
      5       2.00000         -19.019668         -517.55151
      6       2.00000          -1.121178          -30.50881
      7       2.00000          -1.103416          -30.02548
      8       2.00000          -1.098544          -29.89290
      9       2.00000          -1.089144          -29.63713
     10       2.00000          -1.043466          -28.39416
     11       2.00000          -0.650198          -17.69278
     12       2.00000          -0.647011          -17.60606
     13       2.00000          -0.644215          -17.52998
     14       2.00000          -0.618333          -16.82570
     15       2.00000          -0.596429          -16.22965
     16       2.00000          -0.525201          -14.29144
     17       2.00000          -0.503731          -13.70721
     18       2.00000          -0.501669          -13.65110
     19       2.00000          -0.501110          -13.63590
     20       2.00000          -0.479076          -13.03633
     21       2.00000          -0.440956          -11.99903
     22       2.00000          -0.438505          -11.93232
     23       2.00000          -0.438080          -11.92077
     24       2.00000          -0.430153          -11.70505
     25       2.00000          -0.402631          -10.95615
     26       0.00000          -0.099679           -2.71239
     27       0.00000          -0.069001           -1.87762
     28       0.00000          -0.060968           -1.65901
     29       0.00000          -0.051430           -1.39948
     30       0.00000          -0.031831           -0.86617
     31       0.00000          -0.012816           -0.34873
     32       0.00000          -0.010186           -0.27716
     33       0.00000           0.025511            0.69418
     34       0.00000           0.040579            1.10421
     35       0.00000           0.047270            1.28628
     36       0.00000           0.070378            1.91509
     37       0.00000           0.083096            2.26115
     38       0.00000           0.087591            2.38347
     39       0.00000           0.092586            2.51939
     40       0.00000           0.099649            2.71159
     41       0.00000           0.101274            2.75581
     42       0.00000           0.112047            3.04894
     43       0.00000           0.117345            3.19313
     44       0.00000           0.122148            3.32381
     45       0.00000           0.131695            3.58360
     46       0.00000           0.139498            3.79594
     47       0.00000           0.143556            3.90637
     48       0.00000           0.150133            4.08532
     49       0.00000           0.160444            4.36589
     50       0.00000           0.173033            4.70847
     51       0.00000           0.191321            5.20612
     52       0.00000           0.200058            5.44385
     53       0.00000           0.211618            5.75841
     54       0.00000           0.224224            6.10143
     55       0.00000           0.240944            6.55641
     56       0.00000           0.269485            7.33306
     57       0.00000           0.275024            7.48378
     58       0.00000           0.285216            7.76113
     59       0.00000           0.296961            8.08073
     60       0.00000           0.312704            8.50912
     61       0.00000           0.332832            9.05683
     62       0.00000           0.337917            9.19518
     63       0.00000           0.353951            9.63149
     64       0.00000           0.379110           10.31611
     65       0.00000           0.389669           10.60342
     66       0.00000           0.393942           10.71970
     67       0.00000           0.406912           11.07264
     68       0.00000           0.416091           11.32241
     69       0.00000           0.429073           11.67568
     70       0.00000           0.437899           11.91584
     71       0.00000           0.440540           11.98771
     72       0.00000           0.449690           12.23668
     73       0.00000           0.475253           12.93229
     74       0.00000           0.478046           13.00828
     75       0.00000           0.491470           13.37358
     76       0.00000           0.507022           13.79676
     77       0.00000           0.521719           14.19669
     78       0.00000           0.549446           14.95119
     79       0.00000           0.558468           15.19668
     80       0.00000           0.568430           15.46776
     81       0.00000           0.582694           15.85590
     82       0.00000           0.589100           16.03023
     83       0.00000           0.612105           16.65624
     84       0.00000           0.664672           18.08665
     85       0.00000           0.690113           18.77892

  Highest occupied state (VBM) at    -10.95614670 eV
  | Occupation number:      2.00000000

  Lowest unoccupied state (CBM) at    -2.71239052 eV
  | Occupation number:      0.00000000

  Overall HOMO-LUMO gap:      8.24375617 eV.
  Calculating total energy contributions from superposition of free atom densities.

  Total energy components:
  | Sum of eigenvalues            :        -217.01694113 Ha       -5905.33142802 eV
  | XC energy correction          :         -45.54717838 Ha       -1239.40178371 eV
  | XC potential correction       :          58.19064267 Ha        1583.44795207 eV
  | Free-atom electrostatic energy:        -178.72343144 Ha       -4863.31201219 eV
  | Hartree energy correction     :           0.00000000 Ha           0.00000000 eV
  | van der Waals energy corr.    :           0.00000000 Ha           0.00000000 eV
  | Entropy correction            :           0.00000000 Ha           0.00000000 eV
  | ---------------------------
  | Total energy                  :        -383.09690828 Ha      -10424.59727185 eV
  | Total energy, T -> 0          :        -383.09690828 Ha      -10424.59727185 eV  <-- do not rely on this value for anything but (periodic) metals
  | Electronic free energy        :        -383.09690828 Ha      -10424.59727185 eV

  Derived energy quantities:
  | Kinetic energy                :         379.08323732 Ha       10315.37972829 eV
  | Electrostatic energy          :        -716.63296722 Ha      -19500.57521643 eV
  | Energy correction for multipole
  | error in Hartree potential    :           0.00000000 Ha           0.00000000 eV
  | Sum of eigenvalues per atom                           :        -393.68876187 eV
  | Total energy (T->0) per atom                          :        -694.97315146 eV  <-- do not rely on this value for anything but (periodic) metals
  | Electronic free energy per atom                       :        -694.97315146 eV
  Initialize hartree_potential_storage
  Max. number of atoms included in rho_multipole:           15

  End scf initialization - timings             :  max(cpu_time)    wall_clock(cpu1)
  | Time for scf. initialization               :        1.887 s           1.888 s
  | Boundary condition initialization          :        0.000 s           0.009 s
  | Integration                                :        1.326 s           1.326 s
  | Solution of K.-S. eqns.                    :        0.197 s           0.197 s
  | Grid partitioning                          :        0.141 s           0.142 s
  | Preloading free-atom quantities on grid    :        0.014 s           0.014 s
  | Free-atom superposition energy             :        0.065 s           0.065 s
  | Total energy evaluation                    :        0.000 s           0.000 s
------------------------------------------------------------

------------------------------------------------------------
          Begin self-consistency iteration #    1

  Date     :  20150727, Time     :  115354.452
------------------------------------------------------------
  Evaluating new KS density.
  Integration grid: deviation in total charge (<rho> - N_e) =   7.105427E-15
  Pulay mixing of updated and previous charge densities.

  Evaluating partitioned Hartree potential by multipole expansion.
  | Analytical far-field extrapolation by fixed multipoles:
  | Hartree multipole sum: apparent total charge =  -0.204922E-05
  Summing up the Hartree potential.
  Time summed over all CPUs for potential: real work        2.565 s, elapsed        2.581 s
  | RMS charge density error from multipole expansion :   0.166523E-02

  Integrating Hamiltonian matrix: batch-based integration.
  Time summed over all CPUs for integration: real work        6.797 s, elapsed        6.888 s

  Updating Kohn-Sham eigenvalues, eigenvectors, occupation numbers, and Fermi level.
  Solving generalized eigenproblem
  Updating Kohn-Sham eigenvalues and eigenfunctions.
  Solving real generalised eigenvalue problem by standard LAPACK (fast)
  Determining occupation numbers for Kohn-Sham eigenstates.
  | Chemical potential (Fermi level) in eV                 : -.45251442E+01
  | Error in electron count due to remaining E_F inaccuracy: 0.00000000E+00
  | Maximum occupation number of highest empty state:  0.00E+00

  Writing Kohn-Sham eigenvalues.

  State    Occupation    Eigenvalue [Ha]    Eigenvalue [eV]
      1       2.00000         -18.997307         -516.94303
      2       2.00000         -18.975326         -516.34488
      3       2.00000         -18.968614         -516.16226
      4       2.00000         -18.964321         -516.04542
      5       2.00000         -18.928289         -515.06495
      6       2.00000          -1.089499          -29.64677
      7       2.00000          -1.064957          -28.97895
      8       2.00000          -1.052568          -28.64183
      9       2.00000          -1.052450          -28.63862
     10       2.00000          -0.992566          -27.00909
     11       2.00000          -0.623107          -16.95560
     12       2.00000          -0.613814          -16.70273
     13       2.00000          -0.604503          -16.44937
     14       2.00000          -0.587383          -15.98349
     15       2.00000          -0.558957          -15.20999
     16       2.00000          -0.484449          -13.18253
     17       2.00000          -0.464760          -12.64677
     18       2.00000          -0.462197          -12.57702
     19       2.00000          -0.457216          -12.44148
     20       2.00000          -0.438226          -11.92473
     21       2.00000          -0.398058          -10.83171
     22       2.00000          -0.397096          -10.80553
     23       2.00000          -0.391424          -10.65118
     24       2.00000          -0.390202          -10.61792
     25       2.00000          -0.349419           -9.50817
     26       0.00000          -0.091635           -2.49351
     27       0.00000          -0.060860           -1.65609
     28       0.00000          -0.052039           -1.41604
     29       0.00000          -0.042993           -1.16991
     30       0.00000          -0.019987           -0.54387
     31       0.00000          -0.006620           -0.18014
     32       0.00000          -0.001792           -0.04877
     33       0.00000           0.032110            0.87375
     34       0.00000           0.050200            1.36601
     35       0.00000           0.057004            1.55115
     36       0.00000           0.081557            2.21928
     37       0.00000           0.091579            2.49199
     38       0.00000           0.097792            2.66105
     39       0.00000           0.101087            2.75071
     40       0.00000           0.109919            2.99105
     41       0.00000           0.115499            3.14288
     42       0.00000           0.121647            3.31017
     43       0.00000           0.128596            3.49928
     44       0.00000           0.131298            3.57281
     45       0.00000           0.140345            3.81897
     46       0.00000           0.148021            4.02786
     47       0.00000           0.152030            4.13694
     48       0.00000           0.160501            4.36744
     49       0.00000           0.172226            4.68650
     50       0.00000           0.183179            4.98455
     51       0.00000           0.201946            5.49522
     52       0.00000           0.207978            5.65938
     53       0.00000           0.221217            6.01962
     54       0.00000           0.235249            6.40146
     55       0.00000           0.252702            6.87638
     56       0.00000           0.280108            7.62213
     57       0.00000           0.285931            7.78058
     58       0.00000           0.297444            8.09385
     59       0.00000           0.307324            8.36271
     60       0.00000           0.322161            8.76646
     61       0.00000           0.342967            9.33260
     62       0.00000           0.348243            9.47617
     63       0.00000           0.360872            9.81983
     64       0.00000           0.388722           10.57765
     65       0.00000           0.400912           10.90938
     66       0.00000           0.404372           11.00353
     67       0.00000           0.417589           11.36317
     68       0.00000           0.427768           11.64015
     69       0.00000           0.439047           11.94708
     70       0.00000           0.447043           12.16465
     71       0.00000           0.450624           12.26210
     72       0.00000           0.461036           12.54542
     73       0.00000           0.486680           13.24324
     74       0.00000           0.489598           13.32265
     75       0.00000           0.502022           13.66072
     76       0.00000           0.519571           14.13825
     77       0.00000           0.533406           14.51472
     78       0.00000           0.561877           15.28944
     79       0.00000           0.574513           15.63330
     80       0.00000           0.582513           15.85098
     81       0.00000           0.596013           16.21834
     82       0.00000           0.602554           16.39632
     83       0.00000           0.626863           17.05782
     84       0.00000           0.680387           18.51426
     85       0.00000           0.705985           19.21083

  Highest occupied state (VBM) at     -9.50817193 eV
  | Occupation number:      2.00000000

  Lowest unoccupied state (CBM) at    -2.49350505 eV
  | Occupation number:      0.00000000

  Overall HOMO-LUMO gap:      7.01466688 eV.

  Total energy components:
  | Sum of eigenvalues            :        -214.61341336 Ha       -5839.92810992 eV
  | XC energy correction          :         -45.80017366 Ha       -1246.28613572 eV
  | XC potential correction       :          58.52209367 Ha        1592.46719257 eV
  | Free-atom electrostatic energy:        -178.72343144 Ha       -4863.31201219 eV
  | Hartree energy correction     :          -2.32196522 Ha         -63.18388843 eV
  | van der Waals energy corr.    :           0.00000000 Ha           0.00000000 eV
  | Entropy correction            :           0.00000000 Ha           0.00000000 eV
  | ---------------------------
  | Total energy                  :        -382.93689002 Ha      -10420.24295369 eV
  | Total energy, T -> 0          :        -382.93689002 Ha      -10420.24295369 eV  <-- do not rely on this value for anything but (periodic) metals
  | Electronic free energy        :        -382.93689002 Ha      -10420.24295369 eV

  Derived energy quantities:
  | Kinetic energy                :         380.59587770 Ha       10356.54076725 eV
  | Electrostatic energy          :        -717.73259406 Ha      -19530.49758522 eV
  | Energy correction for multipole
  | error in Hartree potential    :          -0.00014334 Ha          -0.00390039 eV
  | Sum of eigenvalues per atom                           :        -389.32854066 eV
  | Total energy (T->0) per atom                          :        -694.68286358 eV  <-- do not rely on this value for anything but (periodic) metals
  | Electronic free energy per atom                       :        -694.68286358 eV

  Self-consistency convergence accuracy:
  | Change of charge density      : 0.6867E+00
  | Change of sum of eigenvalues  : 0.6540E+02 eV
  | Change of total energy        : 0.4354E+01 eV

  End self-consistency iteration #     1       :  max(cpu_time)    wall_clock(cpu1)
  | Time for this iteration                    :        1.872 s           1.871 s
  | Charge density update                      :        0.622 s           0.622 s
  | Density mixing                             :        0.003 s           0.004 s
  | Hartree multipole update                   :        0.005 s           0.005 s
  | Hartree multipole summation                :        0.323 s           0.323 s
  | Integration                                :        0.863 s           0.863 s
  | Solution of K.-S. eqns.                    :        0.054 s           0.053 s
  | Total energy evaluation                    :        0.001 s           0.000 s
------------------------------------------------------------

------------------------------------------------------------
          Begin self-consistency iteration #    2

  Date     :  20150727, Time     :  115356.323
------------------------------------------------------------
  Evaluating new KS density.
  Integration grid: deviation in total charge (<rho> - N_e) =   0.000000E+00
  Pulay mixing of updated and previous charge densities.

  Evaluating partitioned Hartree potential by multipole expansion.
  | Analytical far-field extrapolation by fixed multipoles:
  | Hartree multipole sum: apparent total charge =  -0.593214E-05
  Summing up the Hartree potential.
  Time summed over all CPUs for potential: real work        2.565 s, elapsed        2.580 s
  | RMS charge density error from multipole expansion :   0.666219E-02

  Integrating Hamiltonian matrix: batch-based integration.
  Time summed over all CPUs for integration: real work        6.790 s, elapsed        6.907 s

  Updating Kohn-Sham eigenvalues, eigenvectors, occupation numbers, and Fermi level.
  Solving generalized eigenproblem
  Updating Kohn-Sham eigenvalues and eigenfunctions.
  Solving real generalised eigenvalue problem by standard LAPACK (fast)
  Determining occupation numbers for Kohn-Sham eigenstates.
  | Chemical potential (Fermi level) in eV                 : -.32739210E+01
  | Error in electron count due to remaining E_F inaccuracy: 0.00000000E+00
  | Maximum occupation number of highest empty state:  0.00E+00

  Highest occupied state (VBM) at     -6.05864573 eV
  | Occupation number:      2.00000000

  Lowest unoccupied state (CBM) at    -2.02187868 eV
  | Occupation number:      0.00000000

  Overall HOMO-LUMO gap:      4.03676705 eV.

  Total energy components:
  | Sum of eigenvalues            :        -208.95059229 Ha       -5685.83490838 eV
  | XC energy correction          :         -46.42251473 Ha       -1263.22089787 eV
  | XC potential correction       :          59.33694546 Ha        1614.64043795 eV
  | Free-atom electrostatic energy:        -178.72343144 Ha       -4863.31201219 eV
  | Hartree energy correction     :          -7.99153859 Ha        -217.46082921 eV
  | van der Waals energy corr.    :           0.00000000 Ha           0.00000000 eV
  | Entropy correction            :           0.00000000 Ha           0.00000000 eV
  | ---------------------------
  | Total energy                  :        -382.75113160 Ha      -10415.18820970 eV
  | Total energy, T -> 0          :        -382.75113160 Ha      -10415.18820970 eV  <-- do not rely on this value for anything but (periodic) metals
  | Electronic free energy        :        -382.75113160 Ha      -10415.18820970 eV

  Derived energy quantities:
  | Kinetic energy                :         383.62343720 Ha       10438.92485291 eV
  | Electrostatic energy          :        -719.95205407 Ha      -19590.89216473 eV
  | Energy correction for multipole
  | error in Hartree potential    :          -0.00124131 Ha          -0.03377784 eV
  | Sum of eigenvalues per atom                           :        -379.05566056 eV
  | Total energy (T->0) per atom                          :        -694.34588065 eV  <-- do not rely on this value for anything but (periodic) metals
  | Electronic free energy per atom                       :        -694.34588065 eV

  Self-consistency convergence accuracy:
  | Change of charge density      : 0.5188E+00
  | Change of sum of eigenvalues  : 0.1541E+03 eV
  | Change of total energy        : 0.5055E+01 eV

  End self-consistency iteration #     2       :  max(cpu_time)    wall_clock(cpu1)
  | Time for this iteration                    :        1.872 s           1.873 s
  | Charge density update                      :        0.620 s           0.620 s
  | Density mixing                             :        0.005 s           0.006 s
  | Hartree multipole update                   :        0.005 s           0.004 s
  | Hartree multipole summation                :        0.323 s           0.323 s
  | Integration                                :        0.865 s           0.865 s
  | Solution of K.-S. eqns.                    :        0.054 s           0.053 s
  | Total energy evaluation                    :        0.000 s           0.000 s
------------------------------------------------------------

------------------------------------------------------------
          Begin self-consistency iteration #    3

  Date     :  20150727, Time     :  115358.196
------------------------------------------------------------
  Evaluating new KS density.
  Integration grid: deviation in total charge (<rho> - N_e) =  -1.421085E-14
  Pulay mixing of updated and previous charge densities.

  Evaluating partitioned Hartree potential by multipole expansion.
  | Analytical far-field extrapolation by fixed multipoles:
  | Hartree multipole sum: apparent total charge =  -0.571236E-05
  Summing up the Hartree potential.
  Time summed over all CPUs for potential: real work        2.565 s, elapsed        2.581 s
  | RMS charge density error from multipole expansion :   0.133974E-01

  Integrating Hamiltonian matrix: batch-based integration.
  Time summed over all CPUs for integration: real work        6.791 s, elapsed        6.916 s

  Updating Kohn-Sham eigenvalues, eigenvectors, occupation numbers, and Fermi level.
  Solving generalized eigenproblem
  Updating Kohn-Sham eigenvalues and eigenfunctions.
  Solving real generalised eigenvalue problem by standard LAPACK (fast)
  Determining occupation numbers for Kohn-Sham eigenstates.
  | Chemical potential (Fermi level) in eV                 : -.30181461E+01
  | Error in electron count due to remaining E_F inaccuracy: 0.00000000E+00
  | Maximum occupation number of highest empty state:  0.00E+00

  Highest occupied state (VBM) at     -5.94568360 eV
  | Occupation number:      2.00000000

  Lowest unoccupied state (CBM) at    -1.95076545 eV
  | Occupation number:      0.00000000

  Overall HOMO-LUMO gap:      3.99491814 eV.

  Total energy components:
  | Sum of eigenvalues            :        -209.32406543 Ha       -5695.99762951 eV
  | XC energy correction          :         -46.37306330 Ha       -1261.87525598 eV
  | XC potential correction       :          59.26778636 Ha        1612.75852316 eV
  | Free-atom electrostatic energy:        -178.72343144 Ha       -4863.31201219 eV
  | Hartree energy correction     :          -7.59476685 Ha        -206.66412092 eV
  | van der Waals energy corr.    :           0.00000000 Ha           0.00000000 eV
  | Entropy correction            :           0.00000000 Ha           0.00000000 eV
  | ---------------------------
  | Total energy                  :        -382.74754066 Ha      -10415.09049544 eV
  | Total energy, T -> 0          :        -382.74754066 Ha      -10415.09049544 eV  <-- do not rely on this value for anything but (periodic) metals
  | Electronic free energy        :        -382.74754066 Ha      -10415.09049544 eV

  Derived energy quantities:
  | Kinetic energy                :         381.41366473 Ha       10378.79388449 eV
  | Electrostatic energy          :        -717.78814209 Ha      -19532.00912395 eV
  | Energy correction for multipole
  | error in Hartree potential    :          -0.00534971 Ha          -0.14557304 eV
  | Sum of eigenvalues per atom                           :        -379.73317530 eV
  | Total energy (T->0) per atom                          :        -694.33936636 eV  <-- do not rely on this value for anything but (periodic) metals
  | Electronic free energy per atom                       :        -694.33936636 eV

  Self-consistency convergence accuracy:
  | Change of charge density      : 0.2593E+00
  | Change of sum of eigenvalues  : -.1016E+02 eV
  | Change of total energy        : 0.9771E-01 eV

  End self-consistency iteration #     3       :  max(cpu_time)    wall_clock(cpu1)
  | Time for this iteration                    :        1.871 s           1.872 s
  | Charge density update                      :        0.616 s           0.616 s
  | Density mixing                             :        0.007 s           0.007 s
  | Hartree multipole update                   :        0.005 s           0.005 s
  | Hartree multipole summation                :        0.323 s           0.323 s
  | Integration                                :        0.866 s           0.866 s
  | Solution of K.-S. eqns.                    :        0.054 s           0.054 s
  | Total energy evaluation                    :        0.000 s           0.001 s
------------------------------------------------------------

------------------------------------------------------------
          Begin self-consistency iteration #    4

  Date     :  20150727, Time     :  115400.068
------------------------------------------------------------
  Evaluating new KS density.
  Integration grid: deviation in total charge (<rho> - N_e) =   2.131628E-14
  Pulay mixing of updated and previous charge densities.

  Evaluating partitioned Hartree potential by multipole expansion.
  | Analytical far-field extrapolation by fixed multipoles:
  | Hartree multipole sum: apparent total charge =  -0.696468E-05
  Summing up the Hartree potential.
  Time summed over all CPUs for potential: real work        2.564 s, elapsed        2.580 s
  | RMS charge density error from multipole expansion :   0.174311E-01

  Integrating Hamiltonian matrix: batch-based integration.
  Time summed over all CPUs for integration: real work        6.804 s, elapsed        6.935 s

  Updating Kohn-Sham eigenvalues, eigenvectors, occupation numbers, and Fermi level.
  Solving generalized eigenproblem
  Updating Kohn-Sham eigenvalues and eigenfunctions.
  Solving real generalised eigenvalue problem by standard LAPACK (fast)
  Determining occupation numbers for Kohn-Sham eigenstates.
  | Chemical potential (Fermi level) in eV                 : -.25024550E+01
  | Error in electron count due to remaining E_F inaccuracy: 0.00000000E+00
  | Maximum occupation number of highest empty state:  0.00E+00

  Highest occupied state (VBM) at     -4.67074229 eV
  | Occupation number:      2.00000000

  Lowest unoccupied state (CBM) at    -1.80795283 eV
  | Occupation number:      0.00000000

  Overall HOMO-LUMO gap:      2.86278946 eV.

  Total energy components:
  | Sum of eigenvalues            :        -207.47162814 Ha       -5645.59024616 eV
  | XC energy correction          :         -46.59534436 Ha       -1267.92383119 eV
  | XC potential correction       :          59.55866164 Ha        1620.67364224 eV
  | Free-atom electrostatic energy:        -178.72343144 Ha       -4863.31201219 eV
  | Hartree energy correction     :          -9.50018259 Ha        -258.51312136 eV
  | van der Waals energy corr.    :           0.00000000 Ha           0.00000000 eV
  | Entropy correction            :           0.00000000 Ha           0.00000000 eV
  | ---------------------------
  | Total energy                  :        -382.73192489 Ha      -10414.66556865 eV
  | Total energy, T -> 0          :        -382.73192489 Ha      -10414.66556865 eV  <-- do not rely on this value for anything but (periodic) metals
  | Electronic free energy        :        -382.73192489 Ha      -10414.66556865 eV

  Derived energy quantities:
  | Kinetic energy                :         381.69225442 Ha       10386.37469569 eV
  | Electrostatic energy          :        -717.82883496 Ha      -19533.11643316 eV
  | Energy correction for multipole
  | error in Hartree potential    :          -0.00717446 Ha          -0.19522688 eV
  | Sum of eigenvalues per atom                           :        -376.37268308 eV
  | Total energy (T->0) per atom                          :        -694.31103791 eV  <-- do not rely on this value for anything but (periodic) metals
  | Electronic free energy per atom                       :        -694.31103791 eV

  Self-consistency convergence accuracy:
  | Change of charge density      : 0.1537E+00
  | Change of sum of eigenvalues  : 0.5041E+02 eV
  | Change of total energy        : 0.4249E+00 eV

  End self-consistency iteration #     4       :  max(cpu_time)    wall_clock(cpu1)
  | Time for this iteration                    :        1.877 s           1.877 s
  | Charge density update                      :        0.614 s           0.614 s
  | Density mixing                             :        0.008 s           0.009 s
  | Hartree multipole update                   :        0.004 s           0.004 s
  | Hartree multipole summation                :        0.324 s           0.324 s
  | Integration                                :        0.868 s           0.868 s
  | Solution of K.-S. eqns.                    :        0.054 s           0.058 s
  | Total energy evaluation                    :        0.000 s           0.000 s
------------------------------------------------------------

------------------------------------------------------------
          Begin self-consistency iteration #    5

  Date     :  20150727, Time     :  115401.945
------------------------------------------------------------
  Evaluating new KS density.
  Integration grid: deviation in total charge (<rho> - N_e) =   2.842171E-14
  Pulay mixing of updated and previous charge densities.

  Evaluating partitioned Hartree potential by multipole expansion.
  | Analytical far-field extrapolation by fixed multipoles:
  | Hartree multipole sum: apparent total charge =  -0.698725E-05
  Summing up the Hartree potential.
  Time summed over all CPUs for potential: real work        2.564 s, elapsed        2.580 s
  | RMS charge density error from multipole expansion :   0.180440E-01

  Integrating Hamiltonian matrix: batch-based integration.
  Time summed over all CPUs for integration: real work        6.782 s, elapsed        6.886 s

  Updating Kohn-Sham eigenvalues, eigenvectors, occupation numbers, and Fermi level.
  Solving generalized eigenproblem
  Updating Kohn-Sham eigenvalues and eigenfunctions.
  Solving real generalised eigenvalue problem by standard LAPACK (fast)
  Determining occupation numbers for Kohn-Sham eigenstates.
  | Chemical potential (Fermi level) in eV                 : -.24838870E+01
  | Error in electron count due to remaining E_F inaccuracy: 0.00000000E+00
  | Maximum occupation number of highest empty state:  0.00E+00

  Highest occupied state (VBM) at     -4.48111436 eV
  | Occupation number:      2.00000000

  Lowest unoccupied state (CBM) at    -1.80171382 eV
  | Occupation number:      0.00000000

  Overall HOMO-LUMO gap:      2.67940054 eV.

  Total energy components:
  | Sum of eigenvalues            :        -207.33717026 Ha       -5641.93146102 eV
  | XC energy correction          :         -46.61432465 Ha       -1268.44031119 eV
  | XC potential correction       :          59.58314564 Ha        1621.33988565 eV
  | Free-atom electrostatic energy:        -178.72343144 Ha       -4863.31201219 eV
  | Hartree energy correction     :          -9.63995040 Ha        -262.31639689 eV
  | van der Waals energy corr.    :           0.00000000 Ha           0.00000000 eV
  | Entropy correction            :           0.00000000 Ha           0.00000000 eV
  | ---------------------------
  | Total energy                  :        -382.73173111 Ha      -10414.66029565 eV
  | Total energy, T -> 0          :        -382.73173111 Ha      -10414.66029565 eV  <-- do not rely on this value for anything but (periodic) metals
  | Electronic free energy        :        -382.73173111 Ha      -10414.66029565 eV

  Derived energy quantities:
  | Kinetic energy                :         381.74253159 Ha       10387.74280700 eV
  | Electrostatic energy          :        -717.85993805 Ha      -19533.96279145 eV
  | Energy correction for multipole
  | error in Hartree potential    :          -0.00728047 Ha          -0.19811164 eV
  | Sum of eigenvalues per atom                           :        -376.12876407 eV
  | Total energy (T->0) per atom                          :        -694.31068638 eV  <-- do not rely on this value for anything but (periodic) metals
  | Electronic free energy per atom                       :        -694.31068638 eV

  Self-consistency convergence accuracy:
  | Change of charge density      : 0.3018E-01
  | Change of sum of eigenvalues  : 0.3659E+01 eV
  | Change of total energy        : 0.5273E-02 eV

  End self-consistency iteration #     5       :  max(cpu_time)    wall_clock(cpu1)
  | Time for this iteration                    :        1.869 s           1.869 s
  | Charge density update                      :        0.615 s           0.615 s
  | Density mixing                             :        0.010 s           0.009 s
  | Hartree multipole update                   :        0.004 s           0.005 s
  | Hartree multipole summation                :        0.324 s           0.323 s
  | Integration                                :        0.862 s           0.863 s
  | Solution of K.-S. eqns.                    :        0.054 s           0.053 s
  | Total energy evaluation                    :        0.000 s           0.000 s
------------------------------------------------------------

------------------------------------------------------------
          Begin self-consistency iteration #    6

  Date     :  20150727, Time     :  115403.814
------------------------------------------------------------
  Evaluating new KS density.
  Integration grid: deviation in total charge (<rho> - N_e) =   1.421085E-14
  Pulay mixing of updated and previous charge densities.

  Evaluating partitioned Hartree potential by multipole expansion.
  | Analytical far-field extrapolation by fixed multipoles:
  | Hartree multipole sum: apparent total charge =  -0.700506E-05
  Summing up the Hartree potential.
  Time summed over all CPUs for potential: real work        2.563 s, elapsed        2.579 s
  | RMS charge density error from multipole expansion :   0.184070E-01

  Integrating Hamiltonian matrix: batch-based integration.
  Time summed over all CPUs for integration: real work        6.776 s, elapsed        6.871 s

  Updating Kohn-Sham eigenvalues, eigenvectors, occupation numbers, and Fermi level.
  Solving generalized eigenproblem
  Updating Kohn-Sham eigenvalues and eigenfunctions.
  Solving real generalised eigenvalue problem by standard LAPACK (fast)
  Determining occupation numbers for Kohn-Sham eigenstates.
  | Chemical potential (Fermi level) in eV                 : -.24596312E+01
  | Error in electron count due to remaining E_F inaccuracy: 0.00000000E+00
  | Maximum occupation number of highest empty state:  0.00E+00

  Highest occupied state (VBM) at     -4.41436750 eV
  | Occupation number:      2.00000000

  Lowest unoccupied state (CBM) at    -1.79310357 eV
  | Occupation number:      0.00000000

  Overall HOMO-LUMO gap:      2.62126393 eV.

  Total energy components:
  | Sum of eigenvalues            :        -207.24043110 Ha       -5639.29905462 eV
  | XC energy correction          :         -46.62728429 Ha       -1268.79296093 eV
  | XC potential correction       :          59.59997217 Ha        1621.79775885 eV
  | Free-atom electrostatic energy:        -178.72343144 Ha       -4863.31201219 eV
  | Hartree energy correction     :          -9.74071022 Ha        -265.05821112 eV
  | van der Waals energy corr.    :           0.00000000 Ha           0.00000000 eV
  | Entropy correction            :           0.00000000 Ha           0.00000000 eV
  | ---------------------------
  | Total energy                  :        -382.73188488 Ha      -10414.66448000 eV
  | Total energy, T -> 0          :        -382.73188488 Ha      -10414.66448000 eV  <-- do not rely on this value for anything but (periodic) metals
  | Electronic free energy        :        -382.73188488 Ha      -10414.66448000 eV

  Derived energy quantities:
  | Kinetic energy                :         381.76495508 Ha       10388.35298121 eV
  | Electrostatic energy          :        -717.86955567 Ha      -19534.22450028 eV
  | Energy correction for multipole
  | error in Hartree potential    :          -0.00736654 Ha          -0.20045382 eV
  | Sum of eigenvalues per atom                           :        -375.95327031 eV
  | Total energy (T->0) per atom                          :        -694.31096533 eV  <-- do not rely on this value for anything but (periodic) metals
  | Electronic free energy per atom                       :        -694.31096533 eV

  Self-consistency convergence accuracy:
  | Change of charge density      : 0.1051E-01
  | Change of sum of eigenvalues  : 0.2632E+01 eV
  | Change of total energy        : -.4184E-02 eV

  End self-consistency iteration #     6       :  max(cpu_time)    wall_clock(cpu1)
  | Time for this iteration                    :        1.867 s           1.866 s
  | Charge density update                      :        0.613 s           0.613 s
  | Density mixing                             :        0.011 s           0.011 s
  | Hartree multipole update                   :        0.005 s           0.004 s
  | Hartree multipole summation                :        0.323 s           0.324 s
  | Integration                                :        0.861 s           0.860 s
  | Solution of K.-S. eqns.                    :        0.054 s           0.054 s
  | Total energy evaluation                    :        0.000 s           0.000 s
------------------------------------------------------------

------------------------------------------------------------
          Begin self-consistency iteration #    7

  Date     :  20150727, Time     :  115405.680
------------------------------------------------------------
  Evaluating new KS density.
  Integration grid: deviation in total charge (<rho> - N_e) =  -7.105427E-15
  Pulay mixing of updated and previous charge densities.

  Evaluating partitioned Hartree potential by multipole expansion.
  | Analytical far-field extrapolation by fixed multipoles:
  | Hartree multipole sum: apparent total charge =  -0.676113E-05
  Summing up the Hartree potential.
  Time summed over all CPUs for potential: real work        2.564 s, elapsed        2.580 s
  | RMS charge density error from multipole expansion :   0.182789E-01

  Integrating Hamiltonian matrix: batch-based integration.
  Time summed over all CPUs for integration: real work        6.774 s, elapsed        6.849 s

  Updating Kohn-Sham eigenvalues, eigenvectors, occupation numbers, and Fermi level.
  Solving generalized eigenproblem
  Updating Kohn-Sham eigenvalues and eigenfunctions.
  Solving real generalised eigenvalue problem by standard LAPACK (fast)
  Determining occupation numbers for Kohn-Sham eigenstates.
  | Chemical potential (Fermi level) in eV                 : -.25217468E+01
  | Error in electron count due to remaining E_F inaccuracy: 0.00000000E+00
  | Maximum occupation number of highest empty state:  0.00E+00

  Highest occupied state (VBM) at     -4.60144256 eV
  | Occupation number:      2.00000000

  Lowest unoccupied state (CBM) at    -1.80644201 eV
  | Occupation number:      0.00000000

  Overall HOMO-LUMO gap:      2.79500055 eV.

  Total energy components:
  | Sum of eigenvalues            :        -207.43429625 Ha       -5644.57439377 eV
  | XC energy correction          :         -46.60551801 Ha       -1268.20067040 eV
  | XC potential correction       :          59.57095058 Ha        1621.00804117 eV
  | Free-atom electrostatic energy:        -178.72343144 Ha       -4863.31201219 eV
  | Hartree energy correction     :          -9.53937275 Ha        -259.57953985 eV
  | van der Waals energy corr.    :           0.00000000 Ha           0.00000000 eV
  | Entropy correction            :           0.00000000 Ha           0.00000000 eV
  | ---------------------------
  | Total energy                  :        -382.73166788 Ha      -10414.65857504 eV
  | Total energy, T -> 0          :        -382.73166788 Ha      -10414.65857504 eV  <-- do not rely on this value for anything but (periodic) metals
  | Electronic free energy        :        -382.73166788 Ha      -10414.65857504 eV

  Derived energy quantities:
  | Kinetic energy                :         381.80795982 Ha       10389.52319974 eV
  | Electrostatic energy          :        -717.93410969 Ha      -19535.98110439 eV
  | Energy correction for multipole
  | error in Hartree potential    :          -0.00703503 Ha          -0.19143295 eV
  | Sum of eigenvalues per atom                           :        -376.30495958 eV
  | Total energy (T->0) per atom                          :        -694.31057167 eV  <-- do not rely on this value for anything but (periodic) metals
  | Electronic free energy per atom                       :        -694.31057167 eV

  Self-consistency convergence accuracy:
  | Change of charge density      : 0.1401E-01
  | Change of sum of eigenvalues  : -.5275E+01 eV
  | Change of total energy        : 0.5905E-02 eV

  End self-consistency iteration #     7       :  max(cpu_time)    wall_clock(cpu1)
  | Time for this iteration                    :        1.866 s           1.866 s
  | Charge density update                      :        0.613 s           0.613 s
  | Density mixing                             :        0.013 s           0.013 s
  | Hartree multipole update                   :        0.004 s           0.004 s
  | Hartree multipole summation                :        0.324 s           0.323 s
  | Integration                                :        0.857 s           0.857 s
  | Solution of K.-S. eqns.                    :        0.054 s           0.054 s
  | Total energy evaluation                    :        0.001 s           0.001 s
------------------------------------------------------------

------------------------------------------------------------
          Begin self-consistency iteration #    8

  Date     :  20150727, Time     :  115407.546
------------------------------------------------------------
  Evaluating new KS density.
  Integration grid: deviation in total charge (<rho> - N_e) =  -7.105427E-15
  Pulay mixing of updated and previous charge densities.

  Evaluating partitioned Hartree potential by multipole expansion.
  | Analytical far-field extrapolation by fixed multipoles:
  | Hartree multipole sum: apparent total charge =  -0.675930E-05
  Summing up the Hartree potential.
  Time summed over all CPUs for potential: real work        2.563 s, elapsed        2.579 s
  | RMS charge density error from multipole expansion :   0.183006E-01

  Integrating Hamiltonian matrix: batch-based integration.
  Time summed over all CPUs for integration: real work        6.776 s, elapsed        6.858 s

  Updating Kohn-Sham eigenvalues, eigenvectors, occupation numbers, and Fermi level.
  Solving generalized eigenproblem
  Updating Kohn-Sham eigenvalues and eigenfunctions.
  Solving real generalised eigenvalue problem by standard LAPACK (fast)
  Determining occupation numbers for Kohn-Sham eigenstates.
  | Chemical potential (Fermi level) in eV                 : -.25197890E+01
  | Error in electron count due to remaining E_F inaccuracy: 0.00000000E+00
  | Maximum occupation number of highest empty state:  0.00E+00

  Highest occupied state (VBM) at     -4.58527171 eV
  | Occupation number:      2.00000000

  Lowest unoccupied state (CBM) at    -1.80727129 eV
  | Occupation number:      0.00000000

  Overall HOMO-LUMO gap:      2.77800042 eV.

  Total energy components:
  | Sum of eigenvalues            :        -207.42925668 Ha       -5644.43726013 eV
  | XC energy correction          :         -46.60603275 Ha       -1268.21467722 eV
  | XC potential correction       :          59.57160787 Ha        1621.02592695 eV
  | Free-atom electrostatic energy:        -178.72343144 Ha       -4863.31201219 eV
  | Hartree energy correction     :          -9.54455410 Ha        -259.72053155 eV
  | van der Waals energy corr.    :           0.00000000 Ha           0.00000000 eV
  | Entropy correction            :           0.00000000 Ha           0.00000000 eV
  | ---------------------------
  | Total energy                  :        -382.73166711 Ha      -10414.65855415 eV
  | Total energy, T -> 0          :        -382.73166711 Ha      -10414.65855415 eV  <-- do not rely on this value for anything but (periodic) metals
  | Electronic free energy        :        -382.73166711 Ha      -10414.65855415 eV

  Derived energy quantities:
  | Kinetic energy                :         381.81102173 Ha       10389.60651862 eV
  | Electrostatic energy          :        -717.93665609 Ha      -19536.05039555 eV
  | Energy correction for multipole
  | error in Hartree potential    :          -0.00703817 Ha          -0.19151825 eV
  | Sum of eigenvalues per atom                           :        -376.29581734 eV
  | Total energy (T->0) per atom                          :        -694.31057028 eV  <-- do not rely on this value for anything but (periodic) metals
  | Electronic free energy per atom                       :        -694.31057028 eV

  Self-consistency convergence accuracy:
  | Change of charge density      : 0.1784E-02
  | Change of sum of eigenvalues  : 0.1371E+00 eV
  | Change of total energy        : 0.2089E-04 eV

  End self-consistency iteration #     8       :  max(cpu_time)    wall_clock(cpu1)
  | Time for this iteration                    :        1.868 s           1.867 s
  | Charge density update                      :        0.612 s           0.612 s
  | Density mixing                             :        0.013 s           0.014 s
  | Hartree multipole update                   :        0.005 s           0.005 s
  | Hartree multipole summation                :        0.323 s           0.323 s
  | Integration                                :        0.859 s           0.859 s
  | Solution of K.-S. eqns.                    :        0.054 s           0.054 s
  | Total energy evaluation                    :        0.001 s           0.000 s
------------------------------------------------------------

------------------------------------------------------------
          Begin self-consistency iteration #    9

  Date     :  20150727, Time     :  115409.413
------------------------------------------------------------
  Evaluating new KS density.
  Integration grid: deviation in total charge (<rho> - N_e) =   0.000000E+00
  Pulay mixing of updated and previous charge densities.

  Evaluating partitioned Hartree potential by multipole expansion.
  | Analytical far-field extrapolation by fixed multipoles:
  | Hartree multipole sum: apparent total charge =  -0.674744E-05
  Summing up the Hartree potential.
  Time summed over all CPUs for potential: real work        2.564 s, elapsed        2.580 s
  | RMS charge density error from multipole expansion :   0.183078E-01

  Integrating Hamiltonian matrix: batch-based integration.
  Time summed over all CPUs for integration: real work        6.781 s, elapsed        6.859 s

  Updating Kohn-Sham eigenvalues, eigenvectors, occupation numbers, and Fermi level.
  Solving generalized eigenproblem
  Updating Kohn-Sham eigenvalues and eigenfunctions.
  Solving real generalised eigenvalue problem by standard LAPACK (fast)
  Determining occupation numbers for Kohn-Sham eigenstates.
  | Chemical potential (Fermi level) in eV                 : -.25208773E+01
  | Error in electron count due to remaining E_F inaccuracy: 0.00000000E+00
  | Maximum occupation number of highest empty state:  0.00E+00

  Highest occupied state (VBM) at     -4.59284292 eV
  | Occupation number:      2.00000000

  Lowest unoccupied state (CBM) at    -1.80767492 eV
  | Occupation number:      0.00000000

  Overall HOMO-LUMO gap:      2.78516800 eV.

  Total energy components:
  | Sum of eigenvalues            :        -207.43425134 Ha       -5644.57317176 eV
  | XC energy correction          :         -46.60545630 Ha       -1268.19899120 eV
  | XC potential correction       :          59.57082367 Ha        1621.00458786 eV
  | Free-atom electrostatic energy:        -178.72343144 Ha       -4863.31201219 eV
  | Hartree energy correction     :          -9.53935093 Ha        -259.57894594 eV
  | van der Waals energy corr.    :           0.00000000 Ha           0.00000000 eV
  | Entropy correction            :           0.00000000 Ha           0.00000000 eV
  | ---------------------------
  | Total energy                  :        -382.73166634 Ha      -10414.65853324 eV
  | Total energy, T -> 0          :        -382.73166634 Ha      -10414.65853324 eV  <-- do not rely on this value for anything but (periodic) metals
  | Electronic free energy        :        -382.73166634 Ha      -10414.65853324 eV

  Derived energy quantities:
  | Kinetic energy                :         381.81449646 Ha       10389.70107096 eV
  | Electrostatic energy          :        -717.94070651 Ha      -19536.16061299 eV
  | Energy correction for multipole
[...]
   ----------------------------------------------------------------
   Total forces(   4)            : -.342247E+00 -.142836E+01 -.369792E+00
  atom #    5
   Hellmann-Feynman + Multipole  : -.499463E+00 0.409714E+00 0.842755E+00
   Pulay + GGA                   : 0.439472E-01 0.891310E-01 0.117814E+00
   Van der Waals               : -.115947E-02 0.407765E-02 -.151248E-02
   ----------------------------------------------------------------
   Total forces(   5)            : -.456675E+00 0.502922E+00 0.959056E+00
  atom #    6
   Hellmann-Feynman + Multipole  : 0.687322E+00 0.863314E+00 0.255504E+00
   Pulay + GGA                   : -.113934E+00 -.618744E-01 0.653029E-01
   Van der Waals               : 0.786961E-03 0.213296E-02 -.127519E-02
   ----------------------------------------------------------------
   Total forces(   6)            : 0.574175E+00 0.803573E+00 0.319532E+00
  atom #    7
   Hellmann-Feynman + Multipole  : -.606955E+01 -.907299E+01 0.926994E+01
   Pulay + GGA                   : 0.620610E+01 0.101384E+02 -.671118E+01
   Van der Waals               : -.156387E-02 0.426362E-02 0.665024E-02
   ----------------------------------------------------------------
   Total forces(   7)            : 0.134992E+00 0.106972E+01 0.256541E+01
  atom #    8
   Hellmann-Feynman + Multipole  : -.417528E+00 -.798804E+00 -.470394E+00
   Pulay + GGA                   : 0.453989E-01 0.124954E+00 0.372765E-01
   Van der Waals               : 0.166871E-02 0.820238E-03 0.443643E-02
   ----------------------------------------------------------------
   Total forces(   8)            : -.370460E+00 -.673030E+00 -.428681E+00
  atom #    9
   Hellmann-Feynman + Multipole  : -.235110E+00 0.403938E+00 -.232403E+01
   Pulay + GGA                   : -.394112E-01 0.398070E-01 -.123319E+00
   Van der Waals               : 0.903318E-03 -.398146E-03 0.143432E-02
   ----------------------------------------------------------------
   Total forces(   9)            : -.273618E+00 0.443347E+00 -.244591E+01
  atom #   10
   Hellmann-Feynman + Multipole  : -.184296E+01 -.369107E+01 -.168881E+02
   Pulay + GGA                   : 0.255475E+01 0.412173E+01 0.152887E+02
   Van der Waals               : -.141934E-01 -.577290E-02 -.324492E-02
   ----------------------------------------------------------------
   Total forces(  10)            : 0.697590E+00 0.424880E+00 -.160264E+01
  atom #   11
   Hellmann-Feynman + Multipole  : -.512836E+00 -.330036E+00 0.334848E+00
   Pulay + GGA                   : 0.101639E+00 0.768566E-01 0.539425E-01
   Van der Waals               : -.221915E-02 -.866822E-03 -.554491E-03
   ----------------------------------------------------------------
   Total forces(  11)            : -.413416E+00 -.254046E+00 0.388236E+00
  atom #   12
   Hellmann-Feynman + Multipole  : -.268971E+00 -.852555E-01 0.106025E+01
   Pulay + GGA                   : -.843448E-01 -.425638E-01 0.100393E+00
   Van der Waals               : -.528627E-02 -.391107E-03 -.429621E-02
   ----------------------------------------------------------------
   Total forces(  12)            : -.358602E+00 -.128210E+00 0.115635E+01
  atom #   13
   Hellmann-Feynman + Multipole  : 0.909887E+00 -.162398E+02 0.194509E+01
   Pulay + GGA                   : 0.451504E+00 0.163645E+02 -.377426E+01
   Van der Waals               : 0.783951E-02 -.886239E-02 -.683995E-02
   ----------------------------------------------------------------
   Total forces(  13)            : 0.136923E+01 0.115815E+00 -.183602E+01
  atom #   14
   Hellmann-Feynman + Multipole  : -.244464E+00 0.558436E+00 0.188987E+00
   Pulay + GGA                   : -.753808E-01 0.950829E-01 0.880176E-01
   Van der Waals               : 0.125566E-02 -.135478E-02 -.953922E-03
   ----------------------------------------------------------------
   Total forces(  14)            : -.318590E+00 0.652164E+00 0.276050E+00
  atom #   15
   Hellmann-Feynman + Multipole  : -.103461E+01 -.840021E+00 0.172252E+01
   Pulay + GGA                   : 0.552068E-01 0.703977E-01 -.119014E+00
   Van der Waals               : 0.459650E-02 -.539015E-02 -.182258E-02
   ----------------------------------------------------------------
   Total forces(  15)            : -.974803E+00 -.775014E+00 0.160168E+01
  Timings for vdw_correction_hirshfeld (Tkatchenko-Scheffler 2009):
  | CPU time:        5.050 s, Wall clock time:        5.050 s.
  Removing unitary transformations (pure translations, rotations) from forces on atoms.
  Atomic forces before filtering:
  | Net force on center of mass :  0.836354E-02 0.434699E-02 -.547422E-02 eV/A
  | Net torque on center of mass:  0.538504E-02 -.328996E-02 -.498107E-02 eV
  Atomic forces after filtering:
  | Net force on center of mass :  0.178406E-15 -.178406E-14 0.000000E+00 eV/A
  | Net torque on center of mass:  -.264344E-14 -.320989E-14 0.755268E-15 eV
 
  Energy and forces in a compact form:
  | Total energy uncorrected      :         -0.104147260333501E+05 eV
  | Total energy corrected        :         -0.104147260333501E+05 eV  <-- do not rely on this value for anything but (periodic) metals
  | Electronic free energy        :         -0.104147260333501E+05 eV
  Total atomic forces (unitary forces cleaned) [eV/Ang]:
  |   1          0.849570047768460E+00          0.274770069104305E+01         -0.173042863524713E+01
  |   2          0.195352592357227E+01         -0.304466111387678E+01          0.127113503948357E+01
  |   3         -0.206388987296901E+01         -0.453526601469331E+00         -0.128127107359719E+00
  |   4         -0.342579301700252E+00         -0.142859701091116E+01         -0.369266367934025E+00
  |   5         -0.457029733662788E+00          0.502735018045876E+00          0.959521106159795E+00
  |   6          0.573892967451212E+00          0.803291011853635E+00          0.320131932069218E+00
  |   7          0.134298066105434E+00          0.106921681993254E+01          0.256581643741391E+01
  |   8         -0.371192983125180E+00         -0.673477166279531E+00         -0.428351342677601E+00
  |   9         -0.274371511517763E+00          0.442774690720485E+00         -0.244550645838645E+01
  |  10          0.697001249227295E+00          0.424800006233813E+00         -0.160245925410606E+01
  |  11         -0.414025002352998E+00         -0.254049049013751E+00          0.388341211539876E+00
  |  12         -0.359130766694927E+00         -0.128286511408805E+00          0.115657653255036E+01
  |  13          0.136862875179337E+01          0.115525598672757E+00         -0.183568993778892E+01
  |  14         -0.319215801197165E+00          0.651871439122617E+00          0.276357484601336E+00
  |  15         -0.975482032697957E+00         -0.775317822665417E+00          0.160194935968183E+01
 
  ------------------------------------ 
  Start decomposition of the XC Energy 
  ------------------------------------ 
  Hartree-Fock part   :          0.000000000 Ha              0.000000000 eV
  ------------------------------------ 
  X Energy            :        -44.975663501 Ha          -1223.850072671 eV
  C Energy GGA        :         -1.629455239 Ha            -44.339733029 eV
  Total XC Energy     :        -46.605118740 Ha          -1268.189805701 eV
  LDA X and C from self-consistent density 
  X Energy LDA        :        -40.513026340 Ha          -1102.415537000 eV
  C Energy LDA        :         -3.297994370 Ha            -89.742992880 eV
  ------------------------------------ 
  End decomposition of the XC Energy 
  ------------------------------------ 
  Performing Hirshfeld analysis of fragment charges and moments.
  ----------------------------------------------------------------------
  | Atom     1: O
  |   Hirshfeld charge        :     -0.34839179
  |   Free atom volume        :     23.95238533
  |   Hirshfeld volume        :     23.64190929
  |   Hirshfeld dipole vector :      0.01282740       0.05648754       0.02900488
  |   Hirshfeld dipole moment :      0.06478169
  |   Hirshfeld second moments:      0.02739889      -0.01267076       0.01615146
  |                                 -0.01267076      -0.05105713      -0.03138615
  |                                  0.01615146      -0.03138615      -0.07670016
  ----------------------------------------------------------------------
  | Atom     2: H
  |   Hirshfeld charge        :      0.06723591
  |   Free atom volume        :     10.44207651
  |   Hirshfeld volume        :      8.32389463
  |   Hirshfeld dipole vector :     -0.02574458       0.03785421      -0.00892693
  |   Hirshfeld dipole moment :      0.04664134
  |   Hirshfeld second moments:      0.07259369       0.03089232       0.00078712
  |                                  0.03089232       0.02932895       0.00787118
  |                                  0.00078712       0.00787118       0.06415994
  ----------------------------------------------------------------------
  | Atom     3: H
  |   Hirshfeld charge        :      0.09751870
  |   Free atom volume        :     10.44207651
  |   Hirshfeld volume        :      7.83126732
  |   Hirshfeld dipole vector :      0.10668454       0.02382562       0.01741531
  |   Hirshfeld dipole moment :      0.11069121
  |   Hirshfeld second moments:      0.08680346      -0.01676930      -0.00337274
  |                                 -0.01676930       0.07744155      -0.01506819
  |                                 -0.00337274      -0.01506819       0.06539976
  ----------------------------------------------------------------------
  | Atom     4: O
  |   Hirshfeld charge        :     -0.28088020
  |   Free atom volume        :     23.95238533
  |   Hirshfeld volume        :     21.83718575
  |   Hirshfeld dipole vector :     -0.03087216       0.02058774       0.01582865
  |   Hirshfeld dipole moment :      0.04034218
  |   Hirshfeld second moments:      0.02930237       0.05726893      -0.00742633
  |                                  0.05726893       0.03315828       0.02569786
  |                                 -0.00742633       0.02569786       0.00195404
  ----------------------------------------------------------------------
  | Atom     5: H
  |   Hirshfeld charge        :      0.12507193
  |   Free atom volume        :     10.44207651
  |   Hirshfeld volume        :      7.11370839
  |   Hirshfeld dipole vector :      0.03585465       0.08872573       0.05741784
  |   Hirshfeld dipole moment :      0.11160026
  |   Hirshfeld second moments:      0.10640858       0.01931085      -0.00576219
  |                                  0.01931085       0.08454833       0.00157105
  |                                 -0.00576219       0.00157105       0.09577401
  ----------------------------------------------------------------------
  | Atom     6: H
  |   Hirshfeld charge        :      0.14108311
  |   Free atom volume        :     10.44207651
  |   Hirshfeld volume        :      6.58276922
  |   Hirshfeld dipole vector :     -0.10320282      -0.06380552       0.02000000
  |   Hirshfeld dipole moment :      0.12297140
  |   Hirshfeld second moments:      0.10124489       0.01327177       0.00058403
  |                                  0.01327177       0.11547745       0.01310236
  |                                  0.00058403       0.01310236       0.10586415
  ----------------------------------------------------------------------
  | Atom     7: O
  |   Hirshfeld charge        :     -0.17129648
  |   Free atom volume        :     23.95238533
  |   Hirshfeld volume        :     19.91619154
  |   Hirshfeld dipole vector :      0.02928273      -0.01040543      -0.01458863
  |   Hirshfeld dipole moment :      0.03433044
  |   Hirshfeld second moments:      0.05080285       0.02048373       0.02889149
  |                                  0.02048373       0.09572885       0.01121578
  |                                  0.02889149       0.01121578       0.11159526
  ----------------------------------------------------------------------
  | Atom     8: H
  |   Hirshfeld charge        :      0.17813210
  |   Free atom volume        :     10.44207651
  |   Hirshfeld volume        :      6.16283262
  |   Hirshfeld dipole vector :      0.05555536       0.08919532       0.03951727
  |   Hirshfeld dipole moment :      0.11226672
  |   Hirshfeld second moments:      0.10949964      -0.00254596       0.00063727
  |                                 -0.00254596       0.12456146      -0.00607694
  |                                  0.00063727      -0.00607694       0.13546273
  ----------------------------------------------------------------------
  | Atom     9: H
  |   Hirshfeld charge        :      0.17474393
  |   Free atom volume        :     10.44207651
  |   Hirshfeld volume        :      5.65210289
  |   Hirshfeld dipole vector :     -0.01862470       0.00880246      -0.12006224
  |   Hirshfeld dipole moment :      0.12181669
  |   Hirshfeld second moments:      0.12771791       0.01142784       0.00826902
  |                                  0.01142784       0.14184104       0.00411399
  |                                  0.00826902       0.00411399       0.13018548
  ----------------------------------------------------------------------
  | Atom    10: O
  |   Hirshfeld charge        :     -0.29068203
  |   Free atom volume        :     23.95238533
  |   Hirshfeld volume        :     21.40377976
  |   Hirshfeld dipole vector :      0.00725946       0.00202524       0.05629317
  |   Hirshfeld dipole moment :      0.05679545
  |   Hirshfeld second moments:      0.05875623       0.05514895      -0.01378416
  |                                  0.05514895       0.00610196      -0.00342320
  |                                 -0.01378416      -0.00342320       0.01987210
  ----------------------------------------------------------------------
  | Atom    11: H
  |   Hirshfeld charge        :      0.15258122
  |   Free atom volume        :     10.44207651
  |   Hirshfeld volume        :      6.06966781
  |   Hirshfeld dipole vector :      0.10149086       0.06628360       0.03702225
  |   Hirshfeld dipole moment :      0.12674604
  |   Hirshfeld second moments:      0.12164429       0.01149161      -0.01257453
  |                                  0.01149161       0.10903780      -0.00611758
  |                                 -0.01257453      -0.00611758       0.12477709
  ----------------------------------------------------------------------
  | Atom    12: H
  |   Hirshfeld charge        :      0.14620747
  |   Free atom volume        :     10.44207651
  |   Hirshfeld volume        :      6.68919520
  |   Hirshfeld dipole vector :     -0.06668001      -0.04281538       0.08337085
  |   Hirshfeld dipole moment :      0.11502208
  |   Hirshfeld second moments:      0.10550599       0.01449466       0.01233824
  |                                  0.01449466       0.10456395       0.00168731
  |                                  0.01233824       0.00168731       0.11010867
  ----------------------------------------------------------------------
  | Atom    13: O
  |   Hirshfeld charge        :     -0.28251934
  |   Free atom volume        :     23.95238533
  |   Hirshfeld volume        :     21.58672585
  |   Hirshfeld dipole vector :     -0.00336020       0.04629202      -0.00749685
  |   Hirshfeld dipole moment :      0.04701537
  |   Hirshfeld second moments:      0.00763493      -0.01826564      -0.05999537
  |                                 -0.01826564       0.02027966       0.00349271
  |                                 -0.05999537       0.00349271       0.04224388
  ----------------------------------------------------------------------
  | Atom    14: H
  |   Hirshfeld charge        :      0.14516911
  |   Free atom volume        :     10.44207651
  |   Hirshfeld volume        :      6.10999845
  |   Hirshfeld dipole vector :     -0.06415587       0.08569066       0.06699525
  |   Hirshfeld dipole moment :      0.12628234
  |   Hirshfeld second moments:      0.11149848       0.00217236      -0.01653525
  |                                  0.00217236       0.11541817      -0.00851240
  |                                 -0.01653525      -0.00851240       0.12456612
  ----------------------------------------------------------------------
  | Atom    15: H
  |   Hirshfeld charge        :      0.14597874
  |   Free atom volume        :     10.44207651
  |   Hirshfeld volume        :      6.57588895
  |   Hirshfeld dipole vector :      0.05092071       0.05225934      -0.08899572
  |   Hirshfeld dipole moment :      0.11508343
  |   Hirshfeld second moments:      0.09540824      -0.01109666      -0.00724698
  |                                 -0.01109666       0.11992764       0.00567838
  |                                 -0.00724698       0.00567838       0.10902824
  ----------------------------------------------------------------------


------------------------------------------------------------------------------
  Final output of selected total energy values:

  The following output summarizes some interesting total energy values
  at the end of a run (AFTER all relaxation, molecular dynamics, etc.).

  | Total energy of the DFT / Hartree-Fock s.c.f. calculation      :         -10414.726033350 eV
  | Final zero-broadening corrected energy (caution - metals only) :         -10414.726033350 eV
  | For reference only, the value of 1 Hartree used in FHI-aims is :             27.211384500 eV

  Before relying on these values, please be sure to understand exactly which
  total energy value is referred to by a given number. Different objects may
  all carry the same name 'total energy'. Definitions:

  Total energy of the DFT / Hartree-Fock s.c.f. calculation:
  | Note that this energy does not include ANY quantities calculated after the
  | s.c.f. cycle, in particular not ANY RPA, MP2, etc. many-body perturbation terms.

  Final zero-broadening corrected energy:
  | For metallic systems only, a broadening of the occupation numbers at the Fermi
  | level can be extrapolated back to zero broadening by an electron-gas inspired
  | formula. For all systems that are not real metals, this value can be
  | meaningless and should be avoided.

------------------------------------------------------------------------------

------------------------------------------------------------
          Leaving FHI-aims.
          Date     :  20150727, Time     :  115428.268

          Computational steps:
          | Number of self-consistency cycles          :           16

          Detailed time accounting                     :  max(cpu_time)    wall_clock(cpu1)
          | Total time                                 :       36.460 s          36.483 s
          | Preparation time                           :        0.170 s           0.738 s
          | Grid partitioning                          :        0.141 s           0.142 s
          | Preloading free-atom quantities on grid    :        0.014 s           0.014 s
          | Free-atom superposition energy             :        0.065 s           0.065 s
          | Total time for integrations                :       15.119 s          15.124 s
          | Total time for solution of K.-S. equations :        1.058 s           1.062 s
          | Total time for density & force components  :       12.469 s          12.470 s
          | Total time for mixing                      :        0.210 s           0.210 s
          | Total time for Hartree multipole update    :        0.077 s           0.078 s
          | Total time for Hartree multipole sum       :        6.245 s           6.245 s
          | Total time for total energy evaluation     :        0.008 s           0.004 s
          | Total time for scaled ZORA corrections     :        0.000 s           0.000 s
          | Total time for TS (2009) vdW correction    :        0.052 s           0.052 s

          Have a nice day.
------------------------------------------------------------
