  MPI-parallelism will be employed.
------------------------------------------------------------
          Invoking FHI-aims ...
          Version 081213
          Compiled on 2013/08/29 at 17:41:06 on host generoso.

          When using FHI-aims, please cite the following reference:

          Volker Blum, Ralf Gehrke, Felix Hanke, Paula Havu,
          Ville Havu, Xinguo Ren, Karsten Reuter, and Matthias Scheffler,
          'Ab Initio Molecular Simulations with Numeric Atom-Centered Orbitals: FHI-aims',
          Computer Physics Communications 180, 2175-2196 (2009)

          For any questions about FHI-aims, please visit the aimsclub website
          with its forums and wiki. Contributions to both the forums and the
          wiki are warmly encouraged - they are for you, and everyone is welcome there.

------------------------------------------------------------

  Date     :  20150727, Time     :  123117.266
  Time zero on CPU 1             :   0.419930000000000E-01  s.
  Internal wall clock time zero  :           207232277.266  s.

  Using        8 parallel tasks.
  Task        0 on host gen60 reporting.
  Task        1 on host gen60 reporting.
  Task        2 on host gen60 reporting.
  Task        3 on host gen60 reporting.
  Task        4 on host gen60 reporting.
  Task        5 on host gen60 reporting.
  Task        6 on host gen60 reporting.
  Task        7 on host gen60 reporting.

  Performing system and environment tests:
  | Environment variable OMP_NUM_THREADS correctly set to 1.
  | Checking for scalapack...
  | No scalapack compiled in.

  Obtaining array dimensions for all initial allocations:
  
  -----------------------------------------------------------------------
  Parsing control.in (first pass over file, find array dimensions only).
  The contents of control.in will be repeated verbatim below
  unless switched off by setting 'verbatim_writeout .false.' .
  in the first line of control.in .
  -----------------------------------------------------------------------
  
  #########################################################################################
  #
  #  Volker Blum, FHI 2008 : Test run input file control.in
  #
  #########################################################################################
  #
  #  Physical model
  #
    xc                 rpbe
    spin               none
    relativistic       atomic_zora scalar
    charge             0.
   vdw_correction_hirshfeld
  #
  #  SCF convergence
  #
    occupation_type    gaussian 0.01
    mixer              pulay
      n_max_pulay        10
      charge_mix_param   0.1
    sc_accuracy_rho    5E-5
    sc_accuracy_eev    5E-3
    sc_accuracy_etot   5E-6
    sc_iter_limit      3000
  #
  #  Eigenvalue solver
  #
    KS_method          lapack
      empty_states       8
      basis_threshold    0.e-5
  #
  #  Efficiency
  #
  #   all previous settings are now default, except stratmann still
  #   undecided. Continue to handle stratmann with care, if at all.
  #
  #  partition_type stratmann
    partition_type rho_r2
  #  hartree_partition_type stratmann
  #
  #  Oprions for large clusters (100's of atoms: memory saving / better scaling)
  #
  # for periodic systems:
  #
    density_update_method orbital
    packed_matrix_format none
  #  k_grid 6 6 6
  #  output k_eigenvalue 1
  #  distributed_spline_storage .true.
  #
  #  Relaxation
  #
  #  relax_geometry   bfgs 5.e-3
    sc_accuracy_forces 5.E-4
    final_forces_cleaned .true.
  #
  #  Output options
  #
  #  output mulliken
    output Hirshfeld
  #  output dipole
  
  #harmonic_length_scale 0.001
  
  ################################################################################
  #
  #  FHI-aims code project
  #  VB, Fritz-Haber Institut, 2007
  #
  #  Suggested "safe" defaults for H atom (to be pasted into control.in file)
  #  Basis constructed for a non-relativistic H2 molecule using the
  #  PW-LDA functional.
  #
  ################################################################################
    species        H
  #     global species definitions
      nucleus             1
      cut_pot             4.0  2.0  1.0
      cut_free_atom       finite 8.0
      logarithmic         0.00010000 100.00  1.0123
      basis_dep_cutoff    1d-4  # 1d-4 is safe default - please check 5d-4 if you wish!
      radial_base         24 7.0
      radial_multiplier   2
      angular_grids       specified
        division   0.2783  110
        division   0.3822  194
        division   0.5626  302
  #      division   0.5922  434
  #      division   0.6227  590
  #      division   0.7206  770
        outer_grid  302
      l_hartree           4
  ################################################################################
  #
  #  Definition of "minimal" basis
  #
  ################################################################################
  #     valence basis states
      valence      1  s   1.
  #     ion occupancy
      ion_occ      1  s   0.5
  ################################################################################
  #
  #  Suggested additional basis functions. For production calculations,
  #  uncomment them one after another (the most important basis functions are
  #  listed first).
  #
  ################################################################################
  #  "First tier" - improvements: -1014.90 meV to -62.69 meV
       hydro 2 s 2.1
       hydro 2 p 3.5
  #  "Second tier" - improvements: -12.89 meV to -1.83 meV
       hydro 1 s 0.85
       hydro 2 p 3.7
       hydro 2 s 1.2
       hydro 3 d 7
  #  "Third tier" - improvements: -0.25 meV to -0.12 meV
  #     hydro 4 f 11.2
  #     hydro 3 p 4.8
  #     hydro 4 d 9
  #     hydro 3 s 3.2
  
  ################################################################################
  #
  #  FHI-aims code project
  #  VB, Fritz-Haber Institut, 2007
  #
  #  Suggested "safe" defaults for O atom (to be pasted into control.in file)
  #  All values have been tested for a non-relativistic, non-spinpolarized O2
  #  molecule using the PW-LDA functional. Validity for PBE is expected.
  #
  #  Constructed for dimers: 1.0 A, 1.208 A, 1.5 A, 2.0 A, 3.0 A
  #
  ################################################################################
    species        O
  #     global species definitions
      nucleus             8
      mass                15.9994
      l_hartree           4
      cut_pot             4.0  2.0  1.0
      cut_free_atom       finite 8.0
      basis_dep_cutoff    1d-4  # 1d-4 is safe default - please check 5d-4 if you wish!
      logarithmic         0.00010000 100.00  1.0123
      radial_base         36 7.0
      radial_multiplier   2
       angular_grids specified
        division   0.4087  110
        division   0.5181  194
        division   0.6184  302
  #      division   0.7315  434
  #      division   0.7934  590
  #      division   0.9656  770
  #      division   1.4041  974
  #      outer_grid 974
        outer_grid 302
  ################################################################################
  #
  #  Definition of "minimal" basis
  #
  ################################################################################
  #     valence basis states
      valence      2  s   2.
      valence      2  p   4.
  #     ion occupancy
      ion_occ      2  s   1.
      ion_occ      2  p   3.
  ################################################################################
  #
  #  Suggested additional basis functions. For production calculations,
  #  uncomment them one after another (the most important basis functions are
  #  listed first).
  #
  ################################################################################
  #  "First tier" - improvements: -699.05 meV to -159.38 meV
       hydro 2 p 1.8
       hydro 3 d 7.6
       hydro 3 s 6.4
  #  "Second tier" - improvements: -49.91 meV to -5.39 meV
       hydro 4 f 11.6
       hydro 3 p 6.2
       hydro 3 d 5.6
       hydro 5 g 17.6
       hydro 1 s 0.75
  #  "Third tier" - improvements: -2.83 meV to -0.50 meV
  #     ionic 2 p auto
  #     hydro 4 f 10.8
  #     hydro 4 d 4.7
  #     hydro 2 s 6.8
  #  "Fourth tier" - improvements: -0.40 meV to -0.12 meV
  #     hydro 3 p 5
  #     hydro 3 s 3.3
  #     hydro 5 g 15.6
  #     hydro 4 f 17.6
  #     hydro 4 d 14
  # Further basis functions - -0.08 meV and below
  #     hydro 3 s 2.1
  #     hydro 4 d 11.6
  #     hydro 3 p 16
  #     hydro 2 s 17.2
  
  
  -----------------------------------------------------------------------
  Completed first pass over input file control.in .
  -----------------------------------------------------------------------
  
  
  -----------------------------------------------------------------------
  Parsing geometry.in (first pass over file, find array dimensions only).
  The contents of geometry.in will be repeated verbatim below
  unless switched off by setting 'verbatim_writeout .false.' .
  in the first line of geometry.in .
  -----------------------------------------------------------------------
  
  atom      -4.053030000      0.065001000     -1.525160000  O
  atom      -4.566710000      0.974813000     -1.912820000  H
  atom      -3.067820000      0.330172000     -1.477310000  H
  atom      -1.645860000      0.870179000     -1.502250000  O
  atom      -1.568890000      1.501730000     -0.721051000  H
  atom      -0.824432000      0.282220000     -1.377720000  H
  atom      -3.818880000      2.024990000      2.187990000  O
  atom      -3.690880000      1.961360000      3.202150000  H
  atom      -4.546490000      2.751300000      2.045370000  H
  atom      -1.975360000      2.858040000      0.453140000  O
  atom      -1.223550000      3.375850000      0.786238000  H
  atom      -2.537520000      2.567960000      1.156120000  H
  atom      -4.066610000      4.258280000     -0.900064000  O
  atom      -3.224110000      3.876870000     -0.569443000  H
  atom      -3.737450000      5.116530000     -1.322720000  H
  atom      -5.628340000      3.730740000      1.385610000  O
  atom      -6.090650000      4.418470000      1.860350000  H
  atom      -5.158540000      4.200260000      0.615875000  H
  
  -----------------------------------------------------------------------
  Completed first pass over input file geometry.in .
  -----------------------------------------------------------------------
  
 
  Basic array size parameters: 
  | Number of species                 :        2
  | Number of atoms                   :       18
  | Max. basis fn. angular momentum   :        4
  | Max. atomic/ionic basis occupied n:        2
  | Max. number of basis fn. types    :        2
  | Max. radial fns per species/type  :        8
  | Max. logarithmic grid size        :     1301
  | Max. radial integration grid size :       73
  | Max. angular integration grid size:      302
  | Max. angular grid division number :        8
  | Radial grid for Hartree potential :     1301
  | Number of spin channels           :        1

------------------------------------------------------------
          Reading file control.in.
------------------------------------------------------------
  XC: Using RPBE gradient-corrected functionals.
  Spin treatment: No spin polarisation.
  Scalar relativistic treatment of kinetic energy: on-site free-atom approximation to ZORA.
  Charge =   0.000000E+00: Neutral system requested explicitly.
  Using non-empirical van der Waals correction (Hirshfeld partitioning):
  Occupation type: Gaussian broadening, width =   0.100000E-01 eV.
  Using pulay charge density mixing.
  Pulay mixing - number of memorized iterations:   10
  Charge density mixing - mixing parameter:     0.1000
  Convergence accuracy of self-consistent charge density: 0.5000E-04
  Convergence accuracy of sum of eigenvalues: 0.5000E-02
  Convergence accuracy of total energy: 0.5000E-05
  Maximum number of s.-c. iterations  :  3000
  Kohn-Sham eigenvalues and eigenfunctions calculated by lapack diagonalisation (D&C).
  Number of empty states per atom:        8
  Threshold for basis singularities: 0.0000E+00
  Partition function in integrals calculations: rho / r^2
 Using packed matrix format           0
  Convergence accuracy of forces: 0.5000E-03
  Cleaning forces before final output.
  Hirshfeld charge analysis will be performed.
 
  Reading configuration options for species H                   .
  | Found nuclear charge :   1.0000
  | Found cutoff potl. onset [A], width [A], scale factor :    4.00000    2.00000    1.00000
  | Found cutoff specification for free atom: Cutoff potential begins at    8.00000 A.
  | Found logarithmic grid data [bohr] : 0.1000E-03 0.1000E+03 0.1012E+01
  | Threshold for basis-dependent cutoff potential is   0.100000E-03
  | Found data for basic radial integration grid :    24 points, outermost radius =    7.000 A
  | Found multiplier for basic radial grid :   2
  | Found angular grid specification: user-specified.
  | Specified grid contains     4 separate shells.
  | Check grid settings after all constraints further below.
  | Found l_max for Hartree potential  :   4
  | Found free-atom valence shell :  1 s   1.000
  | No ionic wave fns used. Skipping ion_occ.
  | Found hydrogenic basis function :  2 s   2.100
  | Found hydrogenic basis function :  2 p   3.500
  | Found hydrogenic basis function :  1 s   0.850
  | Found hydrogenic basis function :  2 p   3.700
  | Found hydrogenic basis function :  2 s   1.200
  | Found hydrogenic basis function :  3 d   7.000
  Species H                   : Missing cutoff potential type.
  Defaulting to exp(1/x)/(1-x)^2 type cutoff potential.
  Species H : On-site basis accuracy parameter (for Gram-Schmidt orthonormalisation) not specified.
  Using default value basis_acc =  0.1000000E-03.
  Species H                   : Using default innermost maximum threshold i_radial=  2 for radial functions.
  Species H                   : Basic radial grid will be enhanced according to radial_multiplier =   2, to contain    49 grid points.
 
  Reading configuration options for species O                   .
  | Found nuclear charge :   8.0000
  | Found atomic mass :    15.9994000000000      amu
  | Found l_max for Hartree potential  :   4
  | Found cutoff potl. onset [A], width [A], scale factor :    4.00000    2.00000    1.00000
  | Found cutoff specification for free atom: Cutoff potential begins at    8.00000 A.
  | Threshold for basis-dependent cutoff potential is   0.100000E-03
  | Found logarithmic grid data [bohr] : 0.1000E-03 0.1000E+03 0.1012E+01
  | Found data for basic radial integration grid :    36 points, outermost radius =    7.000 A
  | Found multiplier for basic radial grid :   2
  | Found angular grid specification: user-specified.
  | Specified grid contains     4 separate shells.
  | Check grid settings after all constraints further below.
  | Found free-atom valence shell :  2 s   2.000
  | Found free-atom valence shell :  2 p   4.000
  | No ionic wave fns used. Skipping ion_occ.
  | No ionic wave fns used. Skipping ion_occ.
  | Found hydrogenic basis function :  2 p   1.800
  | Found hydrogenic basis function :  3 d   7.600
  | Found hydrogenic basis function :  3 s   6.400
  | Found hydrogenic basis function :  4 f  11.600
  | Found hydrogenic basis function :  3 p   6.200
  | Found hydrogenic basis function :  3 d   5.600
  | Found hydrogenic basis function :  5 g  17.600
  | Found hydrogenic basis function :  1 s   0.750
  Species O                   : Missing cutoff potential type.
  Defaulting to exp(1/x)/(1-x)^2 type cutoff potential.
  Species O : On-site basis accuracy parameter (for Gram-Schmidt orthonormalisation) not specified.
  Using default value basis_acc =  0.1000000E-03.
  Species O                   : Using default innermost maximum threshold i_radial=  2 for radial functions.
  Species O                   : Basic radial grid will be enhanced according to radial_multiplier =   2, to contain    73 grid points.
 
  Finished reading input file 'control.in'. Consistency checks are next.
 
  Target number of points in a grid batch is not set. Defaulting to  100
  Method for grid partitioning is not set. Defaulting to parallel hash+maxmin partitioning.
  Batch size limit is not set. Defaulting to    200
  By default, will store active basis functions for each batch.
  If in need of memory, prune_basis_once .false. can be used to disable this option.
  communication_type for Hartree potential was not specified.
  Defaulting to calc_hartree .
  Pulay mixer: Number of initial linear mixing iterations not set.
  Defaulting to    0 iterations.
  Work space size for distributed Hartree potential not set.
  Defaulting to   0.200000E+03 MB.
  Algorithm-dependent basis array size parameters:
  | n_max_pulay                         :       10
  Geometry relaxation not requested: no relaxation will be performed.
  Handling of forces: Unphysical translation and rotation will be removed from forces.
  No accuracy limit for integral partition fn. given. Defaulting to 0.1000E-14.
  No threshold value for u(r) in integrations given. Defaulting to 0.1000E-05.
  No accuracy for occupation numbers given. Defaulting to 0.1000E-07.
  No threshold value for occupation numbers given. Defaulting to 0.0000E+00.
  No accuracy for fermi level given. Defaulting to 0.1000E-19.
  Maximum # of iterations to find E_F not set. Defaulting to  200.
  Will not use alltoall communication since running on < 1024 CPUs.
  Partitioning for Hartree potential was not defined. Using partition_type for integrals.
  | Reporting present value of keyword multip_moments_threshold  :       0.10000000E-09
  | This value may affect high angular momentum components of the Hartree potential in periodic systems.
  No q(lm)/r^(l+1) cutoff set for long-range Hartree potential.
  | Using default value of  0.100000E-09 .
  | Verify using the multipole_threshold keyword.
  Defaulting to new monopole extrapolation.
  Density update method: Loop over occupied states selected for charge density update.
------------------------------------------------------------


------------------------------------------------------------
          Reading geometry description geometry.in.
------------------------------------------------------------
  Input structure read successfully.
  The structure contains       18 atoms,  and a total of         60.000 electrons.

  Input geometry:
  | No unit cell requested.
  | Atomic structure:
  |       Atom                x [A]            y [A]            z [A]
  |    1: Species O             -4.053030         0.065001        -1.525160
  |    2: Species H             -4.566710         0.974813        -1.912820
  |    3: Species H             -3.067820         0.330172        -1.477310
  |    4: Species O             -1.645860         0.870179        -1.502250
  |    5: Species H             -1.568890         1.501730        -0.721051
  |    6: Species H             -0.824432         0.282220        -1.377720
  |    7: Species O             -3.818880         2.024990         2.187990
  |    8: Species H             -3.690880         1.961360         3.202150
  |    9: Species H             -4.546490         2.751300         2.045370
  |   10: Species O             -1.975360         2.858040         0.453140
  |   11: Species H             -1.223550         3.375850         0.786238
  |   12: Species H             -2.537520         2.567960         1.156120
  |   13: Species O             -4.066610         4.258280        -0.900064
  |   14: Species H             -3.224110         3.876870        -0.569443
  |   15: Species H             -3.737450         5.116530        -1.322720
  |   16: Species O             -5.628340         3.730740         1.385610
  |   17: Species H             -6.090650         4.418470         1.860350
  |   18: Species H             -5.158540         4.200260         0.615875
  |

  | The smallest distance between any two atoms is         0.94570141 AA.
  |
  | The first atom of this pair is atom number                     10 .
  | The second atom of this pair is atom number                    12 .

  Structure-dependent array size parameters: 
  | Maximum number of distinct radial functions  :       18
  | Maximum number of basis functions            :      414
  | Number of Kohn-Sham states (occupied + empty):      102
------------------------------------------------------------

------------------------------------------------------------
          Preparing all fixed parts of the calculation.
------------------------------------------------------------
  Determining machine precision:
    2.225073858507201E-308
  Setting up grids for atomic and cluster calculations.

  Creating wave function, potential, and density for free atoms.

  Species: H

  List of occupied orbitals and eigenvalues:
    n    l              occ      energy [Ha]    energy [eV]
    1    0           1.0000        -0.241408        -6.5691


  Species: O

  List of occupied orbitals and eigenvalues:
    n    l              occ      energy [Ha]    energy [eV]
    1    0           2.0000       -18.944147      -515.4965
    2    0           2.0000        -0.883529       -24.0421
    2    1           4.0000        -0.330176        -8.9845

  Creating fixed part of basis set: Ionic, confined, hydrogenic.
 
  H                    hydrogenic:
 
  List of hydrogenic basis orbitals: 
    n    l      effective z      eigenvalue [eV]  inner max. [A]     outer max. [A]     outer radius [A]   
    2    0         2.100000       -14.9965           0.193241           1.317192           5.372934
    2    1         3.500000       -41.6672           0.602363           0.602363           4.056010
    1    0         0.850000        -9.8292           0.624864           0.624864           5.372934
    2    1         3.700000       -46.5653           0.573616           0.573616           3.909951
    2    0         1.200000        -4.5995           0.334977           2.228160           5.505921
    3    2         7.000000       -74.0753           0.680692           0.680692           3.769152
 
 
  O                    hydrogenic:
 
  List of hydrogenic basis orbitals: 
    n    l      effective z      eigenvalue [eV]  inner max. [A]     outer max. [A]     outer radius [A]   
    2    1         1.800000       -11.0118           1.178546           1.178546           5.432516
    3    2         7.600000       -87.3182           0.624117           0.624117           3.541422
    3    0         6.400000       -61.9209           0.061166           1.081887           4.306510
    4    3        11.600000      -114.4238           0.731621           0.731621           3.584982
    3    1         6.200000       -58.1113           0.255677           1.030255           4.306510
    3    2         5.600000       -47.4081           0.847222           0.847222           4.413102
    5    4        17.600000      -168.5799           0.749730           0.749730           3.372413
    1    0         0.750000        -7.6499           0.705275           0.705275           5.366508
 

  Adding cutoff potential to free-atom effective potential.
  Creating atomic-like basis functions for current effective potential.

  Species H                   :

  List of atomic basis orbitals and eigenvalues:
    n    l      energy [Ha]    energy [eV]    outer radius [A]
    1    0        -0.241374        -6.5681       5.372934


  Species O                   :

  List of atomic basis orbitals and eigenvalues:
    n    l      energy [Ha]    energy [eV]    outer radius [A]
    1    0       -18.944147      -515.4965       1.415745
    2    0        -0.883529       -24.0421       5.048305
    2    1        -0.330173        -8.9845       5.301302

  Assembling full basis from fixed parts.
  | Species H :   atomic orbital   1 s accepted.
  | Species H :    hydro orbital   2 s accepted.
  | Species H :    hydro orbital   1 s accepted.
  | Species H :    hydro orbital   2 s accepted.
  | Species H :    hydro orbital   2 p accepted.
  | Species H :    hydro orbital   2 p accepted.
  | Species H :    hydro orbital   3 d accepted.
  | Species O :   atomic orbital   1 s accepted.
  | Species O :    hydro orbital   3 s accepted.
  | Species O :   atomic orbital   2 s accepted.
  | Species O :    hydro orbital   1 s accepted.
  | Species O :    hydro orbital   3 p accepted.
  | Species O :   atomic orbital   2 p accepted.
  | Species O :    hydro orbital   2 p accepted.
  | Species O :    hydro orbital   3 d accepted.
  | Species O :    hydro orbital   3 d accepted.
  | Species O :    hydro orbital   4 f accepted.
  | Species O :    hydro orbital   5 g accepted.
 
  Basis size parameters after reduction:
  | Total number of radial functions:       18
  | Total number of basis functions :      414
 
  Testing on-site integration grid accuracy.
  |  Species  Function  <phi|h_atom|phi> (log., in eV)  <phi|h_atom|phi> (rad., in eV)
           1        1                 -6.5683835025                 -6.5684759159
           1        2                 13.3711789951                 13.3708738703
           1        3                 23.6590910787                 23.6532055418
           1        4                 16.2963827186                 16.1870710655 ***
           1        5                 28.7627214838                 28.7627215090
           1        6                 59.5965249172                 59.5965950857
           1        7                 60.2220506392                 60.2220503827
           2        8               -515.4964576505               -515.4964530710
           2        9                 15.3030791347                 15.3030722972
           2       10                -21.7296094581                -21.7296135470
           2       11                 14.2969371730                 14.2969701621
           2       12                 21.0679693190                 21.0679697493
           2       13                 -2.3833606469                 -2.3833613176
           2       14                 13.7067136422                 13.7066766629
           2       15                 45.8013116808                 45.8013116965
           2       16                 52.2309815402                 52.2309831494
           2       17                 85.4120732416                 85.4120732763
           2       18                142.1019167745                142.1019167817
 * Note: Onsite integrals marked "***" above are less accurate than
 * onsite_accuracy_threshold =    0.03000 eV. Usually, this is harmless.
 * When in doubt, tighten the "radial" and/or "radial_multiplier" flags to check.

  Preparing densities etc. for the partition functions (integrals / Hartree potential).

  Preparations completed.
  max(cpu_time)          :      0.172 s.
  Wall clock time (cpu1) :      0.660 s.
------------------------------------------------------------

------------------------------------------------------------
          Begin self-consistency loop: Initialization.

          Date     :  20150727, Time     :  123117.946
------------------------------------------------------------

  Initializing index lists of integration centers etc. from given atomic structure:
  | Number of centers in hartree potential         :        18
  | Number of centers in hartree multipole         :        18
  | Number of centers in electron density summation:        18
  | Number of centers in basis integrals           :        18
  | Number of centers in integrals                 :        18
  Partitioning the integration grid into batches with parallel hashing+maxmin method.
  | Number of batches:     2381
  | Maximal batch size:     200
  | Minimal batch size:      49
  | Average batch size:      99.140
  | Standard deviation of batch sizes:      30.429

  Integration load balanced across     8 MPI tasks.
  Work distribution over tasks is as follows:
  Task     0 has      29469 integration points.
  Task     1 has      29481 integration points.
  Task     2 has      29576 integration points.
  Task     3 has      29454 integration points.
  Task     4 has      29549 integration points.
  Task     5 has      29503 integration points.
  Task     6 has      29551 integration points.
  Task     7 has      29469 integration points.
  Initializing partition tables, free-atom densities, potentials, etc. across the integration grid (initialize_grid_storage).
  | Net number of integration points:   236052
  | of which are non-zero points    :   235477
  Obtaining max. number of non-zero basis functions in each batch (get_n_compute_maxes).
  | Maximal number of non-zero basis functions:      410 in task     0
  | Maximal number of non-zero basis functions:      410 in task     1
  | Maximal number of non-zero basis functions:      410 in task     2
  | Maximal number of non-zero basis functions:      410 in task     3
  | Maximal number of non-zero basis functions:      410 in task     4
  | Maximal number of non-zero basis functions:      410 in task     5
  | Maximal number of non-zero basis functions:      410 in task     6
  | Maximal number of non-zero basis functions:      410 in task     7
  Integrating Hamiltonian matrix: batch-based integration.
  Time summed over all CPUs for integration: real work       11.120 s, elapsed       11.365 s
  Integrating overlap matrix.
  Time summed over all CPUs for integration: real work        6.092 s, elapsed        6.204 s

  Updating Kohn-Sham eigenvalues, eigenvectors, occupation numbers, and Fermi level.
  Solving generalized eigenproblem
  Updating Kohn-Sham eigenvalues and eigenfunctions.
  Transforming overlap matrix and checking for singularities.
  Overlap matrix is nonsingular:
  | Lowest eigenvalue:  0.268186E-03
  Solving real generalised eigenvalue problem by standard LAPACK (fast)
  Determining occupation numbers for Kohn-Sham eigenstates.
  | Chemical potential (Fermi level) in eV                 : -.30750725E+01
  | Error in electron count due to remaining E_F inaccuracy: 0.00000000E+00
  | Maximum occupation number of highest empty state:  0.00E+00

  Writing Kohn-Sham eigenvalues.

  State    Occupation    Eigenvalue [Ha]    Eigenvalue [eV]
      1       2.00000         -19.059578         -518.63752
      2       2.00000         -19.050642         -518.39435
      3       2.00000         -19.042640         -518.17659
      4       2.00000         -19.042528         -518.17355
      5       2.00000         -19.032822         -517.90943
      6       2.00000         -19.019455         -517.54569
      7       2.00000          -1.113658          -30.30418
      8       2.00000          -1.100265          -29.93974
      9       2.00000          -1.086798          -29.57328
     10       2.00000          -1.085733          -29.54429
     11       2.00000          -1.064419          -28.96432
     12       2.00000          -1.041701          -28.34614
     13       2.00000          -0.656763          -17.87143
     14       2.00000          -0.632067          -17.19942
     15       2.00000          -0.610353          -16.60856
     16       2.00000          -0.607384          -16.52777
     17       2.00000          -0.603852          -16.43166
     18       2.00000          -0.590333          -16.06379
     19       2.00000          -0.528978          -14.39423
     20       2.00000          -0.520294          -14.15791
     21       2.00000          -0.510390          -13.88842
     22       2.00000          -0.506241          -13.77553
     23       2.00000          -0.486751          -13.24517
     24       2.00000          -0.471825          -12.83902
     25       2.00000          -0.448415          -12.20201
     26       2.00000          -0.439898          -11.97023
     27       2.00000          -0.432518          -11.76942
     28       2.00000          -0.431503          -11.74180
     29       2.00000          -0.424753          -11.55812
     30       2.00000          -0.409337          -11.13863
     31       0.00000          -0.097886           -2.66360
     32       0.00000          -0.071642           -1.94949
     33       0.00000          -0.062426           -1.69871
     34       0.00000          -0.055769           -1.51757
     35       0.00000          -0.042284           -1.15061
     36       0.00000          -0.027378           -0.74498
     37       0.00000           0.023915            0.65077
     38       0.00000           0.030686            0.83501
     39       0.00000           0.034963            0.95139
     40       0.00000           0.042796            1.16453
     41       0.00000           0.050048            1.36189
     42       0.00000           0.055780            1.51785
     43       0.00000           0.066804            1.81783
     44       0.00000           0.076910            2.09283
     45       0.00000           0.084413            2.29701
     46       0.00000           0.090713            2.46842
     47       0.00000           0.093915            2.55556
     48       0.00000           0.101019            2.74885
     49       0.00000           0.102886            2.79967
     50       0.00000           0.117213            3.18952
     51       0.00000           0.122727            3.33958
     52       0.00000           0.126148            3.43266
     53       0.00000           0.135022            3.67414
     54       0.00000           0.135487            3.68679
     55       0.00000           0.148712            4.04665
     56       0.00000           0.153748            4.18370
     57       0.00000           0.161813            4.40315
     58       0.00000           0.167450            4.55656
     59       0.00000           0.178860            4.86702
     60       0.00000           0.190728            5.18999
     61       0.00000           0.206713            5.62494
     62       0.00000           0.236381            6.43224
     63       0.00000           0.243111            6.61540
     64       0.00000           0.253546            6.89934
     65       0.00000           0.267407            7.27651
     66       0.00000           0.274322            7.46468
     67       0.00000           0.285943            7.78092
     68       0.00000           0.301717            8.21015
     69       0.00000           0.303362            8.25491
     70       0.00000           0.310332            8.44456
     71       0.00000           0.322300            8.77022
     72       0.00000           0.335526            9.13014
     73       0.00000           0.348016            9.47001
     74       0.00000           0.357466            9.72714
     75       0.00000           0.367447            9.99875
     76       0.00000           0.369647           10.05860
     77       0.00000           0.384192           10.45441
     78       0.00000           0.392953           10.69280
     79       0.00000           0.400836           10.90731
     80       0.00000           0.411448           11.19607
     81       0.00000           0.420014           11.42916
     82       0.00000           0.441302           12.00843
     83       0.00000           0.448559           12.20591
     84       0.00000           0.461313           12.55296
     85       0.00000           0.478396           13.01782
     86       0.00000           0.491079           13.36294
     87       0.00000           0.496194           13.50213
     88       0.00000           0.498203           13.55679
     89       0.00000           0.521154           14.18133
     90       0.00000           0.538789           14.66119
     91       0.00000           0.555811           15.12437
     92       0.00000           0.581526           15.82412
     93       0.00000           0.609323           16.58052
     94       0.00000           0.624554           16.99499
     95       0.00000           0.646301           17.58675
     96       0.00000           0.664864           18.09186
     97       0.00000           0.684776           18.63371
     98       0.00000           0.694394           18.89543
     99       0.00000           0.716166           19.48787
    100       0.00000           0.723865           19.69737
    101       0.00000           0.755940           20.57017
    102       0.00000           0.764092           20.79201

  Highest occupied state (VBM) at    -11.13863383 eV
  | Occupation number:      2.00000000

  Lowest unoccupied state (CBM) at    -2.66360041 eV
  | Occupation number:      0.00000000

  Overall HOMO-LUMO gap:      8.47503341 eV.
  Calculating total energy contributions from superposition of free atom densities.

  Total energy components:
  | Sum of eigenvalues            :        -260.10379515 Ha       -7077.78437963 eV
  | XC energy correction          :         -54.69396080 Ha       -1488.29839724 eV
  | XC potential correction       :          69.89636885 Ha        1901.97696796 eV
  | Free-atom electrostatic energy:        -214.78671218 Ha       -5844.64381061 eV
  | Hartree energy correction     :           0.00000000 Ha           0.00000000 eV
  | van der Waals energy corr.    :           0.00000000 Ha           0.00000000 eV
  | Entropy correction            :           0.00000000 Ha           0.00000000 eV
  | ---------------------------
  | Total energy                  :        -459.68809928 Ha      -12508.74961951 eV
  | Total energy, T -> 0          :        -459.68809928 Ha      -12508.74961951 eV  <-- do not rely on this value for anything but (periodic) metals
  | Electronic free energy        :        -459.68809928 Ha      -12508.74961951 eV

  Derived energy quantities:
  | Kinetic energy                :         455.02751152 Ha       12381.92857396 eV
  | Electrostatic energy          :        -860.02164999 Ha      -23402.37979623 eV
  | Energy correction for multipole
  | error in Hartree potential    :           0.00000000 Ha           0.00000000 eV
  | Sum of eigenvalues per atom                           :        -393.21024331 eV
  | Total energy (T->0) per atom                          :        -694.93053442 eV  <-- do not rely on this value for anything but (periodic) metals
  | Electronic free energy per atom                       :        -694.93053442 eV
  Initialize hartree_potential_storage
  Max. number of atoms included in rho_multipole:           18

  End scf initialization - timings             :  max(cpu_time)    wall_clock(cpu1)
  | Time for scf. initialization               :        2.987 s           2.986 s
  | Boundary condition initialization          :        0.000 s           0.000 s
  | Integration                                :        2.201 s           2.201 s
  | Solution of K.-S. eqns.                    :        0.296 s           0.296 s
  | Grid partitioning                          :        0.192 s           0.192 s
  | Preloading free-atom quantities on grid    :        0.014 s           0.014 s
  | Free-atom superposition energy             :        0.091 s           0.091 s
  | Total energy evaluation                    :        0.000 s           0.000 s
------------------------------------------------------------

------------------------------------------------------------
          Begin self-consistency iteration #    1

  Date     :  20150727, Time     :  123120.932
------------------------------------------------------------
  Evaluating new KS density.
  Integration grid: deviation in total charge (<rho> - N_e) =   7.105427E-15
  Pulay mixing of updated and previous charge densities.

  Evaluating partitioned Hartree potential by multipole expansion.
  | Analytical far-field extrapolation by fixed multipoles:
  | Hartree multipole sum: apparent total charge =  -0.197181E-05
  Summing up the Hartree potential.
  Time summed over all CPUs for potential: real work        3.784 s, elapsed        3.798 s
  | RMS charge density error from multipole expansion :   0.176958E-02

  Integrating Hamiltonian matrix: batch-based integration.
  Time summed over all CPUs for integration: real work       11.089 s, elapsed       11.341 s

  Updating Kohn-Sham eigenvalues, eigenvectors, occupation numbers, and Fermi level.
  Solving generalized eigenproblem
  Updating Kohn-Sham eigenvalues and eigenfunctions.
  Solving real generalised eigenvalue problem by standard LAPACK (fast)
  Determining occupation numbers for Kohn-Sham eigenstates.
  | Chemical potential (Fermi level) in eV                 : -.26272342E+01
  | Error in electron count due to remaining E_F inaccuracy: 0.00000000E+00
  | Maximum occupation number of highest empty state:  0.00E+00

  Writing Kohn-Sham eigenvalues.

  State    Occupation    Eigenvalue [Ha]    Eigenvalue [eV]
      1       2.00000         -18.987416         -516.67386
      2       2.00000         -18.979115         -516.44800
      3       2.00000         -18.971844         -516.25015
      4       2.00000         -18.970719         -516.21954
      5       2.00000         -18.957879         -515.87015
      6       2.00000         -18.931584         -515.15460
      7       2.00000          -1.078767          -29.35474
      8       2.00000          -1.065195          -28.98543
      9       2.00000          -1.050719          -28.59153
     10       2.00000          -1.049850          -28.56787
     11       2.00000          -1.025983          -27.91841
     12       2.00000          -0.992863          -27.01716
     13       2.00000          -0.626421          -17.04577
     14       2.00000          -0.601670          -16.37227
     15       2.00000          -0.579793          -15.77696
     16       2.00000          -0.576642          -15.69123
     17       2.00000          -0.571640          -15.55513
     18       2.00000          -0.550930          -14.99156
     19       2.00000          -0.494315          -13.45100
     20       2.00000          -0.483120          -13.14636
     21       2.00000          -0.474751          -12.91864
     22       2.00000          -0.469511          -12.77603
     23       2.00000          -0.448954          -12.21665
     24       2.00000          -0.427641          -11.63669
     25       2.00000          -0.411874          -11.20767
     26       2.00000          -0.402537          -10.95359
     27       2.00000          -0.395285          -10.75625
     28       2.00000          -0.390865          -10.63598
     29       2.00000          -0.384771          -10.47016
     30       2.00000          -0.358961           -9.76783
     31       0.00000          -0.087708           -2.38667
     32       0.00000          -0.060590           -1.64875
     33       0.00000          -0.052861           -1.43841
     34       0.00000          -0.047075           -1.28097
     35       0.00000          -0.034752           -0.94566
     36       0.00000          -0.020959           -0.57031
     37       0.00000           0.035703            0.97152
     38       0.00000           0.039966            1.08754
     39       0.00000           0.045482            1.23763
     40       0.00000           0.050303            1.36882
     41       0.00000           0.060102            1.63546
     42       0.00000           0.066151            1.80007
     43       0.00000           0.077491            2.10865
     44       0.00000           0.088635            2.41188
     45       0.00000           0.094683            2.57646
     46       0.00000           0.098277            2.67425
     47       0.00000           0.104994            2.85704
     48       0.00000           0.109823            2.98843
     49       0.00000           0.112957            3.07372
     50       0.00000           0.127214            3.46166
     51       0.00000           0.133949            3.64495
     52       0.00000           0.138366            3.76514
     53       0.00000           0.144143            3.92233
     54       0.00000           0.145496            3.95916
     55       0.00000           0.163649            4.45312
     56       0.00000           0.167278            4.55187
     57       0.00000           0.176521            4.80337
     58       0.00000           0.181047            4.92654
     59       0.00000           0.195381            5.31660
     60       0.00000           0.201959            5.49558
     61       0.00000           0.217510            5.91876
     62       0.00000           0.247391            6.73186
     63       0.00000           0.251531            6.84451
     64       0.00000           0.261568            7.11764
     65       0.00000           0.276213            7.51613
     66       0.00000           0.285370            7.76532
     67       0.00000           0.295965            8.05362
     68       0.00000           0.310680            8.45404
     69       0.00000           0.313395            8.52792
     70       0.00000           0.319002            8.68048
     71       0.00000           0.332755            9.05473
     72       0.00000           0.347457            9.45479
     73       0.00000           0.356110            9.69025
     74       0.00000           0.368651           10.03151
     75       0.00000           0.378261           10.29300
     76       0.00000           0.378406           10.29694
     77       0.00000           0.392644           10.68440
     78       0.00000           0.401712           10.93113
     79       0.00000           0.410553           11.17170
     80       0.00000           0.421178           11.46085
     81       0.00000           0.429156           11.67792
     82       0.00000           0.451392           12.28299
     83       0.00000           0.458489           12.47613
     84       0.00000           0.473810           12.89303
     85       0.00000           0.487823           13.27433
     86       0.00000           0.500782           13.62696
     87       0.00000           0.506875           13.79276
     88       0.00000           0.510731           13.89771
     89       0.00000           0.534878           14.55477
     90       0.00000           0.552730           15.04054
     91       0.00000           0.567809           15.45087
     92       0.00000           0.592109           16.11211
     93       0.00000           0.620492           16.88444
     94       0.00000           0.636054           17.30791
     95       0.00000           0.660632           17.97670
     96       0.00000           0.675798           18.38940
     97       0.00000           0.697792           18.98788
     98       0.00000           0.707371           19.24855
     99       0.00000           0.728979           19.83654
    100       0.00000           0.737591           20.07088
    101       0.00000           0.768184           20.90336
    102       0.00000           0.777971           21.16968

  Highest occupied state (VBM) at     -9.76783032 eV
  | Occupation number:      2.00000000

  Lowest unoccupied state (CBM) at    -2.38666924 eV
  | Occupation number:      0.00000000

  Overall HOMO-LUMO gap:      7.38116108 eV.

  Total energy components:
  | Sum of eigenvalues            :        -257.42322771 Ha       -7004.84242833 eV
  | XC energy correction          :         -54.97418168 Ha       -1495.92359519 eV
  | XC potential correction       :          70.26258919 Ha        1911.94233044 eV
  | Free-atom electrostatic energy:        -214.78671218 Ha       -5844.64381061 eV
  | Hartree energy correction     :          -2.60618440 Ha         -70.91788576 eV
  | van der Waals energy corr.    :           0.00000000 Ha           0.00000000 eV
  | Entropy correction            :           0.00000000 Ha           0.00000000 eV
  | ---------------------------
  | Total energy                  :        -459.52771677 Ha      -12504.38538943 eV
  | Total energy, T -> 0          :        -459.52771677 Ha      -12504.38538943 eV  <-- do not rely on this value for anything but (periodic) metals
  | Electronic free energy        :        -459.52771677 Ha      -12504.38538943 eV

  Derived energy quantities:
  | Kinetic energy                :         456.68335316 Ha       12426.98631772 eV
  | Electrostatic energy          :        -861.23688826 Ha      -23435.44811197 eV
  | Energy correction for multipole
  | error in Hartree potential    :           0.00005430 Ha           0.00147767 eV
  | Sum of eigenvalues per atom                           :        -389.15791268 eV
  | Total energy (T->0) per atom                          :        -694.68807719 eV  <-- do not rely on this value for anything but (periodic) metals
  | Electronic free energy per atom                       :        -694.68807719 eV

  Self-consistency convergence accuracy:
  | Change of charge density      : 0.7084E+00
  | Change of sum of eigenvalues  : 0.7294E+02 eV
  | Change of total energy        : 0.4364E+01 eV

  End self-consistency iteration #     1       :  max(cpu_time)    wall_clock(cpu1)
  | Time for this iteration                    :        2.901 s           2.901 s
  | Charge density update                      :        0.912 s           0.913 s
  | Density mixing                             :        0.004 s           0.004 s
  | Hartree multipole update                   :        0.007 s           0.006 s
  | Hartree multipole summation                :        0.475 s           0.476 s
  | Integration                                :        1.421 s           1.420 s
  | Solution of K.-S. eqns.                    :        0.081 s           0.081 s
  | Total energy evaluation                    :        0.000 s           0.000 s
------------------------------------------------------------

------------------------------------------------------------
          Begin self-consistency iteration #    2

  Date     :  20150727, Time     :  123123.833
------------------------------------------------------------
  Evaluating new KS density.
  Integration grid: deviation in total charge (<rho> - N_e) =   2.842171E-14
  Pulay mixing of updated and previous charge densities.

  Evaluating partitioned Hartree potential by multipole expansion.
  | Analytical far-field extrapolation by fixed multipoles:
  | Hartree multipole sum: apparent total charge =  -0.536959E-05
  Summing up the Hartree potential.
  Time summed over all CPUs for potential: real work        3.784 s, elapsed        3.798 s
  | RMS charge density error from multipole expansion :   0.709159E-02

  Integrating Hamiltonian matrix: batch-based integration.
  Time summed over all CPUs for integration: real work       11.069 s, elapsed       11.321 s

  Updating Kohn-Sham eigenvalues, eigenvectors, occupation numbers, and Fermi level.
  Solving generalized eigenproblem
  Updating Kohn-Sham eigenvalues and eigenfunctions.
  Solving real generalised eigenvalue problem by standard LAPACK (fast)
  Determining occupation numbers for Kohn-Sham eigenstates.
  | Chemical potential (Fermi level) in eV                 : -.26810994E+01
  | Error in electron count due to remaining E_F inaccuracy: 0.00000000E+00
  | Maximum occupation number of highest empty state:  0.00E+00

  Highest occupied state (VBM) at     -6.49823381 eV
  | Occupation number:      2.00000000

  Lowest unoccupied state (CBM) at    -1.82523988 eV
  | Occupation number:      0.00000000

  Overall HOMO-LUMO gap:      4.67299393 eV.

  Total energy components:
  | Sum of eigenvalues            :        -251.06080688 Ha       -6831.71214891 eV
  | XC energy correction          :         -55.66783067 Ha       -1514.79874471 eV
  | XC potential correction       :          71.16804340 Ha        1936.58099311 eV
  | Free-atom electrostatic energy:        -214.78671218 Ha       -5844.64381061 eV
  | Hartree energy correction     :          -8.99691739 Ha        -244.81857847 eV
  | van der Waals energy corr.    :           0.00000000 Ha           0.00000000 eV
  | Entropy correction            :           0.00000000 Ha           0.00000000 eV
  | ---------------------------
  | Total energy                  :        -459.34422372 Ha      -12499.39228960 eV
  | Total energy, T -> 0          :        -459.34422372 Ha      -12499.39228960 eV  <-- do not rely on this value for anything but (periodic) metals
  | Electronic free energy        :        -459.34422372 Ha      -12499.39228960 eV

  Derived energy quantities:
  | Kinetic energy                :         460.02514171 Ha       12517.92101075 eV
  | Electrostatic energy          :        -863.70153476 Ha      -23502.51455563 eV
  | Energy correction for multipole
  | error in Hartree potential    :          -0.00087921 Ha          -0.02392446 eV
  | Sum of eigenvalues per atom                           :        -379.53956383 eV
  | Total energy (T->0) per atom                          :        -694.41068276 eV  <-- do not rely on this value for anything but (periodic) metals
  | Electronic free energy per atom                       :        -694.41068276 eV

  Self-consistency convergence accuracy:
  | Change of charge density      : 0.5361E+00
  | Change of sum of eigenvalues  : 0.1731E+03 eV
  | Change of total energy        : 0.4993E+01 eV

  End self-consistency iteration #     2       :  max(cpu_time)    wall_clock(cpu1)
  | Time for this iteration                    :        2.890 s           2.890 s
  | Charge density update                      :        0.902 s           0.901 s
  | Density mixing                             :        0.006 s           0.006 s
  | Hartree multipole update                   :        0.007 s           0.006 s
  | Hartree multipole summation                :        0.475 s           0.476 s
  | Integration                                :        1.418 s           1.417 s
  | Solution of K.-S. eqns.                    :        0.081 s           0.081 s
  | Total energy evaluation                    :        0.000 s           0.001 s
------------------------------------------------------------

------------------------------------------------------------
          Begin self-consistency iteration #    3

  Date     :  20150727, Time     :  123126.723
------------------------------------------------------------
  Evaluating new KS density.
  Integration grid: deviation in total charge (<rho> - N_e) =   6.394885E-14
  Pulay mixing of updated and previous charge densities.

  Evaluating partitioned Hartree potential by multipole expansion.
  | Analytical far-field extrapolation by fixed multipoles:
  | Hartree multipole sum: apparent total charge =  -0.428711E-05
  Summing up the Hartree potential.
  Time summed over all CPUs for potential: real work        3.784 s, elapsed        3.797 s
  | RMS charge density error from multipole expansion :   0.148060E-01

  Integrating Hamiltonian matrix: batch-based integration.
  Time summed over all CPUs for integration: real work       11.068 s, elapsed       11.316 s

  Updating Kohn-Sham eigenvalues, eigenvectors, occupation numbers, and Fermi level.
  Solving generalized eigenproblem
  Updating Kohn-Sham eigenvalues and eigenfunctions.
  Solving real generalised eigenvalue problem by standard LAPACK (fast)
  Determining occupation numbers for Kohn-Sham eigenstates.
  | Chemical potential (Fermi level) in eV                 : -.23337520E+01
  | Error in electron count due to remaining E_F inaccuracy: 0.00000000E+00
  | Maximum occupation number of highest empty state:  0.00E+00

  Highest occupied state (VBM) at     -6.23380273 eV
  | Occupation number:      2.00000000

  Lowest unoccupied state (CBM) at    -1.68732341 eV
  | Occupation number:      0.00000000

  Overall HOMO-LUMO gap:      4.54647932 eV.

  Total energy components:
  | Sum of eigenvalues            :        -251.05869637 Ha       -6831.65471887 eV
  | XC energy correction          :         -55.67093002 Ha       -1514.88308218 eV
  | XC potential correction       :          71.16484688 Ha        1936.49401132 eV
  | Free-atom electrostatic energy:        -214.78671218 Ha       -5844.64381061 eV
  | Hartree energy correction     :          -8.98673088 Ha        -244.54138929 eV
  | van der Waals energy corr.    :           0.00000000 Ha           0.00000000 eV
  | Entropy correction            :           0.00000000 Ha           0.00000000 eV
  | ---------------------------
  | Total energy                  :        -459.33822256 Ha      -12499.22898963 eV
  | Total energy, T -> 0          :        -459.33822256 Ha      -12499.22898963 eV  <-- do not rely on this value for anything but (periodic) metals
  | Electronic free energy        :        -459.33822256 Ha      -12499.22898963 eV

  Derived energy quantities:
  | Kinetic energy                :         457.65499616 Ha       12453.42606885 eV
  | Electrostatic energy          :        -861.32228870 Ha      -23437.77197630 eV
  | Energy correction for multipole
  | error in Hartree potential    :          -0.00734522 Ha          -0.19987358 eV
  | Sum of eigenvalues per atom                           :        -379.53637327 eV
  | Total energy (T->0) per atom                          :        -694.40161054 eV  <-- do not rely on this value for anything but (periodic) metals
  | Electronic free energy per atom                       :        -694.40161054 eV

  Self-consistency convergence accuracy:
  | Change of charge density      : 0.2671E+00
  | Change of sum of eigenvalues  : 0.5743E-01 eV
  | Change of total energy        : 0.1633E+00 eV

  End self-consistency iteration #     3       :  max(cpu_time)    wall_clock(cpu1)
  | Time for this iteration                    :        2.892 s           2.891 s
  | Charge density update                      :        0.904 s           0.904 s
  | Density mixing                             :        0.008 s           0.008 s
  | Hartree multipole update                   :        0.006 s           0.006 s
  | Hartree multipole summation                :        0.475 s           0.476 s
  | Integration                                :        1.417 s           1.416 s
  | Solution of K.-S. eqns.                    :        0.081 s           0.081 s
  | Total energy evaluation                    :        0.000 s           0.000 s
------------------------------------------------------------

------------------------------------------------------------
          Begin self-consistency iteration #    4

  Date     :  20150727, Time     :  123129.615
------------------------------------------------------------
  Evaluating new KS density.
  Integration grid: deviation in total charge (<rho> - N_e) =   7.105427E-15
  Pulay mixing of updated and previous charge densities.

  Evaluating partitioned Hartree potential by multipole expansion.
  | Analytical far-field extrapolation by fixed multipoles:
  | Hartree multipole sum: apparent total charge =  -0.481823E-05
  Summing up the Hartree potential.
  Time summed over all CPUs for potential: real work        3.783 s, elapsed        3.797 s
  | RMS charge density error from multipole expansion :   0.182122E-01

  Integrating Hamiltonian matrix: batch-based integration.
  Time summed over all CPUs for integration: real work       11.065 s, elapsed       11.308 s

  Updating Kohn-Sham eigenvalues, eigenvectors, occupation numbers, and Fermi level.
  Solving generalized eigenproblem
  Updating Kohn-Sham eigenvalues and eigenfunctions.
  Solving real generalised eigenvalue problem by standard LAPACK (fast)
  Determining occupation numbers for Kohn-Sham eigenstates.
  | Chemical potential (Fermi level) in eV                 : -.19237966E+01
  | Error in electron count due to remaining E_F inaccuracy: 0.00000000E+00
  | Maximum occupation number of highest empty state:  0.00E+00

  Highest occupied state (VBM) at     -5.28860437 eV
  | Occupation number:      2.00000000

  Lowest unoccupied state (CBM) at    -1.53277597 eV
  | Occupation number:      0.00000000

  Overall HOMO-LUMO gap:      3.75582840 eV.

  Total energy components:
  | Sum of eigenvalues            :        -249.47092895 Ha       -6788.44936925 eV
  | XC energy correction          :         -55.86359079 Ha       -1520.12564865 eV
  | XC potential correction       :          71.41491577 Ha        1943.29873204 eV
  | Free-atom electrostatic energy:        -214.78671218 Ha       -5844.64381061 eV
  | Hartree energy correction     :         -10.62213046 Ha        -289.04287617 eV
  | van der Waals energy corr.    :           0.00000000 Ha           0.00000000 eV
  | Entropy correction            :           0.00000000 Ha           0.00000000 eV
  | ---------------------------
  | Total energy                  :        -459.32844662 Ha      -12498.96297264 eV
  | Total energy, T -> 0          :        -459.32844662 Ha      -12498.96297264 eV  <-- do not rely on this value for anything but (periodic) metals
  | Electronic free energy        :        -459.32844662 Ha      -12498.96297264 eV

  Derived energy quantities:
  | Kinetic energy                :         457.83849967 Ha       12458.41945338 eV
  | Electrostatic energy          :        -861.30335549 Ha      -23437.25677737 eV
  | Energy correction for multipole
  | error in Hartree potential    :          -0.00943850 Ha          -0.25683473 eV
  | Sum of eigenvalues per atom                           :        -377.13607607 eV
  | Total energy (T->0) per atom                          :        -694.38683181 eV  <-- do not rely on this value for anything but (periodic) metals
  | Electronic free energy per atom                       :        -694.38683181 eV

  Self-consistency convergence accuracy:
  | Change of charge density      : 0.1308E+00
  | Change of sum of eigenvalues  : 0.4321E+02 eV
  | Change of total energy        : 0.2660E+00 eV

  End self-consistency iteration #     4       :  max(cpu_time)    wall_clock(cpu1)
  | Time for this iteration                    :        2.890 s           2.888 s
  | Charge density update                      :        0.900 s           0.899 s
  | Density mixing                             :        0.010 s           0.010 s
  | Hartree multipole update                   :        0.006 s           0.006 s
  | Hartree multipole summation                :        0.476 s           0.476 s
  | Integration                                :        1.416 s           1.416 s
  | Solution of K.-S. eqns.                    :        0.081 s           0.081 s
  | Total energy evaluation                    :        0.000 s           0.000 s
------------------------------------------------------------

------------------------------------------------------------
          Begin self-consistency iteration #    5

  Date     :  20150727, Time     :  123132.504
------------------------------------------------------------
  Evaluating new KS density.
  Integration grid: deviation in total charge (<rho> - N_e) =   2.131628E-14
  Pulay mixing of updated and previous charge densities.

  Evaluating partitioned Hartree potential by multipole expansion.
  | Analytical far-field extrapolation by fixed multipoles:
  | Hartree multipole sum: apparent total charge =  -0.478042E-05
  Summing up the Hartree potential.
  Time summed over all CPUs for potential: real work        3.783 s, elapsed        3.796 s
  | RMS charge density error from multipole expansion :   0.190640E-01

  Integrating Hamiltonian matrix: batch-based integration.
  Time summed over all CPUs for integration: real work       11.069 s, elapsed       11.310 s

  Updating Kohn-Sham eigenvalues, eigenvectors, occupation numbers, and Fermi level.
  Solving generalized eigenproblem
  Updating Kohn-Sham eigenvalues and eigenfunctions.
  Solving real generalised eigenvalue problem by standard LAPACK (fast)
  Determining occupation numbers for Kohn-Sham eigenstates.
  | Chemical potential (Fermi level) in eV                 : -.20629464E+01
  | Error in electron count due to remaining E_F inaccuracy: 0.00000000E+00
  | Maximum occupation number of highest empty state:  0.00E+00

  Highest occupied state (VBM) at     -4.97307931 eV
  | Occupation number:      2.00000000

  Lowest unoccupied state (CBM) at    -1.51700708 eV
  | Occupation number:      0.00000000

  Overall HOMO-LUMO gap:      3.45607223 eV.

  Total energy components:
  | Sum of eigenvalues            :        -249.25506885 Ha       -6782.57551697 eV
  | XC energy correction          :         -55.89560954 Ha       -1520.99692306 eV
  | XC potential correction       :          71.45605866 Ha        1944.41828707 eV
  | Free-atom electrostatic energy:        -214.78671218 Ha       -5844.64381061 eV
  | Hartree energy correction     :         -10.84677582 Ha        -295.15578742 eV
  | van der Waals energy corr.    :           0.00000000 Ha           0.00000000 eV
  | Entropy correction            :           0.00000000 Ha           0.00000000 eV
  | ---------------------------
  | Total energy                  :        -459.32810773 Ha      -12498.95375100 eV
  | Total energy, T -> 0          :        -459.32810773 Ha      -12498.95375100 eV  <-- do not rely on this value for anything but (periodic) metals
  | Electronic free energy        :        -459.32810773 Ha      -12498.95375100 eV

  Derived energy quantities:
  | Kinetic energy                :         457.87725174 Ha       12459.47395087 eV
  | Electrostatic energy          :        -861.30974992 Ha      -23437.43077881 eV
  | Energy correction for multipole
  | error in Hartree potential    :          -0.01016076 Ha          -0.27648826 eV
  | Sum of eigenvalues per atom                           :        -376.80975094 eV
  | Total energy (T->0) per atom                          :        -694.38631950 eV  <-- do not rely on this value for anything but (periodic) metals
  | Electronic free energy per atom                       :        -694.38631950 eV

  Self-consistency convergence accuracy:
  | Change of charge density      : 0.3609E-01
  | Change of sum of eigenvalues  : 0.5874E+01 eV
  | Change of total energy        : 0.9222E-02 eV

  End self-consistency iteration #     5       :  max(cpu_time)    wall_clock(cpu1)
  | Time for this iteration                    :        2.891 s           2.890 s
  | Charge density update                      :        0.900 s           0.899 s
  | Density mixing                             :        0.011 s           0.012 s
  | Hartree multipole update                   :        0.006 s           0.006 s
  | Hartree multipole summation                :        0.476 s           0.475 s
  | Integration                                :        1.416 s           1.416 s
  | Solution of K.-S. eqns.                    :        0.081 s           0.081 s
  | Total energy evaluation                    :        0.000 s           0.000 s
------------------------------------------------------------

------------------------------------------------------------
          Begin self-consistency iteration #    6

  Date     :  20150727, Time     :  123135.394
------------------------------------------------------------
  Evaluating new KS density.
  Integration grid: deviation in total charge (<rho> - N_e) =   3.552714E-14
  Pulay mixing of updated and previous charge densities.

  Evaluating partitioned Hartree potential by multipole expansion.
  | Analytical far-field extrapolation by fixed multipoles:
  | Hartree multipole sum: apparent total charge =  -0.476320E-05
  Summing up the Hartree potential.
  Time summed over all CPUs for potential: real work        3.783 s, elapsed        3.797 s
  | RMS charge density error from multipole expansion :   0.194407E-01

  Integrating Hamiltonian matrix: batch-based integration.
  Time summed over all CPUs for integration: real work       11.066 s, elapsed       11.308 s

  Updating Kohn-Sham eigenvalues, eigenvectors, occupation numbers, and Fermi level.
  Solving generalized eigenproblem
  Updating Kohn-Sham eigenvalues and eigenfunctions.
  Solving real generalised eigenvalue problem by standard LAPACK (fast)
  Determining occupation numbers for Kohn-Sham eigenstates.
  | Chemical potential (Fermi level) in eV                 : -.22882932E+01
  | Error in electron count due to remaining E_F inaccuracy: 0.00000000E+00
  | Maximum occupation number of highest empty state:  0.00E+00

  Highest occupied state (VBM) at     -4.92058433 eV
  | Occupation number:      2.00000000

  Lowest unoccupied state (CBM) at    -1.50546577 eV
  | Occupation number:      0.00000000

  Overall HOMO-LUMO gap:      3.41511856 eV.

  Total energy components:
  | Sum of eigenvalues            :        -249.16959363 Ha       -6780.24961800 eV
  | XC energy correction          :         -55.90789190 Ha       -1521.33114297 eV
  | XC potential correction       :          71.47178051 Ha        1944.84610040 eV
  | Free-atom electrostatic energy:        -214.78671218 Ha       -5844.64381061 eV
  | Hartree energy correction     :         -10.93579897 Ha        -297.57823072 eV
  | van der Waals energy corr.    :           0.00000000 Ha           0.00000000 eV
  | Entropy correction            :           0.00000000 Ha           0.00000000 eV
  | ---------------------------
  | Total energy                  :        -459.32821617 Ha      -12498.95670190 eV
  | Total energy, T -> 0          :        -459.32821617 Ha      -12498.95670190 eV  <-- do not rely on this value for anything but (periodic) metals
  | Electronic free energy        :        -459.32821617 Ha      -12498.95670190 eV

  Derived energy quantities:
  | Kinetic energy                :         457.87941652 Ha       12459.53285749 eV
  | Electrostatic energy          :        -861.29974079 Ha      -23437.15841642 eV
  | Energy correction for multipole
  | error in Hartree potential    :          -0.01047221 Ha          -0.28496323 eV
  | Sum of eigenvalues per atom                           :        -376.68053433 eV
  | Total energy (T->0) per atom                          :        -694.38648344 eV  <-- do not rely on this value for anything but (periodic) metals
  | Electronic free energy per atom                       :        -694.38648344 eV

  Self-consistency convergence accuracy:
  | Change of charge density      : 0.9904E-02
  | Change of sum of eigenvalues  : 0.2326E+01 eV
  | Change of total energy        : -.2951E-02 eV

  End self-consistency iteration #     6       :  max(cpu_time)    wall_clock(cpu1)
  | Time for this iteration                    :        2.892 s           2.892 s
  | Charge density update                      :        0.899 s           0.900 s
  | Density mixing                             :        0.014 s           0.013 s
  | Hartree multipole update                   :        0.006 s           0.006 s
  | Hartree multipole summation                :        0.475 s           0.475 s
  | Integration                                :        1.416 s           1.416 s
  | Solution of K.-S. eqns.                    :        0.082 s           0.081 s
  | Total energy evaluation                    :        0.000 s           0.000 s
------------------------------------------------------------

------------------------------------------------------------
          Begin self-consistency iteration #    7

  Date     :  20150727, Time     :  123138.286
------------------------------------------------------------
  Evaluating new KS density.
  Integration grid: deviation in total charge (<rho> - N_e) =  -1.421085E-14
  Pulay mixing of updated and previous charge densities.

  Evaluating partitioned Hartree potential by multipole expansion.
  | Analytical far-field extrapolation by fixed multipoles:
  | Hartree multipole sum: apparent total charge =  -0.458196E-05
  Summing up the Hartree potential.
  Time summed over all CPUs for potential: real work        3.783 s, elapsed        3.796 s
  | RMS charge density error from multipole expansion :   0.193551E-01

  Integrating Hamiltonian matrix: batch-based integration.
  Time summed over all CPUs for integration: real work       11.066 s, elapsed       11.317 s

  Updating Kohn-Sham eigenvalues, eigenvectors, occupation numbers, and Fermi level.
  Solving generalized eigenproblem
  Updating Kohn-Sham eigenvalues and eigenfunctions.
  Solving real generalised eigenvalue problem by standard LAPACK (fast)
  Determining occupation numbers for Kohn-Sham eigenstates.
  | Chemical potential (Fermi level) in eV                 : -.19093007E+01
  | Error in electron count due to remaining E_F inaccuracy: 0.00000000E+00
  | Maximum occupation number of highest empty state:  0.00E+00

  Highest occupied state (VBM) at     -5.05499784 eV
  | Occupation number:      2.00000000

  Lowest unoccupied state (CBM) at    -1.52794153 eV
  | Occupation number:      0.00000000

  Overall HOMO-LUMO gap:      3.52705631 eV.

  Total energy components:
  | Sum of eigenvalues            :        -249.34682723 Ha       -6785.07238972 eV
  | XC energy correction          :         -55.88898858 Ha       -1520.81675750 eV
  | XC potential correction       :          71.44666206 Ha        1944.16259267 eV
  | Free-atom electrostatic energy:        -214.78671218 Ha       -5844.64381061 eV
  | Hartree energy correction     :         -10.75222350 Ha        -292.58288784 eV
  | van der Waals energy corr.    :           0.00000000 Ha           0.00000000 eV
  | Entropy correction            :           0.00000000 Ha           0.00000000 eV
  | ---------------------------
  | Total energy                  :        -459.32808943 Ha      -12498.95325301 eV
  | Total energy, T -> 0          :        -459.32808943 Ha      -12498.95325301 eV  <-- do not rely on this value for anything but (periodic) metals
  | Electronic free energy        :        -459.32808943 Ha      -12498.95325301 eV

  Derived energy quantities:
  | Kinetic energy                :         457.92384528 Ha       12460.74182559 eV
  | Electrostatic energy          :        -861.36294613 Ha      -23438.87832109 eV
  | Energy correction for multipole
  | error in Hartree potential    :          -0.01058129 Ha          -0.28793156 eV
  | Sum of eigenvalues per atom                           :        -376.94846610 eV
  | Total energy (T->0) per atom                          :        -694.38629183 eV  <-- do not rely on this value for anything but (periodic) metals
  | Electronic free energy per atom                       :        -694.38629183 eV

  Self-consistency convergence accuracy:
  | Change of charge density      : 0.1135E-01
  | Change of sum of eigenvalues  : -.4823E+01 eV
  | Change of total energy        : 0.3449E-02 eV

  End self-consistency iteration #     7       :  max(cpu_time)    wall_clock(cpu1)
  | Time for this iteration                    :        2.895 s           2.895 s
  | Charge density update                      :        0.900 s           0.900 s
  | Density mixing                             :        0.015 s           0.015 s
  | Hartree multipole update                   :        0.006 s           0.006 s
  | Hartree multipole summation                :        0.476 s           0.475 s
  | Integration                                :        1.417 s           1.417 s
  | Solution of K.-S. eqns.                    :        0.081 s           0.081 s
  | Total energy evaluation                    :        0.000 s           0.000 s
------------------------------------------------------------

------------------------------------------------------------
          Begin self-consistency iteration #    8

  Date     :  20150727, Time     :  123141.181
------------------------------------------------------------
  Evaluating new KS density.
  Integration grid: deviation in total charge (<rho> - N_e) =   1.421085E-14
  Pulay mixing of updated and previous charge densities.

  Evaluating partitioned Hartree potential by multipole expansion.
  | Analytical far-field extrapolation by fixed multipoles:
  | Hartree multipole sum: apparent total charge =  -0.456717E-05
  Summing up the Hartree potential.
  Time summed over all CPUs for potential: real work        3.783 s, elapsed        3.796 s
  | RMS charge density error from multipole expansion :   0.193854E-01

  Integrating Hamiltonian matrix: batch-based integration.
  Time summed over all CPUs for integration: real work       11.064 s, elapsed       11.310 s

  Updating Kohn-Sham eigenvalues, eigenvectors, occupation numbers, and Fermi level.
  Solving generalized eigenproblem
  Updating Kohn-Sham eigenvalues and eigenfunctions.
  Solving real generalised eigenvalue problem by standard LAPACK (fast)
  Determining occupation numbers for Kohn-Sham eigenstates.
  | Chemical potential (Fermi level) in eV                 : -.19083540E+01
  | Error in electron count due to remaining E_F inaccuracy: 0.00000000E+00
  | Maximum occupation number of highest empty state:  0.00E+00

  Highest occupied state (VBM) at     -5.04564410 eV
  | Occupation number:      2.00000000

  Lowest unoccupied state (CBM) at    -1.52764546 eV
  | Occupation number:      0.00000000

  Overall HOMO-LUMO gap:      3.51799864 eV.

  Total energy components:
  | Sum of eigenvalues            :        -249.34542313 Ha       -6785.03418224 eV
  | XC energy correction          :         -55.88910027 Ha       -1520.81979670 eV
  | XC potential correction       :          71.44675768 Ha        1944.16519449 eV
  | Free-atom electrostatic energy:        -214.78671218 Ha       -5844.64381061 eV
  | Hartree energy correction     :         -10.75361071 Ha        -292.62063566 eV
  | van der Waals energy corr.    :           0.00000000 Ha           0.00000000 eV
  | Entropy correction            :           0.00000000 Ha           0.00000000 eV
  | ---------------------------
  | Total energy                  :        -459.32808861 Ha      -12498.95323073 eV
  | Total energy, T -> 0          :        -459.32808861 Ha      -12498.95323073 eV  <-- do not rely on this value for anything but (periodic) metals
  | Electronic free energy        :        -459.32808861 Ha      -12498.95323073 eV

  Derived energy quantities:
  | Kinetic energy                :         457.92719846 Ha       12460.83307042 eV
  | Electrostatic energy          :        -861.36618680 Ha      -23438.96650444 eV
  | Energy correction for multipole
  | error in Hartree potential    :          -0.01062728 Ha          -0.28918299 eV
  | Sum of eigenvalues per atom                           :        -376.94634346 eV
  | Total energy (T->0) per atom                          :        -694.38629060 eV  <-- do not rely on this value for anything but (periodic) metals
  | Electronic free energy per atom                       :        -694.38629060 eV

  Self-consistency convergence accuracy:
  | Change of charge density      : 0.1859E-02
  | Change of sum of eigenvalues  : 0.3821E-01 eV
  | Change of total energy        : 0.2228E-04 eV

  End self-consistency iteration #     8       :  max(cpu_time)    wall_clock(cpu1)
  | Time for this iteration                    :        2.899 s           2.899 s
  | Charge density update                      :        0.902 s           0.903 s
  | Density mixing                             :        0.017 s           0.016 s
  | Hartree multipole update                   :        0.006 s           0.006 s
  | Hartree multipole summation                :        0.475 s           0.476 s
  | Integration                                :        1.417 s           1.416 s
  | Solution of K.-S. eqns.                    :        0.081 s           0.081 s
  | Total energy evaluation                    :        0.001 s           0.001 s
------------------------------------------------------------

------------------------------------------------------------
          Begin self-consistency iteration #    9

  Date     :  20150727, Time     :  123144.080
------------------------------------------------------------
  Evaluating new KS density.
  Integration grid: deviation in total charge (<rho> - N_e) =  -7.105427E-15
  Pulay mixing of updated and previous charge densities.

[...]
   Pulay + GGA                   : 0.126381E+02 0.725897E+01 0.102113E+01
   Van der Waals               : 0.516172E-03 -.724309E-02 -.118003E-02
   ----------------------------------------------------------------
   Total forces(  13)            : 0.712043E+00 0.181713E+01 -.741239E+00
  atom #   14
   Hellmann-Feynman + Multipole  : -.987069E-01 -.320965E+00 0.113764E+00
   Pulay + GGA                   : 0.848214E-01 -.244624E-01 0.171209E-01
   Van der Waals               : -.236322E-02 -.512519E-02 -.225908E-02
   ----------------------------------------------------------------
   Total forces(  14)            : -.162487E-01 -.350552E+00 0.128625E+00
  atom #   15
   Hellmann-Feynman + Multipole  : -.831863E+00 -.150271E+01 0.693594E+00
   Pulay + GGA                   : 0.449611E-01 0.994559E-01 -.628673E-01
   Van der Waals               : 0.257996E-02 -.433747E-02 0.260696E-02
   ----------------------------------------------------------------
   Total forces(  15)            : -.784322E+00 -.140759E+01 0.633334E+00
  atom #   16
   Hellmann-Feynman + Multipole  : -.180872E+01 -.126415E+02 -.796135E+00
   Pulay + GGA                   : 0.244494E+01 0.130873E+02 -.491166E+00
   Van der Waals               : 0.233855E-02 -.204040E-02 0.820689E-03
   ----------------------------------------------------------------
   Total forces(  16)            : 0.638559E+00 0.443710E+00 -.128648E+01
  atom #   17
   Hellmann-Feynman + Multipole  : -.284812E+00 0.412086E+00 0.340719E+00
   Pulay + GGA                   : -.782877E-01 0.855916E-01 0.730627E-01
   Van der Waals               : 0.472726E-02 -.222381E-02 -.270751E-02
   ----------------------------------------------------------------
   Total forces(  17)            : -.358372E+00 0.495453E+00 0.411074E+00
  atom #   18
   Hellmann-Feynman + Multipole  : -.551020E+00 -.775488E+00 0.741162E+00
   Pulay + GGA                   : 0.328470E-01 0.707775E-01 -.648529E-01
   Van der Waals               : 0.442220E-03 -.134049E-02 0.387020E-03
   ----------------------------------------------------------------
   Total forces(  18)            : -.517731E+00 -.706051E+00 0.676697E+00
  Timings for vdw_correction_hirshfeld (Tkatchenko-Scheffler 2009):
  | CPU time:        7.732 s, Wall clock time:        7.732 s.
  Removing unitary transformations (pure translations, rotations) from forces on atoms.
  Atomic forces before filtering:
  | Net force on center of mass :  0.707682E-02 0.412415E-02 -.938679E-03 eV/A
  | Net torque on center of mass:  -.133596E-01 0.105320E-01 -.102709E-01 eV
  Atomic forces after filtering:
  | Net force on center of mass :  0.107044E-14 -.356812E-15 0.107044E-14 eV/A
  | Net torque on center of mass:  -.453161E-14 -.604214E-14 0.453161E-14 eV
 
  Energy and forces in a compact form:
  | Total energy uncorrected      :         -0.124990558942310E+05 eV
  | Total energy corrected        :         -0.124990558942310E+05 eV  <-- do not rely on this value for anything but (periodic) metals
  | Electronic free energy        :         -0.124990558942310E+05 eV
  Total atomic forces (unitary forces cleaned) [eV/Ang]:
  |   1         -0.178446886848476E+01          0.335724309103037E+01         -0.139150240430647E+01
  |   2          0.220122874782928E+01         -0.353311946006670E+01          0.154519950598940E+01
  |   3         -0.145755452287198E+01         -0.193182614462366E+00         -0.241337984391154E+00
  |   4          0.292361921958606E+01         -0.224010657084911E+00          0.108263929048652E+01
  |   5         -0.303646038898815E+00         -0.407974093832684E+00         -0.721537235904644E+00
  |   6         -0.162701241231994E+01          0.959711428180539E+00         -0.366454736646791E+00
  |   7         -0.321455246449738E+00          0.648961004632333E+00          0.223377121376625E+01
  |   8         -0.317997572068375E+00          0.176607061522884E+00         -0.224469613526999E+01
  |   9          0.819166715460903E+00         -0.107690004301432E+01          0.232695380028568E+00
  |  10          0.182767753028904E+01          0.947980486025788E+00         -0.230115759538900E+01
  |  11         -0.340593466720409E+00         -0.216358883157010E+00          0.249293838492379E+00
  |  12         -0.128979441560235E+01         -0.729143363131916E+00          0.210003235072857E+01
  |  13          0.711693335513009E+00          0.181704375255260E+01         -0.740976931850656E+00
  |  14         -0.166239242712257E-01         -0.350644083207632E+00          0.128949865365202E+00
  |  15         -0.784662550841796E+00         -0.140758467663048E+01          0.633800102527641E+00
  |  16          0.637891562622914E+00          0.443112121355843E+00         -0.128655235610596E+01
  |  17         -0.359157829525522E+00          0.494740055344892E+00          0.411053401752054E+00
  |  18         -0.518310263246301E+00         -0.706481126057226E+00          0.676780430728089E+00
 
  ------------------------------------ 
  Start decomposition of the XC Energy 
  ------------------------------------ 
  Hartree-Fock part   :          0.000000000 Ha              0.000000000 eV
  ------------------------------------ 
  X Energy            :        -53.920228214 Ha          -1467.244062260 eV
  C Energy GGA        :         -1.969115821 Ha            -53.582367742 eV
  Total XC Energy     :        -55.889344035 Ha          -1520.826430002 eV
  LDA X and C from self-consistent density 
  X Energy LDA        :        -48.608938343 Ha          -1322.716511399 eV
  C Energy LDA        :         -3.960858797 Ha           -107.780451671 eV
  ------------------------------------ 
  End decomposition of the XC Energy 
  ------------------------------------ 
  Performing Hirshfeld analysis of fragment charges and moments.
  ----------------------------------------------------------------------
  | Atom     1: O
  |   Hirshfeld charge        :     -0.35939940
  |   Free atom volume        :     23.95238533
  |   Hirshfeld volume        :     24.14085314
  |   Hirshfeld dipole vector :      0.04473485       0.06043338      -0.01012093
  |   Hirshfeld dipole moment :      0.07586721
  |   Hirshfeld second moments:     -0.00168938      -0.03649210       0.02870094
  |                                 -0.03649210      -0.04207563      -0.02805605
  |                                  0.02870094      -0.02805605      -0.09797775
  ----------------------------------------------------------------------
  | Atom     2: H
  |   Hirshfeld charge        :      0.11614406
  |   Free atom volume        :     10.44207651
  |   Hirshfeld volume        :      7.69435412
  |   Hirshfeld dipole vector :     -0.05704456       0.09108844      -0.03873612
  |   Hirshfeld dipole moment :      0.11424392
  |   Hirshfeld second moments:      0.10606322       0.00185085       0.00670920
  |                                  0.00185085       0.06272643      -0.00261482
  |                                  0.00670920      -0.00261482       0.07427693
  ----------------------------------------------------------------------
  | Atom     3: H
  |   Hirshfeld charge        :      0.05887981
  |   Free atom volume        :     10.44207651
  |   Hirshfeld volume        :      8.62282848
  |   Hirshfeld dipole vector :      0.04567609       0.00805509       0.00886593
  |   Hirshfeld dipole moment :      0.04722069
  |   Hirshfeld second moments:      0.01849382      -0.03028861       0.00472892
  |                                 -0.03028861       0.07422091      -0.00583651
  |                                  0.00472892      -0.00583651       0.05562706
  ----------------------------------------------------------------------
  | Atom     4: O
  |   Hirshfeld charge        :     -0.21199033
  |   Free atom volume        :     23.95238533
  |   Hirshfeld volume        :     20.98841208
  |   Hirshfeld dipole vector :     -0.01980763      -0.02524189       0.03277326
  |   Hirshfeld dipole moment :      0.04586482
  |   Hirshfeld second moments:      0.06699243      -0.02604139       0.00793190
  |                                 -0.02604139       0.06281363       0.02937609
  |                                  0.00793190       0.02937609       0.02729149
  ----------------------------------------------------------------------
  | Atom     5: H
  |   Hirshfeld charge        :      0.11019656
  |   Free atom volume        :     10.44207651
  |   Hirshfeld volume        :      7.40425404
  |   Hirshfeld dipole vector :      0.01074305       0.02323295       0.04611355
  |   Hirshfeld dipole moment :      0.05274128
  |   Hirshfeld second moments:      0.10896797      -0.00159749       0.00942636
  |                                 -0.00159749       0.07499850      -0.02669423
  |                                  0.00942636      -0.02669423       0.06177807
  ----------------------------------------------------------------------
  | Atom     6: H
  |   Hirshfeld charge        :      0.15949523
  |   Free atom volume        :     10.44207651
  |   Hirshfeld volume        :      6.00017177
  |   Hirshfeld dipole vector :      0.09048609      -0.07698089       0.01362685
  |   Hirshfeld dipole moment :      0.11958044
  |   Hirshfeld second moments:      0.12090366       0.00214087       0.00081005
  |                                  0.00214087       0.12304692       0.01361388
  |                                  0.00081005       0.01361388       0.12333202
  ----------------------------------------------------------------------
  | Atom     7: O
  |   Hirshfeld charge        :     -0.25714197
  |   Free atom volume        :     23.95238533
  |   Hirshfeld volume        :     21.44546320
  |   Hirshfeld dipole vector :      0.00263243       0.03342721       0.00357766
  |   Hirshfeld dipole moment :      0.03372103
  |   Hirshfeld second moments:      0.03270527      -0.02443881       0.00186114
  |                                 -0.02443881      -0.00324611      -0.02340107
  |                                  0.00186114      -0.02340107       0.07190706
  ----------------------------------------------------------------------
  | Atom     8: H
  |   Hirshfeld charge        :      0.14519244
  |   Free atom volume        :     10.44207651
  |   Hirshfeld volume        :      6.18048340
  |   Hirshfeld dipole vector :      0.01737906      -0.01184113       0.11793522
  |   Hirshfeld dipole moment :      0.11979549
  |   Hirshfeld second moments:      0.12189664      -0.01190012      -0.00264122
  |                                 -0.01190012       0.11231934      -0.00612269
  |                                 -0.00264122      -0.00612269       0.11270207
  ----------------------------------------------------------------------
  | Atom     9: H
  |   Hirshfeld charge        :      0.09236251
  |   Free atom volume        :     10.44207651
  |   Hirshfeld volume        :      7.71838501
  |   Hirshfeld dipole vector :     -0.02579009       0.02759954       0.00376333
  |   Hirshfeld dipole moment :      0.03796084
  |   Hirshfeld second moments:      0.05946530       0.02268167      -0.01895659
  |                                  0.02268167       0.05139222       0.01051052
  |                                 -0.01895659       0.01051052       0.10321437
  ----------------------------------------------------------------------
  | Atom    10: O
  |   Hirshfeld charge        :     -0.20845335
  |   Free atom volume        :     23.95238533
  |   Hirshfeld volume        :     20.03994762
  |   Hirshfeld dipole vector :     -0.00737082      -0.00441731       0.00758837
  |   Hirshfeld dipole moment :      0.01146407
  |   Hirshfeld second moments:      0.09405819       0.02383053       0.00551500
  |                                  0.02383053       0.07275960       0.00443825
  |                                  0.00551500       0.00443825       0.07243000
  ----------------------------------------------------------------------
  | Atom    11: H
  |   Hirshfeld charge        :      0.16726545
  |   Free atom volume        :     10.44207651
  |   Hirshfeld volume        :      5.68204884
  |   Hirshfeld dipole vector :      0.09515035       0.06394464       0.03327162
  |   Hirshfeld dipole moment :      0.11937129
  |   Hirshfeld second moments:      0.12939353       0.00288163      -0.00544113
  |                                  0.00288163       0.12659924      -0.00386404
  |                                 -0.00544113      -0.00386404       0.13546357
  ----------------------------------------------------------------------
  | Atom    12: H
  |   Hirshfeld charge        :      0.10599334
  |   Free atom volume        :     10.44207651
  |   Hirshfeld volume        :      7.45270768
  |   Hirshfeld dipole vector :     -0.01694501      -0.01270647       0.02484455
  |   Hirshfeld dipole moment :      0.03264719
  |   Hirshfeld second moments:      0.07668875      -0.00957268       0.03559092
  |                                 -0.00957268       0.08999686       0.01460694
  |                                  0.03559092       0.01460694       0.07435450
  ----------------------------------------------------------------------
  | Atom    13: O
  |   Hirshfeld charge        :     -0.24290388
  |   Free atom volume        :     23.95238533
  |   Hirshfeld volume        :     20.91022217
  |   Hirshfeld dipole vector :      0.02054757       0.00579975       0.02067719
  |   Hirshfeld dipole moment :      0.02972181
  |   Hirshfeld second moments:      0.04814535      -0.00822231      -0.01071264
  |                                 -0.00822231       0.06782520      -0.03993645
  |                                 -0.01071264      -0.03993645       0.02792602
  ----------------------------------------------------------------------
  | Atom    14: H
  |   Hirshfeld charge        :      0.11114669
  |   Free atom volume        :     10.44207651
  |   Hirshfeld volume        :      7.29671989
  |   Hirshfeld dipole vector :      0.05171499      -0.01886751       0.00957331
  |   Hirshfeld dipole moment :      0.05587549
  |   Hirshfeld second moments:      0.07337642       0.02698717      -0.02511342
  |                                  0.02698717       0.09758864       0.00352859
  |                                 -0.02511342       0.00352859       0.08383363
  ----------------------------------------------------------------------
  | Atom    15: H
  |   Hirshfeld charge        :      0.15537042
  |   Free atom volume        :     10.44207651
  |   Hirshfeld volume        :      5.90319828
  |   Hirshfeld dipole vector :      0.03616277       0.10240964      -0.05208478
  |   Hirshfeld dipole moment :      0.12045042
  |   Hirshfeld second moments:      0.13242172      -0.00869572       0.00168239
  |                                 -0.00869572       0.11849970      -0.00661928
  |                                  0.00168239      -0.00661928       0.11740702
  ----------------------------------------------------------------------
  | Atom    16: O
  |   Hirshfeld charge        :     -0.21904870
  |   Free atom volume        :     23.95238533
  |   Hirshfeld volume        :     20.65383707
  |   Hirshfeld dipole vector :      0.02175795       0.01448033       0.00898087
  |   Hirshfeld dipole moment :      0.02763593
  |   Hirshfeld second moments:      0.04591358      -0.02878736      -0.03285984
  |                                 -0.02878736       0.06184456      -0.00278291
  |                                 -0.03285984      -0.00278291       0.07293545
  ----------------------------------------------------------------------
  | Atom    17: H
  |   Hirshfeld charge        :      0.15704009
  |   Free atom volume        :     10.44207651
  |   Hirshfeld volume        :      5.81890288
  |   Hirshfeld dipole vector :     -0.06070746       0.08328621       0.06458495
  |   Hirshfeld dipole moment :      0.12162731
  |   Hirshfeld second moments:      0.12180956      -0.00193677      -0.00819552
  |                                 -0.00193677       0.12476648      -0.01120696
  |                                 -0.00819552      -0.01120696       0.13153968
  ----------------------------------------------------------------------
  | Atom    18: H
  |   Hirshfeld charge        :      0.11978162
  |   Free atom volume        :     10.44207651
  |   Hirshfeld volume        :      7.33890619
  |   Hirshfeld dipole vector :      0.01602351       0.03689199      -0.03280741
  |   Hirshfeld dipole moment :      0.05190470
  |   Hirshfeld second moments:      0.08028843      -0.01973759       0.02157608
  |                                 -0.01973759       0.10861427       0.01256810
  |                                  0.02157608       0.01256810       0.06189871
  ----------------------------------------------------------------------


------------------------------------------------------------------------------
  Final output of selected total energy values:

  The following output summarizes some interesting total energy values
  at the end of a run (AFTER all relaxation, molecular dynamics, etc.).

  | Total energy of the DFT / Hartree-Fock s.c.f. calculation      :         -12499.055894231 eV
  | Final zero-broadening corrected energy (caution - metals only) :         -12499.055894231 eV
  | For reference only, the value of 1 Hartree used in FHI-aims is :             27.211384500 eV

  Before relying on these values, please be sure to understand exactly which
  total energy value is referred to by a given number. Different objects may
  all carry the same name 'total energy'. Definitions:

  Total energy of the DFT / Hartree-Fock s.c.f. calculation:
  | Note that this energy does not include ANY quantities calculated after the
  | s.c.f. cycle, in particular not ANY RPA, MP2, etc. many-body perturbation terms.

  Final zero-broadening corrected energy:
  | For metallic systems only, a broadening of the occupation numbers at the Fermi
  | level can be extrapolated back to zero broadening by an electron-gas inspired
  | formula. For all systems that are not real metals, this value can be
  | meaningless and should be avoided.

------------------------------------------------------------------------------

------------------------------------------------------------
          Leaving FHI-aims.
          Date     :  20150727, Time     :  123210.235

          Computational steps:
          | Number of self-consistency cycles          :           15

          Detailed time accounting                     :  max(cpu_time)    wall_clock(cpu1)
          | Total time                                 :       52.940 s          52.969 s
          | Preparation time                           :        0.172 s           0.660 s
          | Grid partitioning                          :        0.192 s           0.192 s
          | Preloading free-atom quantities on grid    :        0.014 s           0.014 s
          | Free-atom superposition energy             :        0.091 s           0.091 s
          | Total time for integrations                :       23.474 s          23.472 s
          | Total time for solution of K.-S. equations :        1.513 s           1.513 s
          | Total time for density & force components  :       17.579 s          17.579 s
          | Total time for mixing                      :        0.227 s           0.227 s
          | Total time for Hartree multipole update    :        0.093 s           0.091 s
          | Total time for Hartree multipole sum       :        8.699 s           8.703 s
          | Total time for total energy evaluation     :        0.003 s           0.018 s
          | Total time for scaled ZORA corrections     :        0.000 s           0.000 s
          | Total time for TS (2009) vdW correction    :        0.072 s           0.073 s

          Have a nice day.
------------------------------------------------------------
