  MPI-parallelism will be employed.
------------------------------------------------------------
          Invoking FHI-aims ...
          Version 081213
          Compiled on 2013/08/29 at 17:41:06 on host generoso.

          When using FHI-aims, please cite the following reference:

          Volker Blum, Ralf Gehrke, Felix Hanke, Paula Havu,
          Ville Havu, Xinguo Ren, Karsten Reuter, and Matthias Scheffler,
          'Ab Initio Molecular Simulations with Numeric Atom-Centered Orbitals: FHI-aims',
          Computer Physics Communications 180, 2175-2196 (2009)

          For any questions about FHI-aims, please visit the aimsclub website
          with its forums and wiki. Contributions to both the forums and the
          wiki are warmly encouraged - they are for you, and everyone is welcome there.

------------------------------------------------------------

  Date     :  20150727, Time     :  115118.149
  Time zero on CPU 1             :   0.459920000000000E-01  s.
  Internal wall clock time zero  :           207229878.149  s.

  Using        8 parallel tasks.
  Task        0 on host gen60 reporting.
  Task        1 on host gen60 reporting.
  Task        2 on host gen60 reporting.
  Task        3 on host gen60 reporting.
  Task        4 on host gen60 reporting.
  Task        5 on host gen60 reporting.
  Task        6 on host gen60 reporting.
  Task        7 on host gen60 reporting.

  Performing system and environment tests:
  | Environment variable OMP_NUM_THREADS correctly set to 1.
  | Checking for scalapack...
  | No scalapack compiled in.

  Obtaining array dimensions for all initial allocations:
  
  -----------------------------------------------------------------------
  Parsing control.in (first pass over file, find array dimensions only).
  The contents of control.in will be repeated verbatim below
  unless switched off by setting 'verbatim_writeout .false.' .
  in the first line of control.in .
  -----------------------------------------------------------------------
  
  #########################################################################################
  #
  #  Volker Blum, FHI 2008 : Test run input file control.in
  #
  #########################################################################################
  #
  #  Physical model
  #
    xc                 rpbe
    spin               none
    relativistic       atomic_zora scalar
    charge             0.
   vdw_correction_hirshfeld
  #
  #  SCF convergence
  #
    occupation_type    gaussian 0.01
    mixer              pulay
      n_max_pulay        10
      charge_mix_param   0.1
    sc_accuracy_rho    5E-5
    sc_accuracy_eev    5E-3
    sc_accuracy_etot   5E-6
    sc_iter_limit      3000
  #
  #  Eigenvalue solver
  #
    KS_method          lapack
      empty_states       8
      basis_threshold    0.e-5
  #
  #  Efficiency
  #
  #   all previous settings are now default, except stratmann still
  #   undecided. Continue to handle stratmann with care, if at all.
  #
  #  partition_type stratmann
    partition_type rho_r2
  #  hartree_partition_type stratmann
  #
  #  Oprions for large clusters (100's of atoms: memory saving / better scaling)
  #
  # for periodic systems:
  #
    density_update_method orbital
    packed_matrix_format none
  #  k_grid 6 6 6
  #  output k_eigenvalue 1
  #  distributed_spline_storage .true.
  #
  #  Relaxation
  #
  #  relax_geometry   bfgs 5.e-3
    sc_accuracy_forces 5.E-4
    final_forces_cleaned .true.
  #
  #  Output options
  #
  #  output mulliken
    output Hirshfeld
  #  output dipole
  
  #harmonic_length_scale 0.001
  
  ################################################################################
  #
  #  FHI-aims code project
  #  VB, Fritz-Haber Institut, 2007
  #
  #  Suggested "safe" defaults for H atom (to be pasted into control.in file)
  #  Basis constructed for a non-relativistic H2 molecule using the
  #  PW-LDA functional.
  #
  ################################################################################
    species        H
  #     global species definitions
      nucleus             1
      cut_pot             4.0  2.0  1.0
      cut_free_atom       finite 8.0
      logarithmic         0.00010000 100.00  1.0123
      basis_dep_cutoff    1d-4  # 1d-4 is safe default - please check 5d-4 if you wish!
      radial_base         24 7.0
      radial_multiplier   2
      angular_grids       specified
        division   0.2783  110
        division   0.3822  194
        division   0.5626  302
  #      division   0.5922  434
  #      division   0.6227  590
  #      division   0.7206  770
        outer_grid  302
      l_hartree           4
  ################################################################################
  #
  #  Definition of "minimal" basis
  #
  ################################################################################
  #     valence basis states
      valence      1  s   1.
  #     ion occupancy
      ion_occ      1  s   0.5
  ################################################################################
  #
  #  Suggested additional basis functions. For production calculations,
  #  uncomment them one after another (the most important basis functions are
  #  listed first).
  #
  ################################################################################
  #  "First tier" - improvements: -1014.90 meV to -62.69 meV
       hydro 2 s 2.1
       hydro 2 p 3.5
  #  "Second tier" - improvements: -12.89 meV to -1.83 meV
       hydro 1 s 0.85
       hydro 2 p 3.7
       hydro 2 s 1.2
       hydro 3 d 7
  #  "Third tier" - improvements: -0.25 meV to -0.12 meV
  #     hydro 4 f 11.2
  #     hydro 3 p 4.8
  #     hydro 4 d 9
  #     hydro 3 s 3.2
  
  ################################################################################
  #
  #  FHI-aims code project
  #  VB, Fritz-Haber Institut, 2007
  #
  #  Suggested "safe" defaults for O atom (to be pasted into control.in file)
  #  All values have been tested for a non-relativistic, non-spinpolarized O2
  #  molecule using the PW-LDA functional. Validity for PBE is expected.
  #
  #  Constructed for dimers: 1.0 A, 1.208 A, 1.5 A, 2.0 A, 3.0 A
  #
  ################################################################################
    species        O
  #     global species definitions
      nucleus             8
      mass                15.9994
      l_hartree           4
      cut_pot             4.0  2.0  1.0
      cut_free_atom       finite 8.0
      basis_dep_cutoff    1d-4  # 1d-4 is safe default - please check 5d-4 if you wish!
      logarithmic         0.00010000 100.00  1.0123
      radial_base         36 7.0
      radial_multiplier   2
       angular_grids specified
        division   0.4087  110
        division   0.5181  194
        division   0.6184  302
  #      division   0.7315  434
  #      division   0.7934  590
  #      division   0.9656  770
  #      division   1.4041  974
  #      outer_grid 974
        outer_grid 302
  ################################################################################
  #
  #  Definition of "minimal" basis
  #
  ################################################################################
  #     valence basis states
      valence      2  s   2.
      valence      2  p   4.
  #     ion occupancy
      ion_occ      2  s   1.
      ion_occ      2  p   3.
  ################################################################################
  #
  #  Suggested additional basis functions. For production calculations,
  #  uncomment them one after another (the most important basis functions are
  #  listed first).
  #
  ################################################################################
  #  "First tier" - improvements: -699.05 meV to -159.38 meV
       hydro 2 p 1.8
       hydro 3 d 7.6
       hydro 3 s 6.4
  #  "Second tier" - improvements: -49.91 meV to -5.39 meV
       hydro 4 f 11.6
       hydro 3 p 6.2
       hydro 3 d 5.6
       hydro 5 g 17.6
       hydro 1 s 0.75
  #  "Third tier" - improvements: -2.83 meV to -0.50 meV
  #     ionic 2 p auto
  #     hydro 4 f 10.8
  #     hydro 4 d 4.7
  #     hydro 2 s 6.8
  #  "Fourth tier" - improvements: -0.40 meV to -0.12 meV
  #     hydro 3 p 5
  #     hydro 3 s 3.3
  #     hydro 5 g 15.6
  #     hydro 4 f 17.6
  #     hydro 4 d 14
  # Further basis functions - -0.08 meV and below
  #     hydro 3 s 2.1
  #     hydro 4 d 11.6
  #     hydro 3 p 16
  #     hydro 2 s 17.2
  
  
  -----------------------------------------------------------------------
  Completed first pass over input file control.in .
  -----------------------------------------------------------------------
  
  
  -----------------------------------------------------------------------
  Parsing geometry.in (first pass over file, find array dimensions only).
  The contents of geometry.in will be repeated verbatim below
  unless switched off by setting 'verbatim_writeout .false.' .
  in the first line of geometry.in .
  -----------------------------------------------------------------------
  
  atom      -4.053030000      0.065001000     -1.525160000  O
  atom      -4.566710000      0.974813000     -1.912820000  H
  atom      -3.067820000      0.330172000     -1.477310000  H
  atom      -4.581760000     -0.256435000      0.939478000  O
  atom      -4.349860000      0.471090000      1.504340000  H
  atom      -5.393870000     -0.726611000      1.228070000  H
  atom      -5.293160000      2.192130000     -2.328800000  O
  atom      -4.829300000      2.988660000     -1.973850000  H
  atom      -5.428570000      2.328640000     -3.235170000  H
  atom      -3.818880000      2.024990000      2.187990000  O
  atom      -3.690880000      1.961360000      3.202150000  H
  atom      -4.546490000      2.751300000      2.045370000  H
  atom      -5.628340000      3.730740000      1.385610000  O
  atom      -6.090650000      4.418470000      1.860350000  H
  atom      -5.158540000      4.200260000      0.615875000  H
  
  -----------------------------------------------------------------------
  Completed first pass over input file geometry.in .
  -----------------------------------------------------------------------
  
 
  Basic array size parameters: 
  | Number of species                 :        2
  | Number of atoms                   :       15
  | Max. basis fn. angular momentum   :        4
  | Max. atomic/ionic basis occupied n:        2
  | Max. number of basis fn. types    :        2
  | Max. radial fns per species/type  :        8
  | Max. logarithmic grid size        :     1301
  | Max. radial integration grid size :       73
  | Max. angular integration grid size:      302
  | Max. angular grid division number :        8
  | Radial grid for Hartree potential :     1301
  | Number of spin channels           :        1

------------------------------------------------------------
          Reading file control.in.
------------------------------------------------------------
  XC: Using RPBE gradient-corrected functionals.
  Spin treatment: No spin polarisation.
  Scalar relativistic treatment of kinetic energy: on-site free-atom approximation to ZORA.
  Charge =   0.000000E+00: Neutral system requested explicitly.
  Using non-empirical van der Waals correction (Hirshfeld partitioning):
  Occupation type: Gaussian broadening, width =   0.100000E-01 eV.
  Using pulay charge density mixing.
  Pulay mixing - number of memorized iterations:   10
  Charge density mixing - mixing parameter:     0.1000
  Convergence accuracy of self-consistent charge density: 0.5000E-04
  Convergence accuracy of sum of eigenvalues: 0.5000E-02
  Convergence accuracy of total energy: 0.5000E-05
  Maximum number of s.-c. iterations  :  3000
  Kohn-Sham eigenvalues and eigenfunctions calculated by lapack diagonalisation (D&C).
  Number of empty states per atom:        8
  Threshold for basis singularities: 0.0000E+00
  Partition function in integrals calculations: rho / r^2
 Using packed matrix format           0
  Convergence accuracy of forces: 0.5000E-03
  Cleaning forces before final output.
  Hirshfeld charge analysis will be performed.
 
  Reading configuration options for species H                   .
  | Found nuclear charge :   1.0000
  | Found cutoff potl. onset [A], width [A], scale factor :    4.00000    2.00000    1.00000
  | Found cutoff specification for free atom: Cutoff potential begins at    8.00000 A.
  | Found logarithmic grid data [bohr] : 0.1000E-03 0.1000E+03 0.1012E+01
  | Threshold for basis-dependent cutoff potential is   0.100000E-03
  | Found data for basic radial integration grid :    24 points, outermost radius =    7.000 A
  | Found multiplier for basic radial grid :   2
  | Found angular grid specification: user-specified.
  | Specified grid contains     4 separate shells.
  | Check grid settings after all constraints further below.
  | Found l_max for Hartree potential  :   4
  | Found free-atom valence shell :  1 s   1.000
  | No ionic wave fns used. Skipping ion_occ.
  | Found hydrogenic basis function :  2 s   2.100
  | Found hydrogenic basis function :  2 p   3.500
  | Found hydrogenic basis function :  1 s   0.850
  | Found hydrogenic basis function :  2 p   3.700
  | Found hydrogenic basis function :  2 s   1.200
  | Found hydrogenic basis function :  3 d   7.000
  Species H                   : Missing cutoff potential type.
  Defaulting to exp(1/x)/(1-x)^2 type cutoff potential.
  Species H : On-site basis accuracy parameter (for Gram-Schmidt orthonormalisation) not specified.
  Using default value basis_acc =  0.1000000E-03.
  Species H                   : Using default innermost maximum threshold i_radial=  2 for radial functions.
  Species H                   : Basic radial grid will be enhanced according to radial_multiplier =   2, to contain    49 grid points.
 
  Reading configuration options for species O                   .
  | Found nuclear charge :   8.0000
  | Found atomic mass :    15.9994000000000      amu
  | Found l_max for Hartree potential  :   4
  | Found cutoff potl. onset [A], width [A], scale factor :    4.00000    2.00000    1.00000
  | Found cutoff specification for free atom: Cutoff potential begins at    8.00000 A.
  | Threshold for basis-dependent cutoff potential is   0.100000E-03
  | Found logarithmic grid data [bohr] : 0.1000E-03 0.1000E+03 0.1012E+01
  | Found data for basic radial integration grid :    36 points, outermost radius =    7.000 A
  | Found multiplier for basic radial grid :   2
  | Found angular grid specification: user-specified.
  | Specified grid contains     4 separate shells.
  | Check grid settings after all constraints further below.
  | Found free-atom valence shell :  2 s   2.000
  | Found free-atom valence shell :  2 p   4.000
  | No ionic wave fns used. Skipping ion_occ.
  | No ionic wave fns used. Skipping ion_occ.
  | Found hydrogenic basis function :  2 p   1.800
  | Found hydrogenic basis function :  3 d   7.600
  | Found hydrogenic basis function :  3 s   6.400
  | Found hydrogenic basis function :  4 f  11.600
  | Found hydrogenic basis function :  3 p   6.200
  | Found hydrogenic basis function :  3 d   5.600
  | Found hydrogenic basis function :  5 g  17.600
  | Found hydrogenic basis function :  1 s   0.750
  Species O                   : Missing cutoff potential type.
  Defaulting to exp(1/x)/(1-x)^2 type cutoff potential.
  Species O : On-site basis accuracy parameter (for Gram-Schmidt orthonormalisation) not specified.
  Using default value basis_acc =  0.1000000E-03.
  Species O                   : Using default innermost maximum threshold i_radial=  2 for radial functions.
  Species O                   : Basic radial grid will be enhanced according to radial_multiplier =   2, to contain    73 grid points.
 
  Finished reading input file 'control.in'. Consistency checks are next.
 
  Target number of points in a grid batch is not set. Defaulting to  100
  Method for grid partitioning is not set. Defaulting to parallel hash+maxmin partitioning.
  Batch size limit is not set. Defaulting to    200
  By default, will store active basis functions for each batch.
  If in need of memory, prune_basis_once .false. can be used to disable this option.
  communication_type for Hartree potential was not specified.
  Defaulting to calc_hartree .
  Pulay mixer: Number of initial linear mixing iterations not set.
  Defaulting to    0 iterations.
  Work space size for distributed Hartree potential not set.
  Defaulting to   0.200000E+03 MB.
  Algorithm-dependent basis array size parameters:
  | n_max_pulay                         :       10
  Geometry relaxation not requested: no relaxation will be performed.
  Handling of forces: Unphysical translation and rotation will be removed from forces.
  No accuracy limit for integral partition fn. given. Defaulting to 0.1000E-14.
  No threshold value for u(r) in integrations given. Defaulting to 0.1000E-05.
  No accuracy for occupation numbers given. Defaulting to 0.1000E-07.
  No threshold value for occupation numbers given. Defaulting to 0.0000E+00.
  No accuracy for fermi level given. Defaulting to 0.1000E-19.
  Maximum # of iterations to find E_F not set. Defaulting to  200.
  Will not use alltoall communication since running on < 1024 CPUs.
  Partitioning for Hartree potential was not defined. Using partition_type for integrals.
  | Reporting present value of keyword multip_moments_threshold  :       0.10000000E-09
  | This value may affect high angular momentum components of the Hartree potential in periodic systems.
  No q(lm)/r^(l+1) cutoff set for long-range Hartree potential.
  | Using default value of  0.100000E-09 .
  | Verify using the multipole_threshold keyword.
  Defaulting to new monopole extrapolation.
  Density update method: Loop over occupied states selected for charge density update.
------------------------------------------------------------


------------------------------------------------------------
          Reading geometry description geometry.in.
------------------------------------------------------------
  Input structure read successfully.
  The structure contains       15 atoms,  and a total of         50.000 electrons.

  Input geometry:
  | No unit cell requested.
  | Atomic structure:
  |       Atom                x [A]            y [A]            z [A]
  |    1: Species O             -4.053030         0.065001        -1.525160
  |    2: Species H             -4.566710         0.974813        -1.912820
  |    3: Species H             -3.067820         0.330172        -1.477310
  |    4: Species O             -4.581760        -0.256435         0.939478
  |    5: Species H             -4.349860         0.471090         1.504340
  |    6: Species H             -5.393870        -0.726611         1.228070
  |    7: Species O             -5.293160         2.192130        -2.328800
  |    8: Species H             -4.829300         2.988660        -1.973850
  |    9: Species H             -5.428570         2.328640        -3.235170
  |   10: Species O             -3.818880         2.024990         2.187990
  |   11: Species H             -3.690880         1.961360         3.202150
  |   12: Species H             -4.546490         2.751300         2.045370
  |   13: Species O             -5.628340         3.730740         1.385610
  |   14: Species H             -6.090650         4.418470         1.860350
  |   15: Species H             -5.158540         4.200260         0.615875
  |

  | The smallest distance between any two atoms is         0.92654057 AA.
  |
  | The first atom of this pair is atom number                      7 .
  | The second atom of this pair is atom number                     9 .

  Structure-dependent array size parameters: 
  | Maximum number of distinct radial functions  :       18
  | Maximum number of basis functions            :      345
  | Number of Kohn-Sham states (occupied + empty):       85
------------------------------------------------------------

------------------------------------------------------------
          Preparing all fixed parts of the calculation.
------------------------------------------------------------
  Determining machine precision:
    2.225073858507201E-308
  Setting up grids for atomic and cluster calculations.

  Creating wave function, potential, and density for free atoms.

  Species: H

  List of occupied orbitals and eigenvalues:
    n    l              occ      energy [Ha]    energy [eV]
    1    0           1.0000        -0.241408        -6.5691


  Species: O

  List of occupied orbitals and eigenvalues:
    n    l              occ      energy [Ha]    energy [eV]
    1    0           2.0000       -18.944147      -515.4965
    2    0           2.0000        -0.883529       -24.0421
    2    1           4.0000        -0.330176        -8.9845

  Creating fixed part of basis set: Ionic, confined, hydrogenic.
 
  H                    hydrogenic:
 
  List of hydrogenic basis orbitals: 
    n    l      effective z      eigenvalue [eV]  inner max. [A]     outer max. [A]     outer radius [A]   
    2    0         2.100000       -14.9965           0.193241           1.317192           5.372934
    2    1         3.500000       -41.6672           0.602363           0.602363           4.056010
    1    0         0.850000        -9.8292           0.624864           0.624864           5.372934
    2    1         3.700000       -46.5653           0.573616           0.573616           3.909951
    2    0         1.200000        -4.5995           0.334977           2.228160           5.505921
    3    2         7.000000       -74.0753           0.680692           0.680692           3.769152
 
 
  O                    hydrogenic:
 
  List of hydrogenic basis orbitals: 
    n    l      effective z      eigenvalue [eV]  inner max. [A]     outer max. [A]     outer radius [A]   
    2    1         1.800000       -11.0118           1.178546           1.178546           5.432516
    3    2         7.600000       -87.3182           0.624117           0.624117           3.541422
    3    0         6.400000       -61.9209           0.061166           1.081887           4.306510
    4    3        11.600000      -114.4238           0.731621           0.731621           3.584982
    3    1         6.200000       -58.1113           0.255677           1.030255           4.306510
    3    2         5.600000       -47.4081           0.847222           0.847222           4.413102
    5    4        17.600000      -168.5799           0.749730           0.749730           3.372413
    1    0         0.750000        -7.6499           0.705275           0.705275           5.366508
 

  Adding cutoff potential to free-atom effective potential.
  Creating atomic-like basis functions for current effective potential.

  Species H                   :

  List of atomic basis orbitals and eigenvalues:
    n    l      energy [Ha]    energy [eV]    outer radius [A]
    1    0        -0.241374        -6.5681       5.372934


  Species O                   :

  List of atomic basis orbitals and eigenvalues:
    n    l      energy [Ha]    energy [eV]    outer radius [A]
    1    0       -18.944147      -515.4965       1.415745
    2    0        -0.883529       -24.0421       5.048305
    2    1        -0.330173        -8.9845       5.301302

  Assembling full basis from fixed parts.
  | Species H :   atomic orbital   1 s accepted.
  | Species H :    hydro orbital   2 s accepted.
  | Species H :    hydro orbital   1 s accepted.
  | Species H :    hydro orbital   2 s accepted.
  | Species H :    hydro orbital   2 p accepted.
  | Species H :    hydro orbital   2 p accepted.
  | Species H :    hydro orbital   3 d accepted.
  | Species O :   atomic orbital   1 s accepted.
  | Species O :    hydro orbital   3 s accepted.
  | Species O :   atomic orbital   2 s accepted.
  | Species O :    hydro orbital   1 s accepted.
  | Species O :    hydro orbital   3 p accepted.
  | Species O :   atomic orbital   2 p accepted.
  | Species O :    hydro orbital   2 p accepted.
  | Species O :    hydro orbital   3 d accepted.
  | Species O :    hydro orbital   3 d accepted.
  | Species O :    hydro orbital   4 f accepted.
  | Species O :    hydro orbital   5 g accepted.
 
  Basis size parameters after reduction:
  | Total number of radial functions:       18
  | Total number of basis functions :      345
 
  Testing on-site integration grid accuracy.
  |  Species  Function  <phi|h_atom|phi> (log., in eV)  <phi|h_atom|phi> (rad., in eV)
           1        1                 -6.5683835025                 -6.5684759159
           1        2                 13.3711789951                 13.3708738703
           1        3                 23.6590910787                 23.6532055418
           1        4                 16.2963827186                 16.1870710655 ***
           1        5                 28.7627214838                 28.7627215090
           1        6                 59.5965249172                 59.5965950857
           1        7                 60.2220506392                 60.2220503827
           2        8               -515.4964576505               -515.4964530710
           2        9                 15.3030791347                 15.3030722972
           2       10                -21.7296094581                -21.7296135470
           2       11                 14.2969371730                 14.2969701621
           2       12                 21.0679693190                 21.0679697493
           2       13                 -2.3833606469                 -2.3833613176
           2       14                 13.7067136422                 13.7066766629
           2       15                 45.8013116808                 45.8013116965
           2       16                 52.2309815402                 52.2309831494
           2       17                 85.4120732416                 85.4120732763
           2       18                142.1019167745                142.1019167817
 * Note: Onsite integrals marked "***" above are less accurate than
 * onsite_accuracy_threshold =    0.03000 eV. Usually, this is harmless.
 * When in doubt, tighten the "radial" and/or "radial_multiplier" flags to check.

  Preparing densities etc. for the partition functions (integrals / Hartree potential).

  Preparations completed.
  max(cpu_time)          :      0.171 s.
  Wall clock time (cpu1) :      0.488 s.
------------------------------------------------------------

------------------------------------------------------------
          Begin self-consistency loop: Initialization.

          Date     :  20150727, Time     :  115118.661
------------------------------------------------------------

  Initializing index lists of integration centers etc. from given atomic structure:
  | Number of centers in hartree potential         :        15
  | Number of centers in hartree multipole         :        15
  | Number of centers in electron density summation:        15
  | Number of centers in basis integrals           :        15
  | Number of centers in integrals                 :        15
  Partitioning the integration grid into batches with parallel hashing+maxmin method.
  | Number of batches:     1900
  | Maximal batch size:     200
  | Minimal batch size:      49
  | Average batch size:     103.532
  | Standard deviation of batch sizes:      27.980

  Integration load balanced across     8 MPI tasks.
  Work distribution over tasks is as follows:
  Task     0 has      24525 integration points.
  Task     1 has      24569 integration points.
  Task     2 has      24602 integration points.
  Task     3 has      24626 integration points.
  Task     4 has      24624 integration points.
  Task     5 has      24601 integration points.
  Task     6 has      24623 integration points.
  Task     7 has      24540 integration points.
  Initializing partition tables, free-atom densities, potentials, etc. across the integration grid (initialize_grid_storage).
  | Net number of integration points:   196710
  | of which are non-zero points    :   196169
  Obtaining max. number of non-zero basis functions in each batch (get_n_compute_maxes).
  | Maximal number of non-zero basis functions:      342 in task     0
  | Maximal number of non-zero basis functions:      342 in task     1
  | Maximal number of non-zero basis functions:      342 in task     2
  | Maximal number of non-zero basis functions:      341 in task     3
  | Maximal number of non-zero basis functions:      342 in task     4
  | Maximal number of non-zero basis functions:      341 in task     5
  | Maximal number of non-zero basis functions:      341 in task     6
  | Maximal number of non-zero basis functions:      342 in task     7
  Integrating Hamiltonian matrix: batch-based integration.
  Time summed over all CPUs for integration: real work        6.944 s, elapsed        7.037 s
  Integrating overlap matrix.
  Time summed over all CPUs for integration: real work        3.744 s, elapsed        3.809 s

  Updating Kohn-Sham eigenvalues, eigenvectors, occupation numbers, and Fermi level.
  Solving generalized eigenproblem
  Updating Kohn-Sham eigenvalues and eigenfunctions.
  Transforming overlap matrix and checking for singularities.
  Overlap matrix is nonsingular:
  | Lowest eigenvalue:  0.292878E-03
  Solving real generalised eigenvalue problem by standard LAPACK (fast)
  Determining occupation numbers for Kohn-Sham eigenstates.
  | Chemical potential (Fermi level) in eV                 : -.34546635E+01
  | Error in electron count due to remaining E_F inaccuracy: 0.00000000E+00
  | Maximum occupation number of highest empty state:  0.00E+00

  Writing Kohn-Sham eigenvalues.

  State    Occupation    Eigenvalue [Ha]    Eigenvalue [eV]
      1       2.00000         -19.064796         -518.77950
      2       2.00000         -19.052081         -518.43350
      3       2.00000         -19.050530         -518.39128
      4       2.00000         -19.032234         -517.89344
      5       2.00000         -19.019665         -517.55143
      6       2.00000          -1.121178          -30.50880
      7       2.00000          -1.101023          -29.96036
      8       2.00000          -1.098343          -29.88743
      9       2.00000          -1.063634          -28.94296
     10       2.00000          -1.043454          -28.39382
     11       2.00000          -0.650194          -17.69269
     12       2.00000          -0.648466          -17.64564
     13       2.00000          -0.628633          -17.10597
     14       2.00000          -0.602523          -16.39550
     15       2.00000          -0.596418          -16.22937
     16       2.00000          -0.525243          -14.29258
     17       2.00000          -0.521046          -14.17837
     18       2.00000          -0.506196          -13.77430
     19       2.00000          -0.487128          -13.25542
     20       2.00000          -0.478732          -13.02696
     21       2.00000          -0.441337          -12.00938
     22       2.00000          -0.439624          -11.96279
     23       2.00000          -0.438026          -11.91930
     24       2.00000          -0.424281          -11.54528
     25       2.00000          -0.402465          -10.95162
     26       0.00000          -0.096484           -2.62545
     27       0.00000          -0.067505           -1.83689
     28       0.00000          -0.061516           -1.67394
     29       0.00000          -0.036794           -1.00121
     30       0.00000          -0.034357           -0.93489
     31       0.00000          -0.015028           -0.40892
     32       0.00000           0.025406            0.69133
     33       0.00000           0.038712            1.05341
     34       0.00000           0.045208            1.23018
     35       0.00000           0.053880            1.46614
     36       0.00000           0.073418            1.99779
     37       0.00000           0.079127            2.15315
     38       0.00000           0.092560            2.51869
     39       0.00000           0.094461            2.57041
     40       0.00000           0.100863            2.74463
     41       0.00000           0.105256            2.86416
     42       0.00000           0.110110            2.99624
     43       0.00000           0.120596            3.28159
     44       0.00000           0.124420            3.38565
     45       0.00000           0.135222            3.67958
     46       0.00000           0.139138            3.78613
     47       0.00000           0.141167            3.84135
     48       0.00000           0.167104            4.54712
     49       0.00000           0.184469            5.01966
     50       0.00000           0.188560            5.13098
     51       0.00000           0.197649            5.37829
     52       0.00000           0.207340            5.64200
     53       0.00000           0.232672            6.33134
     54       0.00000           0.240700            6.54978
     55       0.00000           0.259475            7.06069
     56       0.00000           0.274986            7.48275
     57       0.00000           0.287403            7.82064
     58       0.00000           0.292228            7.95192
     59       0.00000           0.308583            8.39696
     60       0.00000           0.328748            8.94570
     61       0.00000           0.332106            9.03707
     62       0.00000           0.352193            9.58366
     63       0.00000           0.357053            9.71591
     64       0.00000           0.376330           10.24047
     65       0.00000           0.388308           10.56640
     66       0.00000           0.391338           10.64884
     67       0.00000           0.409373           11.13960
     68       0.00000           0.425505           11.57859
     69       0.00000           0.435884           11.86100
     70       0.00000           0.442549           12.04237
     71       0.00000           0.457333           12.44467
     72       0.00000           0.468077           12.73701
     73       0.00000           0.495755           13.49017
     74       0.00000           0.506777           13.79011
     75       0.00000           0.531851           14.47241
     76       0.00000           0.538206           14.64532
     77       0.00000           0.559914           15.23603
     78       0.00000           0.562392           15.30346
     79       0.00000           0.584135           15.89511
     80       0.00000           0.599781           16.32087
     81       0.00000           0.623073           16.95469
     82       0.00000           0.658538           17.91973
     83       0.00000           0.670498           18.24517
     84       0.00000           0.712649           19.39216
     85       0.00000           0.750273           20.41597

  Highest occupied state (VBM) at    -10.95161800 eV
  | Occupation number:      2.00000000

  Lowest unoccupied state (CBM) at    -2.62545224 eV
  | Occupation number:      0.00000000

  Overall HOMO-LUMO gap:      8.32616577 eV.
  Calculating total energy contributions from superposition of free atom densities.

  Total energy components:
  | Sum of eigenvalues            :        -216.87449868 Ha       -5901.45537193 eV
  | XC energy correction          :         -45.57001953 Ha       -1240.02332307 eV
  | XC potential correction       :          58.23020817 Ha        1584.52458396 eV
  | Free-atom electrostatic energy:        -178.86659293 Ha       -4867.20763442 eV
  | Hartree energy correction     :           0.00000000 Ha           0.00000000 eV
  | van der Waals energy corr.    :           0.00000000 Ha           0.00000000 eV
  | Entropy correction            :           0.00000000 Ha           0.00000000 eV
  | ---------------------------
  | Total energy                  :        -383.08090297 Ha      -10424.16174546 eV
  | Total energy, T -> 0          :        -383.08090297 Ha      -10424.16174546 eV  <-- do not rely on this value for anything but (periodic) metals
  | Electronic free energy        :        -383.08090297 Ha      -10424.16174546 eV

  Derived energy quantities:
  | Kinetic energy                :         379.15908427 Ha       10317.44362874 eV
  | Electrostatic energy          :        -716.66996772 Ha      -19501.58205113 eV
  | Energy correction for multipole
  | error in Hartree potential    :           0.00000000 Ha           0.00000000 eV
  | Sum of eigenvalues per atom                           :        -393.43035813 eV
  | Total energy (T->0) per atom                          :        -694.94411636 eV  <-- do not rely on this value for anything but (periodic) metals
  | Electronic free energy per atom                       :        -694.94411636 eV
  Initialize hartree_potential_storage
  Max. number of atoms included in rho_multipole:           15

  End scf initialization - timings             :  max(cpu_time)    wall_clock(cpu1)
  | Time for scf. initialization               :        1.909 s           1.908 s
  | Boundary condition initialization          :        0.000 s           0.000 s
  | Integration                                :        1.359 s           1.359 s
  | Solution of K.-S. eqns.                    :        0.197 s           0.197 s
  | Grid partitioning                          :        0.138 s           0.138 s
  | Preloading free-atom quantities on grid    :        0.014 s           0.014 s
  | Free-atom superposition energy             :        0.065 s           0.065 s
  | Total energy evaluation                    :        0.000 s           0.000 s
------------------------------------------------------------

------------------------------------------------------------
          Begin self-consistency iteration #    1

  Date     :  20150727, Time     :  115120.570
------------------------------------------------------------
  Evaluating new KS density.
  Integration grid: deviation in total charge (<rho> - N_e) =   1.421085E-14
  Pulay mixing of updated and previous charge densities.

  Evaluating partitioned Hartree potential by multipole expansion.
  | Analytical far-field extrapolation by fixed multipoles:
  | Hartree multipole sum: apparent total charge =  -0.181193E-05
  Summing up the Hartree potential.
  Time summed over all CPUs for potential: real work        2.566 s, elapsed        2.576 s
  | RMS charge density error from multipole expansion :   0.163123E-02

  Integrating Hamiltonian matrix: batch-based integration.
  Time summed over all CPUs for integration: real work        6.949 s, elapsed        7.084 s

  Updating Kohn-Sham eigenvalues, eigenvectors, occupation numbers, and Fermi level.
  Solving generalized eigenproblem
  Updating Kohn-Sham eigenvalues and eigenfunctions.
  Solving real generalised eigenvalue problem by standard LAPACK (fast)
  Determining occupation numbers for Kohn-Sham eigenstates.
  | Chemical potential (Fermi level) in eV                 : -.30369063E+01
  | Error in electron count due to remaining E_F inaccuracy: 0.00000000E+00
  | Maximum occupation number of highest empty state:  0.00E+00

  Writing Kohn-Sham eigenvalues.

  State    Occupation    Eigenvalue [Ha]    Eigenvalue [eV]
      1       2.00000         -18.997902         -516.95921
      2       2.00000         -18.985107         -516.61105
      3       2.00000         -18.957489         -515.85953
      4       2.00000         -18.955959         -515.81789
      5       2.00000         -18.927523         -515.04412
      6       2.00000          -1.090142          -29.66427
      7       2.00000          -1.069294          -29.09697
      8       2.00000          -1.048627          -28.53459
      9       2.00000          -1.023820          -27.85956
     10       2.00000          -0.991916          -26.99141
     11       2.00000          -0.623803          -16.97454
     12       2.00000          -0.603166          -16.41299
     13       2.00000          -0.602481          -16.39433
     14       2.00000          -0.571277          -15.54523
     15       2.00000          -0.558869          -15.20759
     16       2.00000          -0.487795          -13.27357
     17       2.00000          -0.484325          -13.17915
     18       2.00000          -0.458808          -12.48479
     19       2.00000          -0.447675          -12.18186
     20       2.00000          -0.436914          -11.88904
     21       2.00000          -0.405706          -11.03982
     22       2.00000          -0.397189          -10.80807
     23       2.00000          -0.386710          -10.52292
     24       2.00000          -0.381302          -10.37576
     25       2.00000          -0.347838           -9.46515
     26       0.00000          -0.090421           -2.46047
     27       0.00000          -0.059734           -1.62544
     28       0.00000          -0.050914           -1.38544
     29       0.00000          -0.026943           -0.73315
     30       0.00000          -0.022111           -0.60167
     31       0.00000          -0.011356           -0.30901
     32       0.00000           0.029985            0.81592
     33       0.00000           0.048381            1.31652
     34       0.00000           0.057314            1.55961
     35       0.00000           0.062302            1.69534
     36       0.00000           0.083825            2.28100
     37       0.00000           0.090491            2.46239
     38       0.00000           0.098970            2.69310
     39       0.00000           0.107974            2.93811
     40       0.00000           0.115728            3.14912
     41       0.00000           0.118073            3.21293
     42       0.00000           0.121159            3.29692
     43       0.00000           0.128680            3.50155
     44       0.00000           0.137661            3.74594
     45       0.00000           0.146055            3.97435
     46       0.00000           0.151313            4.11744
     47       0.00000           0.156945            4.27070
     48       0.00000           0.177943            4.84209
     49       0.00000           0.193709            5.27109
     50       0.00000           0.204025            5.55180
     51       0.00000           0.209967            5.71350
     52       0.00000           0.218549            5.94702
     53       0.00000           0.247266            6.72844
     54       0.00000           0.251844            6.85301
     55       0.00000           0.268038            7.29369
     56       0.00000           0.284770            7.74898
     57       0.00000           0.300822            8.18579
     58       0.00000           0.303097            8.24768
     59       0.00000           0.317112            8.62905
     60       0.00000           0.340141            9.25572
     61       0.00000           0.342394            9.31702
     62       0.00000           0.361233            9.82965
     63       0.00000           0.370227           10.07439
     64       0.00000           0.385408           10.48748
     65       0.00000           0.401466           10.92444
     66       0.00000           0.402146           10.94296
     67       0.00000           0.419467           11.41428
     68       0.00000           0.435610           11.85355
     69       0.00000           0.444664           12.09993
     70       0.00000           0.450742           12.26531
     71       0.00000           0.467881           12.73170
     72       0.00000           0.478302           13.01527
     73       0.00000           0.506719           13.78852
     74       0.00000           0.517479           14.08133
     75       0.00000           0.544002           14.80306
     76       0.00000           0.554234           15.08147
     77       0.00000           0.574072           15.62129
     78       0.00000           0.578119           15.73143
     79       0.00000           0.598459           16.28491
     80       0.00000           0.616038           16.76325
     81       0.00000           0.637022           17.33425
     82       0.00000           0.673823           18.33565
     83       0.00000           0.683262           18.59252
     84       0.00000           0.728698           19.82888
     85       0.00000           0.763238           20.76876

  Highest occupied state (VBM) at     -9.46514799 eV
  | Occupation number:      2.00000000

  Lowest unoccupied state (CBM) at    -2.46046780 eV
  | Occupation number:      0.00000000

  Overall HOMO-LUMO gap:      7.00468019 eV.

  Total energy components:
  | Sum of eigenvalues            :        -214.48327275 Ha       -5836.38680374 eV
  | XC energy correction          :         -45.81265096 Ha       -1246.62566016 eV
  | XC potential correction       :          58.54771589 Ha        1593.16440873 eV
  | Free-atom electrostatic energy:        -178.86659293 Ha       -4867.20763442 eV
  | Hartree energy correction     :          -2.31341926 Ha         -62.95134091 eV
  | van der Waals energy corr.    :           0.00000000 Ha           0.00000000 eV
  | Entropy correction            :           0.00000000 Ha           0.00000000 eV
  | ---------------------------
  | Total energy                  :        -382.92822001 Ha      -10420.00703050 eV
  | Total energy, T -> 0          :        -382.92822001 Ha      -10420.00703050 eV  <-- do not rely on this value for anything but (periodic) metals
  | Electronic free energy        :        -382.92822001 Ha      -10420.00703050 eV

  Derived energy quantities:
  | Kinetic energy                :         380.60731454 Ha       10356.85197940 eV
  | Electrostatic energy          :        -717.72288359 Ha      -19530.23334974 eV
  | Energy correction for multipole
  | error in Hartree potential    :          -0.00004872 Ha          -0.00132577 eV
  | Sum of eigenvalues per atom                           :        -389.09245358 eV
  | Total energy (T->0) per atom                          :        -694.66713537 eV  <-- do not rely on this value for anything but (periodic) metals
  | Electronic free energy per atom                       :        -694.66713537 eV

  Self-consistency convergence accuracy:
  | Change of charge density      : 0.6655E+00
  | Change of sum of eigenvalues  : 0.6507E+02 eV
  | Change of total energy        : 0.4155E+01 eV

  End self-consistency iteration #     1       :  max(cpu_time)    wall_clock(cpu1)
  | Time for this iteration                    :        1.899 s           1.899 s
  | Charge density update                      :        0.626 s           0.625 s
  | Density mixing                             :        0.003 s           0.004 s
  | Hartree multipole update                   :        0.005 s           0.005 s
  | Hartree multipole summation                :        0.323 s           0.323 s
  | Integration                                :        0.887 s           0.887 s
  | Solution of K.-S. eqns.                    :        0.054 s           0.054 s
  | Total energy evaluation                    :        0.000 s           0.000 s
------------------------------------------------------------

------------------------------------------------------------
          Begin self-consistency iteration #    2

  Date     :  20150727, Time     :  115122.469
------------------------------------------------------------
  Evaluating new KS density.
  Integration grid: deviation in total charge (<rho> - N_e) =   2.131628E-14
  Pulay mixing of updated and previous charge densities.

  Evaluating partitioned Hartree potential by multipole expansion.
  | Analytical far-field extrapolation by fixed multipoles:
  | Hartree multipole sum: apparent total charge =  -0.504870E-05
  Summing up the Hartree potential.
  Time summed over all CPUs for potential: real work        2.566 s, elapsed        2.576 s
  | RMS charge density error from multipole expansion :   0.652204E-02

  Integrating Hamiltonian matrix: batch-based integration.
  Time summed over all CPUs for integration: real work        6.922 s, elapsed        7.074 s

  Updating Kohn-Sham eigenvalues, eigenvectors, occupation numbers, and Fermi level.
  Solving generalized eigenproblem
  Updating Kohn-Sham eigenvalues and eigenfunctions.
  Solving real generalised eigenvalue problem by standard LAPACK (fast)
  Determining occupation numbers for Kohn-Sham eigenstates.
  | Chemical potential (Fermi level) in eV                 : -.33787505E+01
  | Error in electron count due to remaining E_F inaccuracy: 0.00000000E+00
  | Maximum occupation number of highest empty state:  0.00E+00

  Highest occupied state (VBM) at     -5.89991454 eV
  | Occupation number:      2.00000000

  Lowest unoccupied state (CBM) at    -2.16102507 eV
  | Occupation number:      0.00000000

  Overall HOMO-LUMO gap:      3.73888947 eV.

  Total energy components:
  | Sum of eigenvalues            :        -208.81533691 Ha       -5682.15442222 eV
  | XC energy correction          :         -46.41055156 Ha       -1262.89536345 eV
  | XC potential correction       :          59.32951135 Ha        1614.43814554 eV
  | Free-atom electrostatic energy:        -178.86659293 Ha       -4867.20763442 eV
  | Hartree energy correction     :          -7.98517413 Ha        -217.28764347 eV
  | van der Waals energy corr.    :           0.00000000 Ha           0.00000000 eV
  | Entropy correction            :           0.00000000 Ha           0.00000000 eV
  | ---------------------------
  | Total energy                  :        -382.74814418 Ha      -10415.10691802 eV
  | Total energy, T -> 0          :        -382.74814418 Ha      -10415.10691802 eV  <-- do not rely on this value for anything but (periodic) metals
  | Electronic free energy        :        -382.74814418 Ha      -10415.10691802 eV

  Derived energy quantities:
  | Kinetic energy                :         383.50959437 Ha       10435.82703186 eV
  | Electrostatic energy          :        -719.84718699 Ha      -19588.03858643 eV
  | Energy correction for multipole
  | error in Hartree potential    :          -0.00099475 Ha          -0.02706850 eV
  | Sum of eigenvalues per atom                           :        -378.81029481 eV
  | Total energy (T->0) per atom                          :        -694.34046120 eV  <-- do not rely on this value for anything but (periodic) metals
  | Electronic free energy per atom                       :        -694.34046120 eV

  Self-consistency convergence accuracy:
  | Change of charge density      : 0.5032E+00
  | Change of sum of eigenvalues  : 0.1542E+03 eV
  | Change of total energy        : 0.4900E+01 eV

  End self-consistency iteration #     2       :  max(cpu_time)    wall_clock(cpu1)
  | Time for this iteration                    :        1.899 s           1.899 s
  | Charge density update                      :        0.626 s           0.626 s
  | Density mixing                             :        0.005 s           0.005 s
  | Hartree multipole update                   :        0.004 s           0.005 s
  | Hartree multipole summation                :        0.323 s           0.323 s
  | Integration                                :        0.886 s           0.885 s
  | Solution of K.-S. eqns.                    :        0.054 s           0.054 s
  | Total energy evaluation                    :        0.000 s           0.001 s
------------------------------------------------------------

------------------------------------------------------------
          Begin self-consistency iteration #    3

  Date     :  20150727, Time     :  115124.368
------------------------------------------------------------
  Evaluating new KS density.
  Integration grid: deviation in total charge (<rho> - N_e) =   0.000000E+00
  Pulay mixing of updated and previous charge densities.

  Evaluating partitioned Hartree potential by multipole expansion.
  | Analytical far-field extrapolation by fixed multipoles:
  | Hartree multipole sum: apparent total charge =  -0.425251E-05
  Summing up the Hartree potential.
  Time summed over all CPUs for potential: real work        2.566 s, elapsed        2.576 s
  | RMS charge density error from multipole expansion :   0.131062E-01

  Integrating Hamiltonian matrix: batch-based integration.
  Time summed over all CPUs for integration: real work        6.922 s, elapsed        7.074 s

  Updating Kohn-Sham eigenvalues, eigenvectors, occupation numbers, and Fermi level.
  Solving generalized eigenproblem
  Updating Kohn-Sham eigenvalues and eigenfunctions.
  Solving real generalised eigenvalue problem by standard LAPACK (fast)
  Determining occupation numbers for Kohn-Sham eigenstates.
  | Chemical potential (Fermi level) in eV                 : -.32513269E+01
  | Error in electron count due to remaining E_F inaccuracy: 0.00000000E+00
  | Maximum occupation number of highest empty state:  0.00E+00

  Highest occupied state (VBM) at     -5.65432706 eV
  | Occupation number:      2.00000000

  Lowest unoccupied state (CBM) at    -2.22870840 eV
  | Occupation number:      0.00000000

  Overall HOMO-LUMO gap:      3.42561865 eV.

  Total energy components:
  | Sum of eigenvalues            :        -208.97907691 Ha       -5686.61001413 eV
  | XC energy correction          :         -46.37802641 Ha       -1262.01030908 eV
  | XC potential correction       :          59.28225395 Ha        1613.15220623 eV
  | Free-atom electrostatic energy:        -178.86659293 Ha       -4867.20763442 eV
  | Hartree energy correction     :          -7.79945637 Ha        -212.23400628 eV
  | van der Waals energy corr.    :           0.00000000 Ha           0.00000000 eV
  | Entropy correction            :           0.00000000 Ha           0.00000000 eV
  | ---------------------------
  | Total energy                  :        -382.74089867 Ha      -10414.90975769 eV
  | Total energy, T -> 0          :        -382.74089867 Ha      -10414.90975769 eV  <-- do not rely on this value for anything but (periodic) metals
  | Electronic free energy        :        -382.74089867 Ha      -10414.90975769 eV

  Derived energy quantities:
  | Kinetic energy                :         381.44408279 Ha       10379.62160217 eV
  | Electrostatic energy          :        -717.80695506 Ha      -19532.52105078 eV
  | Energy correction for multipole
  | error in Hartree potential    :          -0.00546803 Ha          -0.14879280 eV
  | Sum of eigenvalues per atom                           :        -379.10733428 eV
  | Total energy (T->0) per atom                          :        -694.32731718 eV  <-- do not rely on this value for anything but (periodic) metals
  | Electronic free energy per atom                       :        -694.32731718 eV

  Self-consistency convergence accuracy:
  | Change of charge density      : 0.2523E+00
  | Change of sum of eigenvalues  : -.4456E+01 eV
  | Change of total energy        : 0.1972E+00 eV

  End self-consistency iteration #     3       :  max(cpu_time)    wall_clock(cpu1)
  | Time for this iteration                    :        1.897 s           1.896 s
  | Charge density update                      :        0.623 s           0.622 s
  | Density mixing                             :        0.007 s           0.007 s
  | Hartree multipole update                   :        0.004 s           0.005 s
  | Hartree multipole summation                :        0.323 s           0.322 s
  | Integration                                :        0.886 s           0.886 s
  | Solution of K.-S. eqns.                    :        0.053 s           0.053 s
  | Total energy evaluation                    :        0.000 s           0.000 s
------------------------------------------------------------

------------------------------------------------------------
          Begin self-consistency iteration #    4

  Date     :  20150727, Time     :  115126.264
------------------------------------------------------------
  Evaluating new KS density.
  Integration grid: deviation in total charge (<rho> - N_e) =  -1.421085E-14
  Pulay mixing of updated and previous charge densities.

  Evaluating partitioned Hartree potential by multipole expansion.
  | Analytical far-field extrapolation by fixed multipoles:
  | Hartree multipole sum: apparent total charge =  -0.501257E-05
  Summing up the Hartree potential.
  Time summed over all CPUs for potential: real work        2.564 s, elapsed        2.575 s
  | RMS charge density error from multipole expansion :   0.171214E-01

  Integrating Hamiltonian matrix: batch-based integration.
  Time summed over all CPUs for integration: real work        6.895 s, elapsed        7.015 s

  Updating Kohn-Sham eigenvalues, eigenvectors, occupation numbers, and Fermi level.
  Solving generalized eigenproblem
  Updating Kohn-Sham eigenvalues and eigenfunctions.
  Solving real generalised eigenvalue problem by standard LAPACK (fast)
  Determining occupation numbers for Kohn-Sham eigenstates.
  | Chemical potential (Fermi level) in eV                 : -.29296502E+01
  | Error in electron count due to remaining E_F inaccuracy: 0.00000000E+00
  | Maximum occupation number of highest empty state:  0.00E+00

  Highest occupied state (VBM) at     -4.33781339 eV
  | Occupation number:      2.00000000

  Lowest unoccupied state (CBM) at    -2.18055908 eV
  | Occupation number:      0.00000000

  Overall HOMO-LUMO gap:      2.15725431 eV.

  Total energy components:
  | Sum of eigenvalues            :        -207.14127566 Ha       -5636.60089774 eV
  | XC energy correction          :         -46.58737529 Ha       -1267.70698196 eV
  | XC potential correction       :          59.55516017 Ha        1620.57836228 eV
  | Free-atom electrostatic energy:        -178.86659293 Ha       -4867.20763442 eV
  | Hartree energy correction     :          -9.68763692 Ha        -263.61401311 eV
  | van der Waals energy corr.    :           0.00000000 Ha           0.00000000 eV
  | Entropy correction            :           0.00000000 Ha           0.00000000 eV
  | ---------------------------
  | Total energy                  :        -382.72772063 Ha      -10414.55116495 eV
  | Total energy, T -> 0          :        -382.72772063 Ha      -10414.55116495 eV  <-- do not rely on this value for anything but (periodic) metals
  | Electronic free energy        :        -382.72772063 Ha      -10414.55116495 eV

  Derived energy quantities:
  | Kinetic energy                :         381.64634810 Ha       10385.12552104 eV
  | Electrostatic energy          :        -717.78669343 Ha      -19531.96970402 eV
  | Energy correction for multipole
  | error in Hartree potential    :          -0.00746114 Ha          -0.20302801 eV
  | Sum of eigenvalues per atom                           :        -375.77339318 eV
  | Total energy (T->0) per atom                          :        -694.30341100 eV  <-- do not rely on this value for anything but (periodic) metals
  | Electronic free energy per atom                       :        -694.30341100 eV

  Self-consistency convergence accuracy:
  | Change of charge density      : 0.1422E+00
  | Change of sum of eigenvalues  : 0.5001E+02 eV
  | Change of total energy        : 0.3586E+00 eV

  End self-consistency iteration #     4       :  max(cpu_time)    wall_clock(cpu1)
  | Time for this iteration                    :        1.891 s           1.891 s
  | Charge density update                      :        0.623 s           0.623 s
  | Density mixing                             :        0.008 s           0.008 s
  | Hartree multipole update                   :        0.005 s           0.005 s
  | Hartree multipole summation                :        0.322 s           0.322 s
  | Integration                                :        0.878 s           0.879 s
  | Solution of K.-S. eqns.                    :        0.054 s           0.054 s
  | Total energy evaluation                    :        0.000 s           0.000 s
------------------------------------------------------------

------------------------------------------------------------
          Begin self-consistency iteration #    5

  Date     :  20150727, Time     :  115128.155
------------------------------------------------------------
  Evaluating new KS density.
  Integration grid: deviation in total charge (<rho> - N_e) =   2.842171E-14
  Pulay mixing of updated and previous charge densities.

  Evaluating partitioned Hartree potential by multipole expansion.
  | Analytical far-field extrapolation by fixed multipoles:
  | Hartree multipole sum: apparent total charge =  -0.490122E-05
  Summing up the Hartree potential.
  Time summed over all CPUs for potential: real work        2.565 s, elapsed        2.575 s
  | RMS charge density error from multipole expansion :   0.177199E-01

  Integrating Hamiltonian matrix: batch-based integration.
  Time summed over all CPUs for integration: real work        6.913 s, elapsed        7.051 s

  Updating Kohn-Sham eigenvalues, eigenvectors, occupation numbers, and Fermi level.
  Solving generalized eigenproblem
  Updating Kohn-Sham eigenvalues and eigenfunctions.
  Solving real generalised eigenvalue problem by standard LAPACK (fast)
  Determining occupation numbers for Kohn-Sham eigenstates.
  | Chemical potential (Fermi level) in eV                 : -.29150362E+01
  | Error in electron count due to remaining E_F inaccuracy: 0.00000000E+00
  | Maximum occupation number of highest empty state:  0.00E+00

  Highest occupied state (VBM) at     -4.18917035 eV
  | Occupation number:      2.00000000

  Lowest unoccupied state (CBM) at    -2.17486676 eV
  | Occupation number:      0.00000000

  Overall HOMO-LUMO gap:      2.01430359 eV.

  Total energy components:
  | Sum of eigenvalues            :        -207.04859607 Ha       -5634.07895781 eV
  | XC energy correction          :         -46.60250393 Ha       -1268.11865308 eV
  | XC potential correction       :          59.57434674 Ha        1621.10045561 eV
  | Free-atom electrostatic energy:        -178.86659293 Ha       -4867.20763442 eV
  | Hartree energy correction     :          -9.78419568 Ha        -266.24151067 eV
  | van der Waals energy corr.    :           0.00000000 Ha           0.00000000 eV
  | Entropy correction            :           0.00000000 Ha           0.00000000 eV
  | ---------------------------
  | Total energy                  :        -382.72754186 Ha      -10414.54630037 eV
  | Total energy, T -> 0          :        -382.72754186 Ha      -10414.54630037 eV  <-- do not rely on this value for anything but (periodic) metals
  | Electronic free energy        :        -382.72754186 Ha      -10414.54630037 eV

  Derived energy quantities:
  | Kinetic energy                :         381.68425006 Ha       10386.15688606 eV
  | Electrostatic energy          :        -717.80928800 Ha      -19532.58453335 eV
  | Energy correction for multipole
  | error in Hartree potential    :          -0.00760099 Ha          -0.20683339 eV
  | Sum of eigenvalues per atom                           :        -375.60526385 eV
  | Total energy (T->0) per atom                          :        -694.30308669 eV  <-- do not rely on this value for anything but (periodic) metals
  | Electronic free energy per atom                       :        -694.30308669 eV

  Self-consistency convergence accuracy:
  | Change of charge density      : 0.3137E-01
  | Change of sum of eigenvalues  : 0.2522E+01 eV
  | Change of total energy        : 0.4865E-02 eV

  End self-consistency iteration #     5       :  max(cpu_time)    wall_clock(cpu1)
  | Time for this iteration                    :        1.897 s           1.897 s
  | Charge density update                      :        0.622 s           0.623 s
  | Density mixing                             :        0.009 s           0.010 s
  | Hartree multipole update                   :        0.005 s           0.004 s
  | Hartree multipole summation                :        0.323 s           0.322 s
  | Integration                                :        0.883 s           0.883 s
  | Solution of K.-S. eqns.                    :        0.053 s           0.054 s
  | Total energy evaluation                    :        0.000 s           0.000 s
------------------------------------------------------------

------------------------------------------------------------
          Begin self-consistency iteration #    6

  Date     :  20150727, Time     :  115130.052
------------------------------------------------------------
  Evaluating new KS density.
  Integration grid: deviation in total charge (<rho> - N_e) =   0.000000E+00
  Pulay mixing of updated and previous charge densities.

  Evaluating partitioned Hartree potential by multipole expansion.
  | Analytical far-field extrapolation by fixed multipoles:
  | Hartree multipole sum: apparent total charge =  -0.487560E-05
  Summing up the Hartree potential.
  Time summed over all CPUs for potential: real work        2.564 s, elapsed        2.575 s
  | RMS charge density error from multipole expansion :   0.179359E-01

  Integrating Hamiltonian matrix: batch-based integration.
  Time summed over all CPUs for integration: real work        6.922 s, elapsed        7.054 s

  Updating Kohn-Sham eigenvalues, eigenvectors, occupation numbers, and Fermi level.
  Solving generalized eigenproblem
  Updating Kohn-Sham eigenvalues and eigenfunctions.
  Solving real generalised eigenvalue problem by standard LAPACK (fast)
  Determining occupation numbers for Kohn-Sham eigenstates.
  | Chemical potential (Fermi level) in eV                 : -.29055613E+01
  | Error in electron count due to remaining E_F inaccuracy: 0.00000000E+00
  | Maximum occupation number of highest empty state:  0.00E+00

  Highest occupied state (VBM) at     -4.16074468 eV
  | Occupation number:      2.00000000

  Lowest unoccupied state (CBM) at    -2.17039483 eV
  | Occupation number:      0.00000000

  Overall HOMO-LUMO gap:      1.99034985 eV.

  Total energy components:
  | Sum of eigenvalues            :        -207.00388280 Ha       -5632.86224792 eV
  | XC energy correction          :         -46.60894029 Ha       -1268.29379542 eV
  | XC potential correction       :          59.58258580 Ha        1621.32465172 eV
  | Free-atom electrostatic energy:        -178.86659293 Ha       -4867.20763442 eV
  | Hartree energy correction     :          -9.83077946 Ha        -267.50911975 eV
  | van der Waals energy corr.    :           0.00000000 Ha           0.00000000 eV
  | Entropy correction            :           0.00000000 Ha           0.00000000 eV
  | ---------------------------
  | Total energy                  :        -382.72760968 Ha      -10414.54814580 eV
  | Total energy, T -> 0          :        -382.72760968 Ha      -10414.54814580 eV  <-- do not rely on this value for anything but (periodic) metals
  | Electronic free energy        :        -382.72760968 Ha      -10414.54814580 eV

  Derived energy quantities:
  | Kinetic energy                :         381.69732962 Ha       10386.51279890 eV
  | Electrostatic energy          :        -717.81599901 Ha      -19532.76714927 eV
  | Energy correction for multipole
  | error in Hartree potential    :          -0.00765910 Ha          -0.20841467 eV
  | Sum of eigenvalues per atom                           :        -375.52414986 eV
  | Total energy (T->0) per atom                          :        -694.30320972 eV  <-- do not rely on this value for anything but (periodic) metals
  | Electronic free energy per atom                       :        -694.30320972 eV

  Self-consistency convergence accuracy:
  | Change of charge density      : 0.1230E-01
  | Change of sum of eigenvalues  : 0.1217E+01 eV
  | Change of total energy        : -.1845E-02 eV

  End self-consistency iteration #     6       :  max(cpu_time)    wall_clock(cpu1)
  | Time for this iteration                    :        1.898 s           1.898 s
  | Charge density update                      :        0.622 s           0.622 s
  | Density mixing                             :        0.011 s           0.011 s
  | Hartree multipole update                   :        0.005 s           0.005 s
  | Hartree multipole summation                :        0.322 s           0.322 s
  | Integration                                :        0.884 s           0.883 s
  | Solution of K.-S. eqns.                    :        0.054 s           0.054 s
  | Total energy evaluation                    :        0.000 s           0.000 s
------------------------------------------------------------

------------------------------------------------------------
          Begin self-consistency iteration #    7

  Date     :  20150727, Time     :  115131.950
------------------------------------------------------------
  Evaluating new KS density.
  Integration grid: deviation in total charge (<rho> - N_e) =  -2.131628E-14
  Pulay mixing of updated and previous charge densities.

  Evaluating partitioned Hartree potential by multipole expansion.
  | Analytical far-field extrapolation by fixed multipoles:
  | Hartree multipole sum: apparent total charge =  -0.458905E-05
  Summing up the Hartree potential.
  Time summed over all CPUs for potential: real work        2.564 s, elapsed        2.575 s
  | RMS charge density error from multipole expansion :   0.178733E-01

  Integrating Hamiltonian matrix: batch-based integration.
  Time summed over all CPUs for integration: real work        6.920 s, elapsed        7.052 s

  Updating Kohn-Sham eigenvalues, eigenvectors, occupation numbers, and Fermi level.
  Solving generalized eigenproblem
  Updating Kohn-Sham eigenvalues and eigenfunctions.
  Solving real generalised eigenvalue problem by standard LAPACK (fast)
  Determining occupation numbers for Kohn-Sham eigenstates.
  | Chemical potential (Fermi level) in eV                 : -.29432571E+01
  | Error in electron count due to remaining E_F inaccuracy: 0.00000000E+00
  | Maximum occupation number of highest empty state:  0.00E+00

  Highest occupied state (VBM) at     -4.34236602 eV
  | Occupation number:      2.00000000

  Lowest unoccupied state (CBM) at    -2.16930147 eV
  | Occupation number:      0.00000000

  Overall HOMO-LUMO gap:      2.17306455 eV.

  Total energy components:
  | Sum of eigenvalues            :        -207.19570649 Ha       -5638.08203592 eV
  | XC energy correction          :         -46.59099102 Ha       -1267.80537101 eV
  | XC potential correction       :          59.55852399 Ha        1620.66989641 eV
  | Free-atom electrostatic energy:        -178.86659293 Ha       -4867.20763442 eV
  | Hartree energy correction     :          -9.63266883 Ha        -262.11825538 eV
  | van der Waals energy corr.    :           0.00000000 Ha           0.00000000 eV
  | Entropy correction            :           0.00000000 Ha           0.00000000 eV
  | ---------------------------
  | Total energy                  :        -382.72743529 Ha      -10414.54340031 eV
  | Total energy, T -> 0          :        -382.72743529 Ha      -10414.54340031 eV  <-- do not rely on this value for anything but (periodic) metals
  | Electronic free energy        :        -382.72743529 Ha      -10414.54340031 eV

  Derived energy quantities:
  | Kinetic energy                :         381.75632756 Ha       10388.11821463 eV
  | Electrostatic energy          :        -717.89277183 Ha      -19534.85624394 eV
  | Energy correction for multipole
  | error in Hartree potential    :          -0.00738632 Ha          -0.20099190 eV
  | Sum of eigenvalues per atom                           :        -375.87213573 eV
  | Total energy (T->0) per atom                          :        -694.30289335 eV  <-- do not rely on this value for anything but (periodic) metals
  | Electronic free energy per atom                       :        -694.30289335 eV

  Self-consistency convergence accuracy:
  | Change of charge density      : 0.1268E-01
  | Change of sum of eigenvalues  : -.5220E+01 eV
  | Change of total energy        : 0.4745E-02 eV

  End self-consistency iteration #     7       :  max(cpu_time)    wall_clock(cpu1)
  | Time for this iteration                    :        1.898 s           1.898 s
  | Charge density update                      :        0.621 s           0.621 s
  | Density mixing                             :        0.012 s           0.012 s
  | Hartree multipole update                   :        0.005 s           0.005 s
  | Hartree multipole summation                :        0.323 s           0.323 s
  | Integration                                :        0.883 s           0.883 s
  | Solution of K.-S. eqns.                    :        0.054 s           0.054 s
  | Total energy evaluation                    :        0.000 s           0.000 s
------------------------------------------------------------

------------------------------------------------------------
          Begin self-consistency iteration #    8

  Date     :  20150727, Time     :  115133.848
------------------------------------------------------------
  Evaluating new KS density.
  Integration grid: deviation in total charge (<rho> - N_e) =   4.263256E-14
  Pulay mixing of updated and previous charge densities.

  Evaluating partitioned Hartree potential by multipole expansion.
  | Analytical far-field extrapolation by fixed multipoles:
  | Hartree multipole sum: apparent total charge =  -0.459716E-05
  Summing up the Hartree potential.
  Time summed over all CPUs for potential: real work        2.564 s, elapsed        2.575 s
  | RMS charge density error from multipole expansion :   0.179275E-01

  Integrating Hamiltonian matrix: batch-based integration.
  Time summed over all CPUs for integration: real work        6.923 s, elapsed        7.030 s

  Updating Kohn-Sham eigenvalues, eigenvectors, occupation numbers, and Fermi level.
  Solving generalized eigenproblem
  Updating Kohn-Sham eigenvalues and eigenfunctions.
  Solving real generalised eigenvalue problem by standard LAPACK (fast)
  Determining occupation numbers for Kohn-Sham eigenstates.
  | Chemical potential (Fermi level) in eV                 : -.29407797E+01
  | Error in electron count due to remaining E_F inaccuracy: 0.00000000E+00
  | Maximum occupation number of highest empty state:  0.00E+00

  Highest occupied state (VBM) at     -4.31333752 eV
  | Occupation number:      2.00000000

  Lowest unoccupied state (CBM) at    -2.17142010 eV
  | Occupation number:      0.00000000

  Overall HOMO-LUMO gap:      2.14191742 eV.

  Total energy components:
  | Sum of eigenvalues            :        -207.17299339 Ha       -5637.46398116 eV
  | XC energy correction          :         -46.59333368 Ha       -1267.86911789 eV
  | XC potential correction       :          59.56157766 Ha        1620.75299121 eV
  | Free-atom electrostatic energy:        -178.86659293 Ha       -4867.20763442 eV
  | Hartree energy correction     :          -9.65609222 Ha        -262.75563807 eV
  | van der Waals energy corr.    :           0.00000000 Ha           0.00000000 eV
  | Entropy correction            :           0.00000000 Ha           0.00000000 eV
  | ---------------------------
  | Total energy                  :        -382.72743455 Ha      -10414.54338034 eV
  | Total energy, T -> 0          :        -382.72743455 Ha      -10414.54338034 eV  <-- do not rely on this value for anything but (periodic) metals
  | Electronic free energy        :        -382.72743455 Ha      -10414.54338034 eV

  Derived energy quantities:
  | Kinetic energy                :         381.75855561 Ha       10388.17884297 eV
  | Electrostatic energy          :        -717.89265649 Ha      -19534.85310542 eV
  | Energy correction for multipole
  | error in Hartree potential    :          -0.00742635 Ha          -0.20208126 eV
  | Sum of eigenvalues per atom                           :        -375.83093208 eV
  | Total energy (T->0) per atom                          :        -694.30289202 eV  <-- do not rely on this value for anything but (periodic) metals
  | Electronic free energy per atom                       :        -694.30289202 eV

  Self-consistency convergence accuracy:
  | Change of charge density      : 0.2265E-02
  | Change of sum of eigenvalues  : 0.6181E+00 eV
  | Change of total energy        : 0.1998E-04 eV

  End self-consistency iteration #     8       :  max(cpu_time)    wall_clock(cpu1)
  | Time for this iteration                    :        1.897 s           1.897 s
  | Charge density update                      :        0.621 s           0.621 s
  | Density mixing                             :        0.014 s           0.014 s
  | Hartree multipole update                   :        0.005 s           0.005 s
  | Hartree multipole summation                :        0.323 s           0.322 s
  | Integration                                :        0.880 s           0.880 s
  | Solution of K.-S. eqns.                    :        0.054 s           0.054 s
  | Total energy evaluation                    :        0.000 s           0.001 s
------------------------------------------------------------

------------------------------------------------------------
          Begin self-consistency iteration #    9

  Date     :  20150727, Time     :  115135.745
------------------------------------------------------------
  Evaluating new KS density.
  Integration grid: deviation in total charge (<rho> - N_e) =   7.105427E-15
  Pulay mixing of updated and previous charge densities.

  Evaluating partitioned Hartree potential by multipole expansion.
  | Analytical far-field extrapolation by fixed multipoles:
  | Hartree multipole sum: apparent total charge =  -0.459080E-05
  Summing up the Hartree potential.
  Time summed over all CPUs for potential: real work        2.564 s, elapsed        2.575 s
  | RMS charge density error from multipole expansion :   0.179314E-01

  Integrating Hamiltonian matrix: batch-based integration.
  Time summed over all CPUs for integration: real work        6.921 s, elapsed        7.044 s

  Updating Kohn-Sham eigenvalues, eigenvectors, occupation numbers, and Fermi level.
  Solving generalized eigenproblem
  Updating Kohn-Sham eigenvalues and eigenfunctions.
  Solving real generalised eigenvalue problem by standard LAPACK (fast)
  Determining occupation numbers for Kohn-Sham eigenstates.
  | Chemical potential (Fermi level) in eV                 : -.29410796E+01
  | Error in electron count due to remaining E_F inaccuracy: 0.00000000E+00
  | Maximum occupation number of highest empty state:  0.00E+00

  Highest occupied state (VBM) at     -4.31766714 eV
  | Occupation number:      2.00000000

  Lowest unoccupied state (CBM) at    -2.17162699 eV
  | Occupation number:      0.00000000

  Overall HOMO-LUMO gap:      2.14604014 eV.

  Total energy components:
  | Sum of eigenvalues            :        -207.17442701 Ha       -5637.50299188 eV
  | XC energy correction          :         -46.59317117 Ha       -1267.86469579 eV
  | XC potential correction       :          59.56135123 Ha        1620.74682962 eV
  | Free-atom electrostatic energy:        -178.86659293 Ha       -4867.20763442 eV
  | Hartree energy correction     :          -9.65459404 Ha        -262.71487073 eV
  | van der Waals energy corr.    :           0.00000000 Ha           0.00000000 eV
  | Entropy correction            :           0.00000000 Ha           0.00000000 eV
  | ---------------------------
  | Total energy                  :        -382.72743392 Ha      -10414.54336319 eV
  | Total energy, T -> 0          :        -382.72743392 Ha      -10414.54336319 eV  <-- do not rely on this value for anything but (periodic) metals
  | Electronic free energy        :        -382.72743392 Ha      -10414.54336319 eV

  Derived energy quantities:
  | Kinetic energy                :         381.76093101 Ha       10388.24348071 eV
  | Electrostatic energy          :        -717.89519376 Ha      -19534.92214812 eV
  | Energy correction for multipole
[...]
   ----------------------------------------------------------------
   Total forces(   4)            : -.785109E+00 -.209373E+01 -.588265E+00
  atom #    5
   Hellmann-Feynman + Multipole  : -.183993E+00 0.898845E+00 0.101936E+01
   Pulay + GGA                   : 0.733622E-02 0.348444E-01 0.862631E-01
   Van der Waals               : -.159169E-02 0.321225E-02 -.132827E-02
   ----------------------------------------------------------------
   Total forces(   5)            : -.178249E+00 0.936901E+00 0.110429E+01
  atom #    6
   Hellmann-Feynman + Multipole  : 0.757799E+00 0.767704E+00 0.140802E+00
   Pulay + GGA                   : -.108798E+00 -.493336E-01 0.655091E-01
   Van der Waals               : 0.162978E-02 0.473193E-02 0.402595E-03
   ----------------------------------------------------------------
   Total forces(   6)            : 0.650630E+00 0.723102E+00 0.206714E+00
  atom #    7
   Hellmann-Feynman + Multipole  : -.603853E+01 -.924151E+01 0.929893E+01
   Pulay + GGA                   : 0.614419E+01 0.103820E+02 -.672281E+01
   Van der Waals               : -.247181E-02 0.364144E-02 0.660794E-02
   ----------------------------------------------------------------
   Total forces(   7)            : 0.103186E+00 0.114413E+01 0.258273E+01
  atom #    8
   Hellmann-Feynman + Multipole  : -.441869E+00 -.816086E+00 -.522951E+00
   Pulay + GGA                   : 0.482658E-01 0.126870E+00 0.418942E-01
   Van der Waals               : 0.361017E-04 0.881746E-03 0.489744E-02
   ----------------------------------------------------------------
   Total forces(   8)            : -.393567E+00 -.688334E+00 -.476159E+00
  atom #    9
   Hellmann-Feynman + Multipole  : -.239804E+00 0.405655E+00 -.234386E+01
   Pulay + GGA                   : -.381678E-01 0.414342E-01 -.121817E+00
   Van der Waals               : 0.711992E-03 -.405477E-03 0.131199E-02
   ----------------------------------------------------------------
   Total forces(   9)            : -.277260E+00 0.446684E+00 -.246437E+01
  atom #   10
   Hellmann-Feynman + Multipole  : 0.680723E+01 -.515440E+01 -.920734E+01
   Pulay + GGA                   : -.726673E+01 0.625738E+01 0.114876E+02
   Van der Waals               : 0.178339E-03 -.228272E-02 -.290152E-02
   ----------------------------------------------------------------
   Total forces(  10)            : -.459324E+00 0.110069E+01 0.227738E+01
  atom #   11
   Hellmann-Feynman + Multipole  : -.321321E+00 0.203117E+00 -.234333E+01
   Pulay + GGA                   : 0.205632E-01 0.221280E-01 0.131156E+00
   Van der Waals               : -.219112E-02 0.442132E-03 -.296794E-02
   ----------------------------------------------------------------
   Total forces(  11)            : -.302949E+00 0.225687E+00 -.221514E+01
  atom #   12
   Hellmann-Feynman + Multipole  : 0.135925E+01 -.151079E+01 0.417038E+00
   Pulay + GGA                   : -.405384E-01 0.761523E-01 0.897280E-02
   Van der Waals               : 0.572754E-03 -.115000E-02 -.166218E-02
   ----------------------------------------------------------------
   Total forces(  12)            : 0.131928E+01 -.143578E+01 0.424348E+00
  atom #   13
   Hellmann-Feynman + Multipole  : -.153571E+01 -.136382E+02 0.527278E-01
   Pulay + GGA                   : 0.242340E+01 0.142724E+02 -.215248E+01
   Van der Waals               : 0.203935E-02 -.664747E-02 -.540145E-02
   ----------------------------------------------------------------
   Total forces(  13)            : 0.889734E+00 0.627564E+00 -.210515E+01
  atom #   14
   Hellmann-Feynman + Multipole  : -.288583E+00 0.552883E+00 0.301142E+00
   Pulay + GGA                   : -.786512E-01 0.915437E-01 0.721759E-01
   Van der Waals               : 0.180199E-02 -.241564E-02 -.186987E-03
   ----------------------------------------------------------------
   Total forces(  14)            : -.365433E+00 0.642011E+00 0.373131E+00
  atom #   15
   Hellmann-Feynman + Multipole  : -.100431E+01 -.864873E+00 0.165741E+01
   Pulay + GGA                   : 0.452465E-01 0.701378E-01 -.119896E+00
   Van der Waals               : -.510146E-03 -.198554E-02 -.406963E-02
   ----------------------------------------------------------------
   Total forces(  15)            : -.959573E+00 -.796720E+00 0.153345E+01
  Timings for vdw_correction_hirshfeld (Tkatchenko-Scheffler 2009):
  | CPU time:        5.175 s, Wall clock time:        5.176 s.
  Removing unitary transformations (pure translations, rotations) from forces on atoms.
  Atomic forces before filtering:
  | Net force on center of mass :  0.120562E-01 0.559474E-02 0.102060E-01 eV/A
  | Net torque on center of mass:  -.749276E-02 -.193965E-01 0.353262E-02 eV
  Atomic forces after filtering:
  | Net force on center of mass :  -.178406E-15 0.446015E-15 0.178406E-14 eV/A
  | Net torque on center of mass:  -.165215E-14 -.141613E-14 -.113290E-14 eV
 
  Energy and forces in a compact form:
  | Total energy uncorrected      :         -0.104146057908912E+05 eV
  | Total energy corrected        :         -0.104146057908912E+05 eV  <-- do not rely on this value for anything but (periodic) metals
  | Electronic free energy        :         -0.104146057908912E+05 eV
  Total atomic forces (unitary forces cleaned) [eV/Ang]:
  |   1          0.828142189567136E+00          0.283057327548209E+01         -0.186242517204204E+01
  |   2          0.200173925312078E+01         -0.316483114983811E+01          0.131580472630545E+01
  |   3         -0.206327309714444E+01         -0.493284802322204E+00         -0.990573590151315E-01
  |   4         -0.785771424176157E+00         -0.209414701213723E+01         -0.589084357988417E+00
  |   5         -0.178726554283672E+00          0.936447846707295E+00          0.110344365075425E+01
  |   6          0.650031323905831E+00          0.722700596622236E+00          0.206098243815231E+00
  |   7          0.101694479791396E+00          0.114390753413570E+01          0.258223165644809E+01
  |   8         -0.394929903890358E+00         -0.688593064810941E+00         -0.476744276442027E+00
  |   9         -0.279000330039631E+00          0.446510362506919E+00         -0.246481618267010E+01
  |  10         -0.459554216614285E+00          0.110018575902089E+01          0.227646154905059E+01
  |  11         -0.302896715353497E+00          0.225123305978657E+00         -0.221609789463090E+01
  |  12          0.131903728840993E+01         -0.143625762221010E+01          0.423671688790413E+00
  |  13          0.889341181776458E+00          0.627162258510517E+00         -0.210547374956147E+01
  |  14         -0.365667850746917E+00          0.641602321075111E+00          0.372972210447392E+00
  |  15         -0.960165624322573E+00         -0.797099608720841E+00          0.153301526673868E+01
 
  ------------------------------------ 
  Start decomposition of the XC Energy 
  ------------------------------------ 
  Hartree-Fock part   :          0.000000000 Ha              0.000000000 eV
  ------------------------------------ 
  X Energy            :        -44.954400292 Ha          -1223.271471325 eV
  C Energy GGA        :         -1.638099474 Ha            -44.574954632 eV
  Total XC Energy     :        -46.592499766 Ha          -1267.846425956 eV
  LDA X and C from self-consistent density 
  X Energy LDA        :        -40.517281289 Ha          -1102.531320043 eV
  C Energy LDA        :         -3.300182681 Ha            -89.802539865 eV
  ------------------------------------ 
  End decomposition of the XC Energy 
  ------------------------------------ 
  Performing Hirshfeld analysis of fragment charges and moments.
  ----------------------------------------------------------------------
  | Atom     1: O
  |   Hirshfeld charge        :     -0.34378808
  |   Free atom volume        :     23.95238533
  |   Hirshfeld volume        :     23.68043981
  |   Hirshfeld dipole vector :      0.01177017       0.05367263       0.03428715
  |   Hirshfeld dipole moment :      0.06476803
  |   Hirshfeld second moments:      0.02824549      -0.01231990       0.01753033
  |                                 -0.01231990      -0.04994058      -0.03148592
  |                                  0.01753033      -0.03148592      -0.07998109
  ----------------------------------------------------------------------
  | Atom     2: H
  |   Hirshfeld charge        :      0.06474196
  |   Free atom volume        :     10.44207651
  |   Hirshfeld volume        :      8.30813059
  |   Hirshfeld dipole vector :     -0.02642653       0.03892072      -0.00748026
  |   Hirshfeld dipole moment :      0.04763547
  |   Hirshfeld second moments:      0.07319855       0.03183673       0.00235991
  |                                  0.03183673       0.02983770       0.00793547
  |                                  0.00235991       0.00793547       0.06228810
  ----------------------------------------------------------------------
  | Atom     3: H
  |   Hirshfeld charge        :      0.09751826
  |   Free atom volume        :     10.44207651
  |   Hirshfeld volume        :      7.58562856
  |   Hirshfeld dipole vector :      0.11097621       0.02790686       0.02271303
  |   Hirshfeld dipole moment :      0.11666359
  |   Hirshfeld second moments:      0.09350392      -0.01078758       0.00092007
  |                                 -0.01078758       0.08553487      -0.01119181
  |                                  0.00092007      -0.01119181       0.06521589
  ----------------------------------------------------------------------
  | Atom     4: O
  |   Hirshfeld charge        :     -0.31566064
  |   Free atom volume        :     23.95238533
  |   Hirshfeld volume        :     22.55074264
  |   Hirshfeld dipole vector :     -0.02871108       0.02590078       0.01727293
  |   Hirshfeld dipole moment :      0.04235009
  |   Hirshfeld second moments:      0.01318554       0.05485001      -0.01128671
  |                                  0.05485001       0.00478946       0.01707924
  |                                 -0.01128671       0.01707924      -0.01413488
  ----------------------------------------------------------------------
  | Atom     5: H
  |   Hirshfeld charge        :      0.06887613
  |   Free atom volume        :     10.44207651
  |   Hirshfeld volume        :      8.27217513
  |   Hirshfeld dipole vector :      0.01224823       0.03805969       0.03020033
  |   Hirshfeld dipole moment :      0.05010608
  |   Hirshfeld second moments:      0.07723153      -0.00147557      -0.01158151
  |                                 -0.00147557       0.03034437      -0.01937364
  |                                 -0.01158151      -0.01937364       0.06619156
  ----------------------------------------------------------------------
  | Atom     6: H
  |   Hirshfeld charge        :      0.11884906
  |   Free atom volume        :     10.44207651
  |   Hirshfeld volume        :      6.99650180
  |   Hirshfeld dipole vector :     -0.10112430      -0.05988362       0.02069169
  |   Hirshfeld dipole moment :      0.11933280
  |   Hirshfeld second moments:      0.08985748       0.01445843      -0.00012435
  |                                  0.01445843       0.10347185       0.01222152
  |                                 -0.00012435       0.01222152       0.09480776
  ----------------------------------------------------------------------
  | Atom     7: O
  |   Hirshfeld charge        :     -0.17038048
  |   Free atom volume        :     23.95238533
  |   Hirshfeld volume        :     19.90191460
  |   Hirshfeld dipole vector :      0.02842326      -0.01302215      -0.01487154
  |   Hirshfeld dipole moment :      0.03462110
  |   Hirshfeld second moments:      0.05099778       0.02160274       0.02930643
  |                                  0.02160274       0.09510363       0.01149034
  |                                  0.02930643       0.01149034       0.11228141
  ----------------------------------------------------------------------
  | Atom     8: H
  |   Hirshfeld charge        :      0.17661132
  |   Free atom volume        :     10.44207651
  |   Hirshfeld volume        :      5.89754626
  |   Hirshfeld dipole vector :      0.06028592       0.08933795       0.04356255
  |   Hirshfeld dipole moment :      0.11624696
  |   Hirshfeld second moments:      0.11876752      -0.00002935       0.00549407
  |                                 -0.00002935       0.12514222      -0.00406779
  |                                  0.00549407      -0.00406779       0.13991470
  ----------------------------------------------------------------------
  | Atom     9: H
  |   Hirshfeld charge        :      0.17475359
  |   Free atom volume        :     10.44207651
  |   Hirshfeld volume        :      5.67428731
  |   Hirshfeld dipole vector :     -0.01874057       0.00801285      -0.11991853
  |   Hirshfeld dipole moment :      0.12163827
  |   Hirshfeld second moments:      0.12724936       0.01190242       0.00851326
  |                                  0.01190242       0.14071239       0.00390689
  |                                  0.00851326       0.00390689       0.13006380
  ----------------------------------------------------------------------
  | Atom    10: O
  |   Hirshfeld charge        :     -0.26334492
  |   Free atom volume        :     23.95238533
  |   Hirshfeld volume        :     21.67633524
  |   Hirshfeld dipole vector :     -0.04388754      -0.02440041       0.01211407
  |   Hirshfeld dipole moment :      0.05165508
  |   Hirshfeld second moments:     -0.00667955      -0.02896028       0.02798935
  |                                 -0.02896028       0.02681566      -0.00231510
  |                                  0.02798935      -0.00231510       0.06101835
  ----------------------------------------------------------------------
  | Atom    11: H
  |   Hirshfeld charge        :      0.14109559
  |   Free atom volume        :     10.44207651
  |   Hirshfeld volume        :      6.38886453
  |   Hirshfeld dipole vector :      0.01403828      -0.01899821       0.11718729
  |   Hirshfeld dipole moment :      0.11954441
  |   Hirshfeld second moments:      0.11096121      -0.01332765       0.00742837
  |                                 -0.01332765       0.11429721       0.00280479
  |                                  0.00742837       0.00280479       0.10887959
  ----------------------------------------------------------------------
  | Atom    12: H
  |   Hirshfeld charge        :      0.08672210
  |   Free atom volume        :     10.44207651
  |   Hirshfeld volume        :      7.63089767
  |   Hirshfeld dipole vector :     -0.03586574       0.02592600       0.00218499
  |   Hirshfeld dipole moment :      0.04430894
  |   Hirshfeld second moments:      0.04918139       0.02111587      -0.01590639
  |                                  0.02111587       0.06280141       0.01146245
  |                                 -0.01590639       0.01146245       0.10466199
  ----------------------------------------------------------------------
  | Atom    13: O
  |   Hirshfeld charge        :     -0.18649226
  |   Free atom volume        :     23.95238533
  |   Hirshfeld volume        :     20.04017428
  |   Hirshfeld dipole vector :      0.02126918       0.01075599       0.01527841
  |   Hirshfeld dipole moment :      0.02831076
  |   Hirshfeld second moments:      0.06178246      -0.02115365      -0.04218424
  |                                 -0.02115365       0.07545741      -0.00629307
  |                                 -0.04218424      -0.00629307       0.09542598
  ----------------------------------------------------------------------
  | Atom    14: H
  |   Hirshfeld charge        :      0.17228245
  |   Free atom volume        :     10.44207651
  |   Hirshfeld volume        :      5.48465870
  |   Hirshfeld dipole vector :     -0.06055698       0.08205543       0.06861865
  |   Hirshfeld dipole moment :      0.12291770
  |   Hirshfeld second moments:      0.13074118       0.00062894      -0.00992382
  |                                  0.00062894       0.13272465      -0.01197540
  |                                 -0.00992382      -0.01197540       0.14045098
  ----------------------------------------------------------------------
  | Atom    15: H
  |   Hirshfeld charge        :      0.17814663
  |   Free atom volume        :     10.44207651
  |   Hirshfeld volume        :      5.86782362
  |   Hirshfeld dipole vector :      0.05850876       0.05105560      -0.08854191
  |   Hirshfeld dipole moment :      0.11776935
  |   Hirshfeld second moments:      0.12296187      -0.00986973      -0.00779920
  |                                 -0.00986973       0.13540827       0.00473484
  |                                 -0.00779920       0.00473484       0.12617070
  ----------------------------------------------------------------------


------------------------------------------------------------------------------
  Final output of selected total energy values:

  The following output summarizes some interesting total energy values
  at the end of a run (AFTER all relaxation, molecular dynamics, etc.).

  | Total energy of the DFT / Hartree-Fock s.c.f. calculation      :         -10414.605790891 eV
  | Final zero-broadening corrected energy (caution - metals only) :         -10414.605790891 eV
  | For reference only, the value of 1 Hartree used in FHI-aims is :             27.211384500 eV

  Before relying on these values, please be sure to understand exactly which
  total energy value is referred to by a given number. Different objects may
  all carry the same name 'total energy'. Definitions:

  Total energy of the DFT / Hartree-Fock s.c.f. calculation:
  | Note that this energy does not include ANY quantities calculated after the
  | s.c.f. cycle, in particular not ANY RPA, MP2, etc. many-body perturbation terms.

  Final zero-broadening corrected energy:
  | For metallic systems only, a broadening of the occupation numbers at the Fermi
  | level can be extrapolated back to zero broadening by an electron-gas inspired
  | formula. For all systems that are not real metals, this value can be
  | meaningless and should be avoided.

------------------------------------------------------------------------------

------------------------------------------------------------
          Leaving FHI-aims.
          Date     :  20150727, Time     :  115153.016

          Computational steps:
          | Number of self-consistency cycles          :           15

          Detailed time accounting                     :  max(cpu_time)    wall_clock(cpu1)
          | Total time                                 :       34.854 s          34.867 s
          | Preparation time                           :        0.171 s           0.488 s
          | Grid partitioning                          :        0.138 s           0.138 s
          | Preloading free-atom quantities on grid    :        0.014 s           0.014 s
          | Free-atom superposition energy             :        0.065 s           0.065 s
          | Total time for integrations                :       14.607 s          14.606 s
          | Total time for solution of K.-S. equations :        1.003 s           1.005 s
          | Total time for density & force components  :       12.067 s          12.070 s
          | Total time for mixing                      :        0.190 s           0.191 s
          | Total time for Hartree multipole update    :        0.072 s           0.073 s
          | Total time for Hartree multipole sum       :        5.910 s           5.911 s
          | Total time for total energy evaluation     :        0.003 s           0.005 s
          | Total time for scaled ZORA corrections     :        0.000 s           0.000 s
          | Total time for TS (2009) vdW correction    :        0.051 s           0.051 s

          Have a nice day.
------------------------------------------------------------
