  MPI-parallelism will be employed.
------------------------------------------------------------
          Invoking FHI-aims ...
          Version 081213
          Compiled on 2013/08/29 at 17:41:06 on host generoso.

          When using FHI-aims, please cite the following reference:

          Volker Blum, Ralf Gehrke, Felix Hanke, Paula Havu,
          Ville Havu, Xinguo Ren, Karsten Reuter, and Matthias Scheffler,
          'Ab Initio Molecular Simulations with Numeric Atom-Centered Orbitals: FHI-aims',
          Computer Physics Communications 180, 2175-2196 (2009)

          For any questions about FHI-aims, please visit the aimsclub website
          with its forums and wiki. Contributions to both the forums and the
          wiki are warmly encouraged - they are for you, and everyone is welcome there.

------------------------------------------------------------

  Date     :  20150727, Time     :  121328.549
  Time zero on CPU 1             :   0.399930000000000E-01  s.
  Internal wall clock time zero  :           207231208.549  s.

  Using        8 parallel tasks.
  Task        0 on host gen60 reporting.
  Task        1 on host gen60 reporting.
  Task        2 on host gen60 reporting.
  Task        3 on host gen60 reporting.
  Task        4 on host gen60 reporting.
  Task        5 on host gen60 reporting.
  Task        6 on host gen60 reporting.
  Task        7 on host gen60 reporting.

  Performing system and environment tests:
  | Environment variable OMP_NUM_THREADS correctly set to 1.
  | Checking for scalapack...
  | No scalapack compiled in.

  Obtaining array dimensions for all initial allocations:
  
  -----------------------------------------------------------------------
  Parsing control.in (first pass over file, find array dimensions only).
  The contents of control.in will be repeated verbatim below
  unless switched off by setting 'verbatim_writeout .false.' .
  in the first line of control.in .
  -----------------------------------------------------------------------
  
  #########################################################################################
  #
  #  Volker Blum, FHI 2008 : Test run input file control.in
  #
  #########################################################################################
  #
  #  Physical model
  #
    xc                 rpbe
    spin               none
    relativistic       atomic_zora scalar
    charge             0.
   vdw_correction_hirshfeld
  #
  #  SCF convergence
  #
    occupation_type    gaussian 0.01
    mixer              pulay
      n_max_pulay        10
      charge_mix_param   0.1
    sc_accuracy_rho    5E-5
    sc_accuracy_eev    5E-3
    sc_accuracy_etot   5E-6
    sc_iter_limit      3000
  #
  #  Eigenvalue solver
  #
    KS_method          lapack
      empty_states       8
      basis_threshold    0.e-5
  #
  #  Efficiency
  #
  #   all previous settings are now default, except stratmann still
  #   undecided. Continue to handle stratmann with care, if at all.
  #
  #  partition_type stratmann
    partition_type rho_r2
  #  hartree_partition_type stratmann
  #
  #  Oprions for large clusters (100's of atoms: memory saving / better scaling)
  #
  # for periodic systems:
  #
    density_update_method orbital
    packed_matrix_format none
  #  k_grid 6 6 6
  #  output k_eigenvalue 1
  #  distributed_spline_storage .true.
  #
  #  Relaxation
  #
  #  relax_geometry   bfgs 5.e-3
    sc_accuracy_forces 5.E-4
    final_forces_cleaned .true.
  #
  #  Output options
  #
  #  output mulliken
    output Hirshfeld
  #  output dipole
  
  #harmonic_length_scale 0.001
  
  ################################################################################
  #
  #  FHI-aims code project
  #  VB, Fritz-Haber Institut, 2007
  #
  #  Suggested "safe" defaults for H atom (to be pasted into control.in file)
  #  Basis constructed for a non-relativistic H2 molecule using the
  #  PW-LDA functional.
  #
  ################################################################################
    species        H
  #     global species definitions
      nucleus             1
      cut_pot             4.0  2.0  1.0
      cut_free_atom       finite 8.0
      logarithmic         0.00010000 100.00  1.0123
      basis_dep_cutoff    1d-4  # 1d-4 is safe default - please check 5d-4 if you wish!
      radial_base         24 7.0
      radial_multiplier   2
      angular_grids       specified
        division   0.2783  110
        division   0.3822  194
        division   0.5626  302
  #      division   0.5922  434
  #      division   0.6227  590
  #      division   0.7206  770
        outer_grid  302
      l_hartree           4
  ################################################################################
  #
  #  Definition of "minimal" basis
  #
  ################################################################################
  #     valence basis states
      valence      1  s   1.
  #     ion occupancy
      ion_occ      1  s   0.5
  ################################################################################
  #
  #  Suggested additional basis functions. For production calculations,
  #  uncomment them one after another (the most important basis functions are
  #  listed first).
  #
  ################################################################################
  #  "First tier" - improvements: -1014.90 meV to -62.69 meV
       hydro 2 s 2.1
       hydro 2 p 3.5
  #  "Second tier" - improvements: -12.89 meV to -1.83 meV
       hydro 1 s 0.85
       hydro 2 p 3.7
       hydro 2 s 1.2
       hydro 3 d 7
  #  "Third tier" - improvements: -0.25 meV to -0.12 meV
  #     hydro 4 f 11.2
  #     hydro 3 p 4.8
  #     hydro 4 d 9
  #     hydro 3 s 3.2
  
  ################################################################################
  #
  #  FHI-aims code project
  #  VB, Fritz-Haber Institut, 2007
  #
  #  Suggested "safe" defaults for O atom (to be pasted into control.in file)
  #  All values have been tested for a non-relativistic, non-spinpolarized O2
  #  molecule using the PW-LDA functional. Validity for PBE is expected.
  #
  #  Constructed for dimers: 1.0 A, 1.208 A, 1.5 A, 2.0 A, 3.0 A
  #
  ################################################################################
    species        O
  #     global species definitions
      nucleus             8
      mass                15.9994
      l_hartree           4
      cut_pot             4.0  2.0  1.0
      cut_free_atom       finite 8.0
      basis_dep_cutoff    1d-4  # 1d-4 is safe default - please check 5d-4 if you wish!
      logarithmic         0.00010000 100.00  1.0123
      radial_base         36 7.0
      radial_multiplier   2
       angular_grids specified
        division   0.4087  110
        division   0.5181  194
        division   0.6184  302
  #      division   0.7315  434
  #      division   0.7934  590
  #      division   0.9656  770
  #      division   1.4041  974
  #      outer_grid 974
        outer_grid 302
  ################################################################################
  #
  #  Definition of "minimal" basis
  #
  ################################################################################
  #     valence basis states
      valence      2  s   2.
      valence      2  p   4.
  #     ion occupancy
      ion_occ      2  s   1.
      ion_occ      2  p   3.
  ################################################################################
  #
  #  Suggested additional basis functions. For production calculations,
  #  uncomment them one after another (the most important basis functions are
  #  listed first).
  #
  ################################################################################
  #  "First tier" - improvements: -699.05 meV to -159.38 meV
       hydro 2 p 1.8
       hydro 3 d 7.6
       hydro 3 s 6.4
  #  "Second tier" - improvements: -49.91 meV to -5.39 meV
       hydro 4 f 11.6
       hydro 3 p 6.2
       hydro 3 d 5.6
       hydro 5 g 17.6
       hydro 1 s 0.75
  #  "Third tier" - improvements: -2.83 meV to -0.50 meV
  #     ionic 2 p auto
  #     hydro 4 f 10.8
  #     hydro 4 d 4.7
  #     hydro 2 s 6.8
  #  "Fourth tier" - improvements: -0.40 meV to -0.12 meV
  #     hydro 3 p 5
  #     hydro 3 s 3.3
  #     hydro 5 g 15.6
  #     hydro 4 f 17.6
  #     hydro 4 d 14
  # Further basis functions - -0.08 meV and below
  #     hydro 3 s 2.1
  #     hydro 4 d 11.6
  #     hydro 3 p 16
  #     hydro 2 s 17.2
  
  
  -----------------------------------------------------------------------
  Completed first pass over input file control.in .
  -----------------------------------------------------------------------
  
  
  -----------------------------------------------------------------------
  Parsing geometry.in (first pass over file, find array dimensions only).
  The contents of geometry.in will be repeated verbatim below
  unless switched off by setting 'verbatim_writeout .false.' .
  in the first line of geometry.in .
  -----------------------------------------------------------------------
  
  atom      -4.053030000      0.065001000     -1.525160000  O
  atom      -4.566710000      0.974813000     -1.912820000  H
  atom      -3.067820000      0.330172000     -1.477310000  H
  atom      -4.581760000     -0.256435000      0.939478000  O
  atom      -4.349860000      0.471090000      1.504340000  H
  atom      -5.393870000     -0.726611000      1.228070000  H
  atom      -5.628340000      3.730740000      1.385610000  O
  atom      -6.090650000      4.418470000      1.860350000  H
  atom      -5.158540000      4.200260000      0.615875000  H
  
  -----------------------------------------------------------------------
  Completed first pass over input file geometry.in .
  -----------------------------------------------------------------------
  
 
  Basic array size parameters: 
  | Number of species                 :        2
  | Number of atoms                   :        9
  | Max. basis fn. angular momentum   :        4
  | Max. atomic/ionic basis occupied n:        2
  | Max. number of basis fn. types    :        2
  | Max. radial fns per species/type  :        8
  | Max. logarithmic grid size        :     1301
  | Max. radial integration grid size :       73
  | Max. angular integration grid size:      302
  | Max. angular grid division number :        8
  | Radial grid for Hartree potential :     1301
  | Number of spin channels           :        1

------------------------------------------------------------
          Reading file control.in.
------------------------------------------------------------
  XC: Using RPBE gradient-corrected functionals.
  Spin treatment: No spin polarisation.
  Scalar relativistic treatment of kinetic energy: on-site free-atom approximation to ZORA.
  Charge =   0.000000E+00: Neutral system requested explicitly.
  Using non-empirical van der Waals correction (Hirshfeld partitioning):
  Occupation type: Gaussian broadening, width =   0.100000E-01 eV.
  Using pulay charge density mixing.
  Pulay mixing - number of memorized iterations:   10
  Charge density mixing - mixing parameter:     0.1000
  Convergence accuracy of self-consistent charge density: 0.5000E-04
  Convergence accuracy of sum of eigenvalues: 0.5000E-02
  Convergence accuracy of total energy: 0.5000E-05
  Maximum number of s.-c. iterations  :  3000
  Kohn-Sham eigenvalues and eigenfunctions calculated by lapack diagonalisation (D&C).
  Number of empty states per atom:        8
  Threshold for basis singularities: 0.0000E+00
  Partition function in integrals calculations: rho / r^2
 Using packed matrix format           0
  Convergence accuracy of forces: 0.5000E-03
  Cleaning forces before final output.
  Hirshfeld charge analysis will be performed.
 
  Reading configuration options for species H                   .
  | Found nuclear charge :   1.0000
  | Found cutoff potl. onset [A], width [A], scale factor :    4.00000    2.00000    1.00000
  | Found cutoff specification for free atom: Cutoff potential begins at    8.00000 A.
  | Found logarithmic grid data [bohr] : 0.1000E-03 0.1000E+03 0.1012E+01
  | Threshold for basis-dependent cutoff potential is   0.100000E-03
  | Found data for basic radial integration grid :    24 points, outermost radius =    7.000 A
  | Found multiplier for basic radial grid :   2
  | Found angular grid specification: user-specified.
  | Specified grid contains     4 separate shells.
  | Check grid settings after all constraints further below.
  | Found l_max for Hartree potential  :   4
  | Found free-atom valence shell :  1 s   1.000
  | No ionic wave fns used. Skipping ion_occ.
  | Found hydrogenic basis function :  2 s   2.100
  | Found hydrogenic basis function :  2 p   3.500
  | Found hydrogenic basis function :  1 s   0.850
  | Found hydrogenic basis function :  2 p   3.700
  | Found hydrogenic basis function :  2 s   1.200
  | Found hydrogenic basis function :  3 d   7.000
  Species H                   : Missing cutoff potential type.
  Defaulting to exp(1/x)/(1-x)^2 type cutoff potential.
  Species H : On-site basis accuracy parameter (for Gram-Schmidt orthonormalisation) not specified.
  Using default value basis_acc =  0.1000000E-03.
  Species H                   : Using default innermost maximum threshold i_radial=  2 for radial functions.
  Species H                   : Basic radial grid will be enhanced according to radial_multiplier =   2, to contain    49 grid points.
 
  Reading configuration options for species O                   .
  | Found nuclear charge :   8.0000
  | Found atomic mass :    15.9994000000000      amu
  | Found l_max for Hartree potential  :   4
  | Found cutoff potl. onset [A], width [A], scale factor :    4.00000    2.00000    1.00000
  | Found cutoff specification for free atom: Cutoff potential begins at    8.00000 A.
  | Threshold for basis-dependent cutoff potential is   0.100000E-03
  | Found logarithmic grid data [bohr] : 0.1000E-03 0.1000E+03 0.1012E+01
  | Found data for basic radial integration grid :    36 points, outermost radius =    7.000 A
  | Found multiplier for basic radial grid :   2
  | Found angular grid specification: user-specified.
  | Specified grid contains     4 separate shells.
  | Check grid settings after all constraints further below.
  | Found free-atom valence shell :  2 s   2.000
  | Found free-atom valence shell :  2 p   4.000
  | No ionic wave fns used. Skipping ion_occ.
  | No ionic wave fns used. Skipping ion_occ.
  | Found hydrogenic basis function :  2 p   1.800
  | Found hydrogenic basis function :  3 d   7.600
  | Found hydrogenic basis function :  3 s   6.400
  | Found hydrogenic basis function :  4 f  11.600
  | Found hydrogenic basis function :  3 p   6.200
  | Found hydrogenic basis function :  3 d   5.600
  | Found hydrogenic basis function :  5 g  17.600
  | Found hydrogenic basis function :  1 s   0.750
  Species O                   : Missing cutoff potential type.
  Defaulting to exp(1/x)/(1-x)^2 type cutoff potential.
  Species O : On-site basis accuracy parameter (for Gram-Schmidt orthonormalisation) not specified.
  Using default value basis_acc =  0.1000000E-03.
  Species O                   : Using default innermost maximum threshold i_radial=  2 for radial functions.
  Species O                   : Basic radial grid will be enhanced according to radial_multiplier =   2, to contain    73 grid points.
 
  Finished reading input file 'control.in'. Consistency checks are next.
 
  Target number of points in a grid batch is not set. Defaulting to  100
  Method for grid partitioning is not set. Defaulting to parallel hash+maxmin partitioning.
  Batch size limit is not set. Defaulting to    200
  By default, will store active basis functions for each batch.
  If in need of memory, prune_basis_once .false. can be used to disable this option.
  communication_type for Hartree potential was not specified.
  Defaulting to calc_hartree .
  Pulay mixer: Number of initial linear mixing iterations not set.
  Defaulting to    0 iterations.
  Work space size for distributed Hartree potential not set.
  Defaulting to   0.200000E+03 MB.
  Algorithm-dependent basis array size parameters:
  | n_max_pulay                         :       10
  Geometry relaxation not requested: no relaxation will be performed.
  Handling of forces: Unphysical translation and rotation will be removed from forces.
  No accuracy limit for integral partition fn. given. Defaulting to 0.1000E-14.
  No threshold value for u(r) in integrations given. Defaulting to 0.1000E-05.
  No accuracy for occupation numbers given. Defaulting to 0.1000E-07.
  No threshold value for occupation numbers given. Defaulting to 0.0000E+00.
  No accuracy for fermi level given. Defaulting to 0.1000E-19.
  Maximum # of iterations to find E_F not set. Defaulting to  200.
  Will not use alltoall communication since running on < 1024 CPUs.
  Partitioning for Hartree potential was not defined. Using partition_type for integrals.
  | Reporting present value of keyword multip_moments_threshold  :       0.10000000E-09
  | This value may affect high angular momentum components of the Hartree potential in periodic systems.
  No q(lm)/r^(l+1) cutoff set for long-range Hartree potential.
  | Using default value of  0.100000E-09 .
  | Verify using the multipole_threshold keyword.
  Defaulting to new monopole extrapolation.
  Density update method: Loop over occupied states selected for charge density update.
------------------------------------------------------------


------------------------------------------------------------
          Reading geometry description geometry.in.
------------------------------------------------------------
  Input structure read successfully.
  The structure contains        9 atoms,  and a total of         30.000 electrons.

  Input geometry:
  | No unit cell requested.
  | Atomic structure:
  |       Atom                x [A]            y [A]            z [A]
  |    1: Species O             -4.053030         0.065001        -1.525160
  |    2: Species H             -4.566710         0.974813        -1.912820
  |    3: Species H             -3.067820         0.330172        -1.477310
  |    4: Species O             -4.581760        -0.256435         0.939478
  |    5: Species H             -4.349860         0.471090         1.504340
  |    6: Species H             -5.393870        -0.726611         1.228070
  |    7: Species O             -5.628340         3.730740         1.385610
  |    8: Species H             -6.090650         4.418470         1.860350
  |    9: Species H             -5.158540         4.200260         0.615875
  |

  | The smallest distance between any two atoms is         0.94981015 AA.
  |
  | The first atom of this pair is atom number                      4 .
  | The second atom of this pair is atom number                     5 .

  Structure-dependent array size parameters: 
  | Maximum number of distinct radial functions  :       18
  | Maximum number of basis functions            :      207
  | Number of Kohn-Sham states (occupied + empty):       51
------------------------------------------------------------

------------------------------------------------------------
          Preparing all fixed parts of the calculation.
------------------------------------------------------------
  Determining machine precision:
    2.225073858507201E-308
  Setting up grids for atomic and cluster calculations.

  Creating wave function, potential, and density for free atoms.

  Species: H

  List of occupied orbitals and eigenvalues:
    n    l              occ      energy [Ha]    energy [eV]
    1    0           1.0000        -0.241408        -6.5691


  Species: O

  List of occupied orbitals and eigenvalues:
    n    l              occ      energy [Ha]    energy [eV]
    1    0           2.0000       -18.944147      -515.4965
    2    0           2.0000        -0.883529       -24.0421
    2    1           4.0000        -0.330176        -8.9845

  Creating fixed part of basis set: Ionic, confined, hydrogenic.
 
  H                    hydrogenic:
 
  List of hydrogenic basis orbitals: 
    n    l      effective z      eigenvalue [eV]  inner max. [A]     outer max. [A]     outer radius [A]   
    2    0         2.100000       -14.9965           0.193241           1.317192           5.372934
    2    1         3.500000       -41.6672           0.602363           0.602363           4.056010
    1    0         0.850000        -9.8292           0.624864           0.624864           5.372934
    2    1         3.700000       -46.5653           0.573616           0.573616           3.909951
    2    0         1.200000        -4.5995           0.334977           2.228160           5.505921
    3    2         7.000000       -74.0753           0.680692           0.680692           3.769152
 
 
  O                    hydrogenic:
 
  List of hydrogenic basis orbitals: 
    n    l      effective z      eigenvalue [eV]  inner max. [A]     outer max. [A]     outer radius [A]   
    2    1         1.800000       -11.0118           1.178546           1.178546           5.432516
    3    2         7.600000       -87.3182           0.624117           0.624117           3.541422
    3    0         6.400000       -61.9209           0.061166           1.081887           4.306510
    4    3        11.600000      -114.4238           0.731621           0.731621           3.584982
    3    1         6.200000       -58.1113           0.255677           1.030255           4.306510
    3    2         5.600000       -47.4081           0.847222           0.847222           4.413102
    5    4        17.600000      -168.5799           0.749730           0.749730           3.372413
    1    0         0.750000        -7.6499           0.705275           0.705275           5.366508
 

  Adding cutoff potential to free-atom effective potential.
  Creating atomic-like basis functions for current effective potential.

  Species H                   :

  List of atomic basis orbitals and eigenvalues:
    n    l      energy [Ha]    energy [eV]    outer radius [A]
    1    0        -0.241374        -6.5681       5.372934


  Species O                   :

  List of atomic basis orbitals and eigenvalues:
    n    l      energy [Ha]    energy [eV]    outer radius [A]
    1    0       -18.944147      -515.4965       1.415745
    2    0        -0.883529       -24.0421       5.048305
    2    1        -0.330173        -8.9845       5.301302

  Assembling full basis from fixed parts.
  | Species H :   atomic orbital   1 s accepted.
  | Species H :    hydro orbital   2 s accepted.
  | Species H :    hydro orbital   1 s accepted.
  | Species H :    hydro orbital   2 s accepted.
  | Species H :    hydro orbital   2 p accepted.
  | Species H :    hydro orbital   2 p accepted.
  | Species H :    hydro orbital   3 d accepted.
  | Species O :   atomic orbital   1 s accepted.
  | Species O :    hydro orbital   3 s accepted.
  | Species O :   atomic orbital   2 s accepted.
  | Species O :    hydro orbital   1 s accepted.
  | Species O :    hydro orbital   3 p accepted.
  | Species O :   atomic orbital   2 p accepted.
  | Species O :    hydro orbital   2 p accepted.
  | Species O :    hydro orbital   3 d accepted.
  | Species O :    hydro orbital   3 d accepted.
  | Species O :    hydro orbital   4 f accepted.
  | Species O :    hydro orbital   5 g accepted.
 
  Basis size parameters after reduction:
  | Total number of radial functions:       18
  | Total number of basis functions :      207
 
  Testing on-site integration grid accuracy.
  |  Species  Function  <phi|h_atom|phi> (log., in eV)  <phi|h_atom|phi> (rad., in eV)
           1        1                 -6.5683835025                 -6.5684759159
           1        2                 13.3711789951                 13.3708738703
           1        3                 23.6590910787                 23.6532055418
           1        4                 16.2963827186                 16.1870710655 ***
           1        5                 28.7627214838                 28.7627215090
           1        6                 59.5965249172                 59.5965950857
           1        7                 60.2220506392                 60.2220503827
           2        8               -515.4964576505               -515.4964530710
           2        9                 15.3030791347                 15.3030722972
           2       10                -21.7296094581                -21.7296135470
           2       11                 14.2969371730                 14.2969701621
           2       12                 21.0679693190                 21.0679697493
           2       13                 -2.3833606469                 -2.3833613176
           2       14                 13.7067136422                 13.7066766629
           2       15                 45.8013116808                 45.8013116965
           2       16                 52.2309815402                 52.2309831494
           2       17                 85.4120732416                 85.4120732763
           2       18                142.1019167745                142.1019167817
 * Note: Onsite integrals marked "***" above are less accurate than
 * onsite_accuracy_threshold =    0.03000 eV. Usually, this is harmless.
 * When in doubt, tighten the "radial" and/or "radial_multiplier" flags to check.

  Preparing densities etc. for the partition functions (integrals / Hartree potential).

  Preparations completed.
  max(cpu_time)          :      0.172 s.
  Wall clock time (cpu1) :      0.595 s.
------------------------------------------------------------

------------------------------------------------------------
          Begin self-consistency loop: Initialization.

          Date     :  20150727, Time     :  121329.171
------------------------------------------------------------

  Initializing index lists of integration centers etc. from given atomic structure:
  | Number of centers in hartree potential         :         9
  | Number of centers in hartree multipole         :         9
  | Number of centers in electron density summation:         9
  | Number of centers in basis integrals           :         9
  | Number of centers in integrals                 :         9
  Partitioning the integration grid into batches with parallel hashing+maxmin method.
  | Number of batches:     1233
  | Maximal batch size:     177
  | Minimal batch size:      51
  | Average batch size:      95.723
  | Standard deviation of batch sizes:      26.068

  Integration load balanced across     8 MPI tasks.
  Work distribution over tasks is as follows:
  Task     0 has      14725 integration points.
  Task     1 has      14698 integration points.
  Task     2 has      14873 integration points.
  Task     3 has      14753 integration points.
  Task     4 has      14715 integration points.
  Task     5 has      14837 integration points.
  Task     6 has      14722 integration points.
  Task     7 has      14703 integration points.
  Initializing partition tables, free-atom densities, potentials, etc. across the integration grid (initialize_grid_storage).
  | Net number of integration points:   118026
  | of which are non-zero points    :   117520
  Obtaining max. number of non-zero basis functions in each batch (get_n_compute_maxes).
  | Maximal number of non-zero basis functions:      205 in task     0
  | Maximal number of non-zero basis functions:      205 in task     1
  | Maximal number of non-zero basis functions:      205 in task     2
  | Maximal number of non-zero basis functions:      205 in task     3
  | Maximal number of non-zero basis functions:      205 in task     4
  | Maximal number of non-zero basis functions:      205 in task     5
  | Maximal number of non-zero basis functions:      205 in task     6
  | Maximal number of non-zero basis functions:      206 in task     7
  Integrating Hamiltonian matrix: batch-based integration.
  Time summed over all CPUs for integration: real work        2.194 s, elapsed        2.273 s
  Integrating overlap matrix.
  Time summed over all CPUs for integration: real work        1.123 s, elapsed        1.163 s

  Updating Kohn-Sham eigenvalues, eigenvectors, occupation numbers, and Fermi level.
  Solving generalized eigenproblem
  Updating Kohn-Sham eigenvalues and eigenfunctions.
  Transforming overlap matrix and checking for singularities.
  Overlap matrix is nonsingular:
  | Lowest eigenvalue:  0.477710E-03
  Solving real generalised eigenvalue problem by standard LAPACK (fast)
  Determining occupation numbers for Kohn-Sham eigenstates.
  | Chemical potential (Fermi level) in eV                 : -.71804309E+01
  | Error in electron count due to remaining E_F inaccuracy: 0.00000000E+00
  | Maximum occupation number of highest empty state:  0.00E+00

  Writing Kohn-Sham eigenvalues.

  State    Occupation    Eigenvalue [Ha]    Eigenvalue [eV]
      1       2.00000         -19.051934         -518.42950
      2       2.00000         -19.044495         -518.22707
      3       2.00000         -19.019436         -517.54518
      4       2.00000          -1.098512          -29.89202
      5       2.00000          -1.089063          -29.63490
      6       2.00000          -1.043103          -28.38426
      7       2.00000          -0.644497          -17.53766
      8       2.00000          -0.618198          -16.82202
      9       2.00000          -0.569946          -15.50902
     10       2.00000          -0.505317          -13.75036
     11       2.00000          -0.501517          -13.64697
     12       2.00000          -0.474610          -12.91480
     13       2.00000          -0.438894          -11.94292
     14       2.00000          -0.430130          -11.70445
     15       2.00000          -0.402342          -10.94828
     16       0.00000          -0.092320           -2.51215
     17       0.00000          -0.066925           -1.82113
     18       0.00000          -0.056253           -1.53071
     19       0.00000          -0.021902           -0.59597
     20       0.00000          -0.005561           -0.15131
     21       0.00000           0.000464            0.01261
     22       0.00000           0.074470            2.02643
     23       0.00000           0.084802            2.30757
     24       0.00000           0.094460            2.57038
     25       0.00000           0.109942            2.99167
     26       0.00000           0.113470            3.08767
     27       0.00000           0.117641            3.20117
     28       0.00000           0.120267            3.27263
     29       0.00000           0.131789            3.58617
     30       0.00000           0.149382            4.06488
     31       0.00000           0.175142            4.76586
     32       0.00000           0.192282            5.23227
     33       0.00000           0.226856            6.17308
     34       0.00000           0.240583            6.54661
     35       0.00000           0.255092            6.94140
     36       0.00000           0.276965            7.53660
     37       0.00000           0.304313            8.28077
     38       0.00000           0.330523            8.99398
     39       0.00000           0.366299            9.96750
     40       0.00000           0.385771           10.49736
     41       0.00000           0.398676           10.84854
     42       0.00000           0.408770           11.12319
     43       0.00000           0.420004           11.42888
     44       0.00000           0.427460           11.63178
     45       0.00000           0.440853           11.99623
     46       0.00000           0.473740           12.89113
     47       0.00000           0.495726           13.48940
     48       0.00000           0.527032           14.34128
     49       0.00000           0.551149           14.99753
     50       0.00000           0.569331           15.49229
     51       0.00000           0.608558           16.55972

  Highest occupied state (VBM) at    -10.94828475 eV
  | Occupation number:      2.00000000

  Lowest unoccupied state (CBM) at    -2.51214708 eV
  | Occupation number:      0.00000000

  Overall HOMO-LUMO gap:      8.43613767 eV.
  Calculating total energy contributions from superposition of free atom densities.

  Total energy components:
  | Sum of eigenvalues            :        -129.86398580 Ha       -3533.77885028 eV
  | XC energy correction          :         -27.27731757 Ha        -742.25357660 eV
  | XC potential correction       :          34.84275055 Ha         948.11948213 eV
  | Free-atom electrostatic energy:        -107.54380842 Ha       -2926.41592151 eV
  | Hartree energy correction     :           0.00000000 Ha           0.00000000 eV
  | van der Waals energy corr.    :           0.00000000 Ha           0.00000000 eV
  | Entropy correction            :           0.00000000 Ha           0.00000000 eV
  | ---------------------------
  | Total energy                  :        -229.84236125 Ha       -6254.32886626 eV
  | Total energy, T -> 0          :        -229.84236125 Ha       -6254.32886626 eV  <-- do not rely on this value for anything but (periodic) metals
  | Electronic free energy        :        -229.84236125 Ha       -6254.32886626 eV

  Derived energy quantities:
  | Kinetic energy                :         227.36691499 Ha        6186.96854633 eV
  | Electrostatic energy          :        -429.93195866 Ha      -11699.04383600 eV
  | Energy correction for multipole
  | error in Hartree potential    :           0.00000000 Ha           0.00000000 eV
  | Sum of eigenvalues per atom                           :        -392.64209448 eV
  | Total energy (T->0) per atom                          :        -694.92542958 eV  <-- do not rely on this value for anything but (periodic) metals
  | Electronic free energy per atom                       :        -694.92542958 eV
  Initialize hartree_potential_storage
  Max. number of atoms included in rho_multipole:            9

  End scf initialization - timings             :  max(cpu_time)    wall_clock(cpu1)
  | Time for scf. initialization               :        0.679 s           0.679 s
  | Boundary condition initialization          :        0.000 s           0.001 s
  | Integration                                :        0.431 s           0.431 s
  | Solution of K.-S. eqns.                    :        0.065 s           0.065 s
  | Grid partitioning                          :        0.089 s           0.088 s
  | Preloading free-atom quantities on grid    :        0.014 s           0.013 s
  | Free-atom superposition energy             :        0.030 s           0.030 s
  | Total energy evaluation                    :        0.000 s           0.000 s
------------------------------------------------------------

------------------------------------------------------------
          Begin self-consistency iteration #    1

  Date     :  20150727, Time     :  121329.850
------------------------------------------------------------
  Evaluating new KS density.
  Integration grid: deviation in total charge (<rho> - N_e) =  -7.105427E-15
  Pulay mixing of updated and previous charge densities.

  Evaluating partitioned Hartree potential by multipole expansion.
  | Analytical far-field extrapolation by fixed multipoles:
  | Hartree multipole sum: apparent total charge =  -0.115719E-05
  Summing up the Hartree potential.
  Time summed over all CPUs for potential: real work        0.942 s, elapsed        0.950 s
  | RMS charge density error from multipole expansion :   0.122146E-02

  Integrating Hamiltonian matrix: batch-based integration.
  Time summed over all CPUs for integration: real work        2.183 s, elapsed        2.256 s

  Updating Kohn-Sham eigenvalues, eigenvectors, occupation numbers, and Fermi level.
  Solving generalized eigenproblem
  Updating Kohn-Sham eigenvalues and eigenfunctions.
  Solving real generalised eigenvalue problem by standard LAPACK (fast)
  Determining occupation numbers for Kohn-Sham eigenstates.
  | Chemical potential (Fermi level) in eV                 : -.66676489E+01
  | Error in electron count due to remaining E_F inaccuracy: 0.00000000E+00
  | Maximum occupation number of highest empty state:  0.00E+00

  Writing Kohn-Sham eigenvalues.

  State    Occupation    Eigenvalue [Ha]    Eigenvalue [eV]
      1       2.00000         -18.968066         -516.14734
      2       2.00000         -18.966374         -516.10131
      3       2.00000         -18.941656         -515.42868
      4       2.00000          -1.054370          -28.69086
      5       2.00000          -1.051929          -28.62445
      6       2.00000          -1.002119          -27.26904
      7       2.00000          -0.606293          -16.49806
      8       2.00000          -0.586771          -15.96685
      9       2.00000          -0.536106          -14.58820
     10       2.00000          -0.464272          -12.63348
     11       2.00000          -0.461187          -12.54954
     12       2.00000          -0.433044          -11.78372
     13       2.00000          -0.393232          -10.70038
     14       2.00000          -0.391002          -10.63970
     15       2.00000          -0.357668           -9.73265
     16       0.00000          -0.083388           -2.26910
     17       0.00000          -0.059449           -1.61768
     18       0.00000          -0.046314           -1.26028
     19       0.00000          -0.012143           -0.33041
     20       0.00000           0.000358            0.00974
     21       0.00000           0.009843            0.26784
     22       0.00000           0.083295            2.26657
     23       0.00000           0.095890            2.60931
     24       0.00000           0.102578            2.79129
     25       0.00000           0.117739            3.20385
     26       0.00000           0.122349            3.32930
     27       0.00000           0.126200            3.43408
     28       0.00000           0.127389            3.46643
     29       0.00000           0.140223            3.81565
     30       0.00000           0.161233            4.38736
     31       0.00000           0.184800            5.02865
     32       0.00000           0.201862            5.49295
     33       0.00000           0.236383            6.43231
     34       0.00000           0.249486            6.78887
     35       0.00000           0.264648            7.20145
     36       0.00000           0.286447            7.79462
     37       0.00000           0.315923            8.59670
     38       0.00000           0.337869            9.19389
     39       0.00000           0.377498           10.27224
     40       0.00000           0.393265           10.70127
     41       0.00000           0.405622           11.03754
     42       0.00000           0.419021           11.40214
     43       0.00000           0.431144           11.73202
     44       0.00000           0.439636           11.96311
     45       0.00000           0.449468           12.23063
     46       0.00000           0.484967           13.19661
     47       0.00000           0.506128           13.77245
     48       0.00000           0.539301           14.67512
     49       0.00000           0.563758           15.34062
     50       0.00000           0.584529           15.90586
     51       0.00000           0.624383           16.99034

  Highest occupied state (VBM) at     -9.73264806 eV
  | Occupation number:      2.00000000

  Lowest unoccupied state (CBM) at    -2.26909719 eV
  | Occupation number:      0.00000000

  Overall HOMO-LUMO gap:      7.46355087 eV.

  Total energy components:
  | Sum of eigenvalues            :        -128.42817672 Ha       -3494.70849723 eV
  | XC energy correction          :         -27.42812632 Ha        -746.35729147 eV
  | XC potential correction       :          35.04075267 Ha         953.50739394 eV
  | Free-atom electrostatic energy:        -107.54380842 Ha       -2926.41592151 eV
  | Hartree energy correction     :          -1.38672940 Ha         -37.73482699 eV
  | van der Waals energy corr.    :           0.00000000 Ha           0.00000000 eV
  | Entropy correction            :           0.00000000 Ha           0.00000000 eV
  | ---------------------------
  | Total energy                  :        -229.74608820 Ha       -6251.70914327 eV
  | Total energy, T -> 0          :        -229.74608820 Ha       -6251.70914327 eV  <-- do not rely on this value for anything but (periodic) metals
  | Electronic free energy        :        -229.74608820 Ha       -6251.70914327 eV

  Derived energy quantities:
  | Kinetic energy                :         228.25901813 Ha        6211.24390785 eV
  | Electrostatic energy          :        -430.57698000 Ha      -11716.59575965 eV
  | Energy correction for multipole
  | error in Hartree potential    :          -0.00009013 Ha          -0.00245250 eV
  | Sum of eigenvalues per atom                           :        -388.30094414 eV
  | Total energy (T->0) per atom                          :        -694.63434925 eV  <-- do not rely on this value for anything but (periodic) metals
  | Electronic free energy per atom                       :        -694.63434925 eV

  Self-consistency convergence accuracy:
  | Change of charge density      : 0.5286E+00
  | Change of sum of eigenvalues  : 0.3907E+02 eV
  | Change of total energy        : 0.2620E+01 eV

  End self-consistency iteration #     1       :  max(cpu_time)    wall_clock(cpu1)
  | Time for this iteration                    :        0.635 s           0.635 s
  | Charge density update                      :        0.210 s           0.210 s
  | Density mixing                             :        0.002 s           0.002 s
  | Hartree multipole update                   :        0.004 s           0.004 s
  | Hartree multipole summation                :        0.119 s           0.119 s
  | Integration                                :        0.283 s           0.283 s
  | Solution of K.-S. eqns.                    :        0.016 s           0.016 s
  | Total energy evaluation                    :        0.000 s           0.001 s
------------------------------------------------------------

------------------------------------------------------------
          Begin self-consistency iteration #    2

  Date     :  20150727, Time     :  121330.485
------------------------------------------------------------
  Evaluating new KS density.
  Integration grid: deviation in total charge (<rho> - N_e) =  -7.105427E-15
  Pulay mixing of updated and previous charge densities.

  Evaluating partitioned Hartree potential by multipole expansion.
  | Analytical far-field extrapolation by fixed multipoles:
  | Hartree multipole sum: apparent total charge =  -0.315828E-05
  Summing up the Hartree potential.
  Time summed over all CPUs for potential: real work        0.942 s, elapsed        0.948 s
  | RMS charge density error from multipole expansion :   0.476214E-02

  Integrating Hamiltonian matrix: batch-based integration.
  Time summed over all CPUs for integration: real work        2.181 s, elapsed        2.256 s

  Updating Kohn-Sham eigenvalues, eigenvectors, occupation numbers, and Fermi level.
  Solving generalized eigenproblem
  Updating Kohn-Sham eigenvalues and eigenfunctions.
  Solving real generalised eigenvalue problem by standard LAPACK (fast)
  Determining occupation numbers for Kohn-Sham eigenstates.
  | Chemical potential (Fermi level) in eV                 : -.54308581E+01
  | Error in electron count due to remaining E_F inaccuracy: 0.00000000E+00
  | Maximum occupation number of highest empty state:  0.00E+00

  Highest occupied state (VBM) at     -6.99339377 eV
  | Occupation number:      2.00000000

  Lowest unoccupied state (CBM) at    -1.73641895 eV
  | Occupation number:      0.00000000

  Overall HOMO-LUMO gap:      5.25697483 eV.

  Total energy components:
  | Sum of eigenvalues            :        -125.21591592 Ha       -3407.29843350 eV
  | XC energy correction          :         -27.78050208 Ha        -755.94592368 eV
  | XC potential correction       :          35.50315645 Ha         966.09004109 eV
  | Free-atom electrostatic energy:        -107.54380842 Ha       -2926.41592151 eV
  | Hartree energy correction     :          -4.60310449 Ha        -125.25684604 eV
  | van der Waals energy corr.    :           0.00000000 Ha           0.00000000 eV
  | Entropy correction            :           0.00000000 Ha           0.00000000 eV
  | ---------------------------
  | Total energy                  :        -229.64017445 Ha       -6248.82708364 eV
  | Total energy, T -> 0          :        -229.64017445 Ha       -6248.82708364 eV  <-- do not rely on this value for anything but (periodic) metals
  | Electronic free energy        :        -229.64017445 Ha       -6248.82708364 eV

  Derived energy quantities:
  | Kinetic energy                :         229.94604065 Ha        6257.15012627 eV
  | Electrostatic energy          :        -431.80571302 Ha      -11750.03128623 eV
  | Energy correction for multipole
  | error in Hartree potential    :          -0.00073137 Ha          -0.01990157 eV
  | Sum of eigenvalues per atom                           :        -378.58871483 eV
  | Total energy (T->0) per atom                          :        -694.31412040 eV  <-- do not rely on this value for anything but (periodic) metals
  | Electronic free energy per atom                       :        -694.31412040 eV

  Self-consistency convergence accuracy:
  | Change of charge density      : 0.3975E+00
  | Change of sum of eigenvalues  : 0.8741E+02 eV
  | Change of total energy        : 0.2882E+01 eV

  End self-consistency iteration #     2       :  max(cpu_time)    wall_clock(cpu1)
  | Time for this iteration                    :        0.632 s           0.632 s
  | Charge density update                      :        0.207 s           0.207 s
  | Density mixing                             :        0.003 s           0.003 s
  | Hartree multipole update                   :        0.004 s           0.004 s
  | Hartree multipole summation                :        0.119 s           0.119 s
  | Integration                                :        0.283 s           0.283 s
  | Solution of K.-S. eqns.                    :        0.016 s           0.016 s
  | Total energy evaluation                    :        0.000 s           0.000 s
------------------------------------------------------------

------------------------------------------------------------
          Begin self-consistency iteration #    3

  Date     :  20150727, Time     :  121331.117
------------------------------------------------------------
  Evaluating new KS density.
  Integration grid: deviation in total charge (<rho> - N_e) =   3.552714E-15
  Pulay mixing of updated and previous charge densities.

  Evaluating partitioned Hartree potential by multipole expansion.
  | Analytical far-field extrapolation by fixed multipoles:
  | Hartree multipole sum: apparent total charge =  -0.268055E-05
  Summing up the Hartree potential.
  Time summed over all CPUs for potential: real work        0.942 s, elapsed        0.948 s
  | RMS charge density error from multipole expansion :   0.989465E-02

  Integrating Hamiltonian matrix: batch-based integration.
  Time summed over all CPUs for integration: real work        2.179 s, elapsed        2.256 s

  Updating Kohn-Sham eigenvalues, eigenvectors, occupation numbers, and Fermi level.
  Solving generalized eigenproblem
  Updating Kohn-Sham eigenvalues and eigenfunctions.
  Solving real generalised eigenvalue problem by standard LAPACK (fast)
  Determining occupation numbers for Kohn-Sham eigenstates.
  | Chemical potential (Fermi level) in eV                 : -.51914094E+01
  | Error in electron count due to remaining E_F inaccuracy: 0.00000000E+00
  | Maximum occupation number of highest empty state:  0.00E+00

  Highest occupied state (VBM) at     -6.99712027 eV
  | Occupation number:      2.00000000

  Lowest unoccupied state (CBM) at    -1.60878784 eV
  | Occupation number:      0.00000000

  Overall HOMO-LUMO gap:      5.38833243 eV.

  Total energy components:
  | Sum of eigenvalues            :        -125.44437664 Ha       -3413.51516600 eV
  | XC energy correction          :         -27.75262137 Ha        -755.18725102 eV
  | XC potential correction       :          35.46438460 Ha         965.03500546 eV
  | Free-atom electrostatic energy:        -107.54380842 Ha       -2926.41592151 eV
  | Hartree energy correction     :          -4.36167191 Ha        -118.68713135 eV
  | van der Waals energy corr.    :           0.00000000 Ha           0.00000000 eV
  | Entropy correction            :           0.00000000 Ha           0.00000000 eV
  | ---------------------------
  | Total energy                  :        -229.63809373 Ha       -6248.77046442 eV
  | Total energy, T -> 0          :        -229.63809373 Ha       -6248.77046442 eV  <-- do not rely on this value for anything but (periodic) metals
  | Electronic free energy        :        -229.63809373 Ha       -6248.77046442 eV

  Derived energy quantities:
  | Kinetic energy                :         228.63554841 Ha        6221.48981825 eV
  | Electrostatic energy          :        -430.52102078 Ha      -11715.07303165 eV
  | Energy correction for multipole
  | error in Hartree potential    :          -0.00316612 Ha          -0.08615452 eV
  | Sum of eigenvalues per atom                           :        -379.27946289 eV
  | Total energy (T->0) per atom                          :        -694.30782938 eV  <-- do not rely on this value for anything but (periodic) metals
  | Electronic free energy per atom                       :        -694.30782938 eV

  Self-consistency convergence accuracy:
  | Change of charge density      : 0.2075E+00
  | Change of sum of eigenvalues  : -.6217E+01 eV
  | Change of total energy        : 0.5662E-01 eV

  End self-consistency iteration #     3       :  max(cpu_time)    wall_clock(cpu1)
  | Time for this iteration                    :        0.632 s           0.633 s
  | Charge density update                      :        0.206 s           0.207 s
  | Density mixing                             :        0.004 s           0.004 s
  | Hartree multipole update                   :        0.004 s           0.004 s
  | Hartree multipole summation                :        0.119 s           0.119 s
  | Integration                                :        0.283 s           0.283 s
  | Solution of K.-S. eqns.                    :        0.016 s           0.016 s
  | Total energy evaluation                    :        0.000 s           0.000 s
------------------------------------------------------------

------------------------------------------------------------
          Begin self-consistency iteration #    4

  Date     :  20150727, Time     :  121331.750
------------------------------------------------------------
  Evaluating new KS density.
  Integration grid: deviation in total charge (<rho> - N_e) =  -3.552714E-15
  Pulay mixing of updated and previous charge densities.

  Evaluating partitioned Hartree potential by multipole expansion.
  | Analytical far-field extrapolation by fixed multipoles:
  | Hartree multipole sum: apparent total charge =  -0.323915E-05
  Summing up the Hartree potential.
  Time summed over all CPUs for potential: real work        0.941 s, elapsed        0.947 s
  | RMS charge density error from multipole expansion :   0.128416E-01

  Integrating Hamiltonian matrix: batch-based integration.
  Time summed over all CPUs for integration: real work        2.173 s, elapsed        2.248 s

  Updating Kohn-Sham eigenvalues, eigenvectors, occupation numbers, and Fermi level.
  Solving generalized eigenproblem
  Updating Kohn-Sham eigenvalues and eigenfunctions.
  Solving real generalised eigenvalue problem by standard LAPACK (fast)
  Determining occupation numbers for Kohn-Sham eigenstates.
  | Chemical potential (Fermi level) in eV                 : -.46231623E+01
  | Error in electron count due to remaining E_F inaccuracy: 0.00000000E+00
  | Maximum occupation number of highest empty state:  0.00E+00

  Highest occupied state (VBM) at     -5.91455692 eV
  | Occupation number:      2.00000000

  Lowest unoccupied state (CBM) at    -1.37538045 eV
  | Occupation number:      0.00000000

  Overall HOMO-LUMO gap:      4.53917647 eV.

  Total energy components:
  | Sum of eigenvalues            :        -124.30964163 Ha       -3382.63745546 eV
  | XC energy correction          :         -27.88881690 Ha        -758.89331986 eV
  | XC potential correction       :          35.64280103 Ha         969.88996347 eV
  | Free-atom electrostatic energy:        -107.54380842 Ha       -2926.41592151 eV
  | Hartree energy correction     :          -5.52906788 Ha        -150.45359203 eV
  | van der Waals energy corr.    :           0.00000000 Ha           0.00000000 eV
  | Entropy correction            :           0.00000000 Ha           0.00000000 eV
  | ---------------------------
  | Total energy                  :        -229.62853380 Ha       -6248.51032540 eV
  | Total energy, T -> 0          :        -229.62853380 Ha       -6248.51032540 eV  <-- do not rely on this value for anything but (periodic) metals
  | Electronic free energy        :        -229.62853380 Ha       -6248.51032540 eV

  Derived energy quantities:
  | Kinetic energy                :         228.83596325 Ha        6226.94338355 eV
  | Electrostatic energy          :        -430.57568016 Ha      -11716.56038909 eV
  | Energy correction for multipole
  | error in Hartree potential    :          -0.00418585 Ha          -0.11390279 eV
  | Sum of eigenvalues per atom                           :        -375.84860616 eV
  | Total energy (T->0) per atom                          :        -694.27892504 eV  <-- do not rely on this value for anything but (periodic) metals
  | Electronic free energy per atom                       :        -694.27892504 eV

  Self-consistency convergence accuracy:
  | Change of charge density      : 0.1222E+00
  | Change of sum of eigenvalues  : 0.3088E+02 eV
  | Change of total energy        : 0.2601E+00 eV

  End self-consistency iteration #     4       :  max(cpu_time)    wall_clock(cpu1)
  | Time for this iteration                    :        0.632 s           0.633 s
  | Charge density update                      :        0.206 s           0.207 s
  | Density mixing                             :        0.005 s           0.005 s
  | Hartree multipole update                   :        0.004 s           0.004 s
  | Hartree multipole summation                :        0.119 s           0.119 s
  | Integration                                :        0.282 s           0.282 s
  | Solution of K.-S. eqns.                    :        0.016 s           0.016 s
  | Total energy evaluation                    :        0.000 s           0.000 s
------------------------------------------------------------

------------------------------------------------------------
          Begin self-consistency iteration #    5

  Date     :  20150727, Time     :  121332.383
------------------------------------------------------------
  Evaluating new KS density.
  Integration grid: deviation in total charge (<rho> - N_e) =   2.842171E-14
  Pulay mixing of updated and previous charge densities.

  Evaluating partitioned Hartree potential by multipole expansion.
  | Analytical far-field extrapolation by fixed multipoles:
  | Hartree multipole sum: apparent total charge =  -0.318114E-05
  Summing up the Hartree potential.
  Time summed over all CPUs for potential: real work        0.941 s, elapsed        0.947 s
  | RMS charge density error from multipole expansion :   0.132953E-01

  Integrating Hamiltonian matrix: batch-based integration.
  Time summed over all CPUs for integration: real work        2.170 s, elapsed        2.240 s

  Updating Kohn-Sham eigenvalues, eigenvectors, occupation numbers, and Fermi level.
  Solving generalized eigenproblem
  Updating Kohn-Sham eigenvalues and eigenfunctions.
  Solving real generalised eigenvalue problem by standard LAPACK (fast)
  Determining occupation numbers for Kohn-Sham eigenstates.
  | Chemical potential (Fermi level) in eV                 : -.45937146E+01
  | Error in electron count due to remaining E_F inaccuracy: 0.00000000E+00
  | Maximum occupation number of highest empty state:  0.00E+00

  Highest occupied state (VBM) at     -5.80378394 eV
  | Occupation number:      2.00000000

  Lowest unoccupied state (CBM) at    -1.35880664 eV
  | Occupation number:      0.00000000

  Overall HOMO-LUMO gap:      4.44497730 eV.

  Total energy components:
  | Sum of eigenvalues            :        -124.26872194 Ha       -3381.52397415 eV
  | XC energy correction          :         -27.89426708 Ha        -759.04162685 eV
  | XC potential correction       :          35.64970600 Ha         970.07785733 eV
  | Free-atom electrostatic energy:        -107.54380842 Ha       -2926.41592151 eV
  | Hartree energy correction     :          -5.57117130 Ha        -151.59928438 eV
  | van der Waals energy corr.    :           0.00000000 Ha           0.00000000 eV
  | Entropy correction            :           0.00000000 Ha           0.00000000 eV
  | ---------------------------
  | Total energy                  :        -229.62826274 Ha       -6248.50294957 eV
  | Total energy, T -> 0          :        -229.62826274 Ha       -6248.50294957 eV  <-- do not rely on this value for anything but (periodic) metals
  | Electronic free energy        :        -229.62826274 Ha       -6248.50294957 eV

  Derived energy quantities:
  | Kinetic energy                :         228.83152824 Ha        6226.82270066 eV
  | Electrostatic energy          :        -430.56552390 Ha      -11716.28402338 eV
  | Energy correction for multipole
  | error in Hartree potential    :          -0.00423842 Ha          -0.11533340 eV
  | Sum of eigenvalues per atom                           :        -375.72488602 eV
  | Total energy (T->0) per atom                          :        -694.27810551 eV  <-- do not rely on this value for anything but (periodic) metals
  | Electronic free energy per atom                       :        -694.27810551 eV

  Self-consistency convergence accuracy:
  | Change of charge density      : 0.2853E-01
  | Change of sum of eigenvalues  : 0.1113E+01 eV
  | Change of total energy        : 0.7376E-02 eV

  End self-consistency iteration #     5       :  max(cpu_time)    wall_clock(cpu1)
  | Time for this iteration                    :        0.633 s           0.633 s
  | Charge density update                      :        0.206 s           0.207 s
  | Density mixing                             :        0.006 s           0.006 s
  | Hartree multipole update                   :        0.004 s           0.003 s
  | Hartree multipole summation                :        0.119 s           0.119 s
  | Integration                                :        0.280 s           0.281 s
  | Solution of K.-S. eqns.                    :        0.017 s           0.016 s
  | Total energy evaluation                    :        0.000 s           0.001 s
------------------------------------------------------------

------------------------------------------------------------
          Begin self-consistency iteration #    6

  Date     :  20150727, Time     :  121333.016
------------------------------------------------------------
  Evaluating new KS density.
  Integration grid: deviation in total charge (<rho> - N_e) =   1.421085E-14
  Pulay mixing of updated and previous charge densities.

  Evaluating partitioned Hartree potential by multipole expansion.
  | Analytical far-field extrapolation by fixed multipoles:
  | Hartree multipole sum: apparent total charge =  -0.321009E-05
  Summing up the Hartree potential.
  Time summed over all CPUs for potential: real work        0.941 s, elapsed        0.947 s
  | RMS charge density error from multipole expansion :   0.135640E-01

  Integrating Hamiltonian matrix: batch-based integration.
  Time summed over all CPUs for integration: real work        2.172 s, elapsed        2.245 s

  Updating Kohn-Sham eigenvalues, eigenvectors, occupation numbers, and Fermi level.
  Solving generalized eigenproblem
  Updating Kohn-Sham eigenvalues and eigenfunctions.
  Solving real generalised eigenvalue problem by standard LAPACK (fast)
  Determining occupation numbers for Kohn-Sham eigenstates.
  | Chemical potential (Fermi level) in eV                 : -.45528846E+01
  | Error in electron count due to remaining E_F inaccuracy: 0.00000000E+00
  | Maximum occupation number of highest empty state:  0.00E+00

  Highest occupied state (VBM) at     -5.73940254 eV
  | Occupation number:      2.00000000

  Lowest unoccupied state (CBM) at    -1.33900858 eV
  | Occupation number:      0.00000000

  Overall HOMO-LUMO gap:      4.40039396 eV.

  Total energy components:
  | Sum of eigenvalues            :        -124.19243553 Ha       -3379.44811513 eV
  | XC energy correction          :         -27.90390617 Ha        -759.30391993 eV
  | XC potential correction       :          35.66230403 Ha         970.42066725 eV
  | Free-atom electrostatic energy:        -107.54380842 Ha       -2926.41592151 eV
  | Hartree energy correction     :          -5.65051152 Ha        -153.75824172 eV
  | van der Waals energy corr.    :           0.00000000 Ha           0.00000000 eV
  | Entropy correction            :           0.00000000 Ha           0.00000000 eV
  | ---------------------------
  | Total energy                  :        -229.62835761 Ha       -6248.50553105 eV
  | Total energy, T -> 0          :        -229.62835761 Ha       -6248.50553105 eV  <-- do not rely on this value for anything but (periodic) metals
  | Electronic free energy        :        -229.62835761 Ha       -6248.50553105 eV

  Derived energy quantities:
  | Kinetic energy                :         228.84017890 Ha        6227.05809717 eV
  | Electrostatic energy          :        -430.56463034 Ha      -11716.25970829 eV
  | Energy correction for multipole
  | error in Hartree potential    :          -0.00431777 Ha          -0.11749237 eV
  | Sum of eigenvalues per atom                           :        -375.49423501 eV
  | Total energy (T->0) per atom                          :        -694.27839234 eV  <-- do not rely on this value for anything but (periodic) metals
  | Electronic free energy per atom                       :        -694.27839234 eV

  Self-consistency convergence accuracy:
  | Change of charge density      : 0.7124E-02
  | Change of sum of eigenvalues  : 0.2076E+01 eV
  | Change of total energy        : -.2581E-02 eV

  End self-consistency iteration #     6       :  max(cpu_time)    wall_clock(cpu1)
  | Time for this iteration                    :        0.634 s           0.633 s
  | Charge density update                      :        0.207 s           0.206 s
  | Density mixing                             :        0.006 s           0.007 s
  | Hartree multipole update                   :        0.004 s           0.003 s
  | Hartree multipole summation                :        0.119 s           0.119 s
  | Integration                                :        0.281 s           0.282 s
  | Solution of K.-S. eqns.                    :        0.016 s           0.016 s
  | Total energy evaluation                    :        0.000 s           0.000 s
------------------------------------------------------------

------------------------------------------------------------
          Begin self-consistency iteration #    7

  Date     :  20150727, Time     :  121333.649
------------------------------------------------------------
  Evaluating new KS density.
  Integration grid: deviation in total charge (<rho> - N_e) =  -2.486900E-14
  Pulay mixing of updated and previous charge densities.

  Evaluating partitioned Hartree potential by multipole expansion.
  | Analytical far-field extrapolation by fixed multipoles:
  | Hartree multipole sum: apparent total charge =  -0.301712E-05
  Summing up the Hartree potential.
  Time summed over all CPUs for potential: real work        0.941 s, elapsed        0.947 s
  | RMS charge density error from multipole expansion :   0.135016E-01

  Integrating Hamiltonian matrix: batch-based integration.
  Time summed over all CPUs for integration: real work        2.170 s, elapsed        2.238 s

  Updating Kohn-Sham eigenvalues, eigenvectors, occupation numbers, and Fermi level.
  Solving generalized eigenproblem
  Updating Kohn-Sham eigenvalues and eigenfunctions.
  Solving real generalised eigenvalue problem by standard LAPACK (fast)
  Determining occupation numbers for Kohn-Sham eigenstates.
  | Chemical potential (Fermi level) in eV                 : -.46225644E+01
  | Error in electron count due to remaining E_F inaccuracy: 0.00000000E+00
  | Maximum occupation number of highest empty state:  0.00E+00

  Highest occupied state (VBM) at     -5.85920676 eV
  | Occupation number:      2.00000000

  Lowest unoccupied state (CBM) at    -1.37089984 eV
  | Occupation number:      0.00000000

  Overall HOMO-LUMO gap:      4.48830692 eV.

  Total energy components:
  | Sum of eigenvalues            :        -124.30971875 Ha       -3382.63955401 eV
  | XC energy correction          :         -27.88984718 Ha        -758.92135514 eV
  | XC potential correction       :          35.64357423 Ha         969.91100344 eV
  | Free-atom electrostatic energy:        -107.54380842 Ha       -2926.41592151 eV
  | Hartree energy correction     :          -5.52844710 Ha        -150.43669963 eV
  | van der Waals energy corr.    :           0.00000000 Ha           0.00000000 eV
  | Entropy correction            :           0.00000000 Ha           0.00000000 eV
  | ---------------------------
  | Total energy                  :        -229.62824721 Ha       -6248.50252686 eV
  | Total energy, T -> 0          :        -229.62824721 Ha       -6248.50252686 eV  <-- do not rely on this value for anything but (periodic) metals
  | Electronic free energy        :        -229.62824721 Ha       -6248.50252686 eV

  Derived energy quantities:
  | Kinetic energy                :         228.87525572 Ha        6228.01258604 eV
  | Electrostatic energy          :        -430.61365576 Ha      -11717.59375776 eV
  | Energy correction for multipole
  | error in Hartree potential    :          -0.00409469 Ha          -0.11142221 eV
  | Sum of eigenvalues per atom                           :        -375.84883933 eV
  | Total energy (T->0) per atom                          :        -694.27805854 eV  <-- do not rely on this value for anything but (periodic) metals
  | Electronic free energy per atom                       :        -694.27805854 eV

  Self-consistency convergence accuracy:
  | Change of charge density      : 0.1002E-01
  | Change of sum of eigenvalues  : -.3191E+01 eV
  | Change of total energy        : 0.3004E-02 eV

  End self-consistency iteration #     7       :  max(cpu_time)    wall_clock(cpu1)
  | Time for this iteration                    :        0.633 s           0.633 s
  | Charge density update                      :        0.206 s           0.206 s
  | Density mixing                             :        0.007 s           0.007 s
  | Hartree multipole update                   :        0.004 s           0.004 s
  | Hartree multipole summation                :        0.119 s           0.119 s
  | Integration                                :        0.280 s           0.281 s
  | Solution of K.-S. eqns.                    :        0.016 s           0.016 s
  | Total energy evaluation                    :        0.001 s           0.000 s
------------------------------------------------------------

------------------------------------------------------------
          Begin self-consistency iteration #    8

  Date     :  20150727, Time     :  121334.282
------------------------------------------------------------
  Evaluating new KS density.
  Integration grid: deviation in total charge (<rho> - N_e) =  -1.776357E-14
  Pulay mixing of updated and previous charge densities.

  Evaluating partitioned Hartree potential by multipole expansion.
  | Analytical far-field extrapolation by fixed multipoles:
  | Hartree multipole sum: apparent total charge =  -0.301881E-05
  Summing up the Hartree potential.
  Time summed over all CPUs for potential: real work        0.941 s, elapsed        0.947 s
  | RMS charge density error from multipole expansion :   0.135185E-01

  Integrating Hamiltonian matrix: batch-based integration.
  Time summed over all CPUs for integration: real work        2.172 s, elapsed        2.254 s

  Updating Kohn-Sham eigenvalues, eigenvectors, occupation numbers, and Fermi level.
  Solving generalized eigenproblem
  Updating Kohn-Sham eigenvalues and eigenfunctions.
  Solving real generalised eigenvalue problem by standard LAPACK (fast)
  Determining occupation numbers for Kohn-Sham eigenstates.
  | Chemical potential (Fermi level) in eV                 : -.46199198E+01
  | Error in electron count due to remaining E_F inaccuracy: 0.00000000E+00
  | Maximum occupation number of highest empty state:  0.00E+00

  Highest occupied state (VBM) at     -5.85282630 eV
  | Occupation number:      2.00000000

  Lowest unoccupied state (CBM) at    -1.36964804 eV
  | Occupation number:      0.00000000

  Overall HOMO-LUMO gap:      4.48317827 eV.

  Total energy components:
  | Sum of eigenvalues            :        -124.30549854 Ha       -3382.52471616 eV
  | XC energy correction          :         -27.89035067 Ha        -758.93505586 eV
  | XC potential correction       :          35.64423289 Ha         969.92892639 eV
  | Free-atom electrostatic energy:        -107.54380842 Ha       -2926.41592151 eV
  | Hartree energy correction     :          -5.53282264 Ha        -150.55576431 eV
  | van der Waals energy corr.    :           0.00000000 Ha           0.00000000 eV
  | Entropy correction            :           0.00000000 Ha           0.00000000 eV
  | ---------------------------
  | Total energy                  :        -229.62824738 Ha       -6248.50253144 eV
  | Total energy, T -> 0          :        -229.62824738 Ha       -6248.50253144 eV  <-- do not rely on this value for anything but (periodic) metals
  | Electronic free energy        :        -229.62824738 Ha       -6248.50253144 eV

  Derived energy quantities:
  | Kinetic energy                :         228.87474521 Ha        6227.99869420 eV
  | Electrostatic energy          :        -430.61264192 Ha      -11717.56616978 eV
  | Energy correction for multipole
  | error in Hartree potential    :          -0.00410004 Ha          -0.11156786 eV
  | Sum of eigenvalues per atom                           :        -375.83607957 eV
  | Total energy (T->0) per atom                          :        -694.27805905 eV  <-- do not rely on this value for anything but (periodic) metals
  | Electronic free energy per atom                       :        -694.27805905 eV

  Self-consistency convergence accuracy:
  | Change of charge density      : 0.9916E-03
  | Change of sum of eigenvalues  : 0.1148E+00 eV
  | Change of total energy        : -.4581E-05 eV

  End self-consistency iteration #     8       :  max(cpu_time)    wall_clock(cpu1)
  | Time for this iteration                    :        0.636 s           0.636 s
  | Charge density update                      :        0.206 s           0.207 s
  | Density mixing                             :        0.008 s           0.008 s
  | Hartree multipole update                   :        0.004 s           0.003 s
  | Hartree multipole summation                :        0.119 s           0.119 s
  | Integration                                :        0.282 s           0.283 s
  | Solution of K.-S. eqns.                    :        0.016 s           0.016 s
  | Total energy evaluation                    :        0.000 s           0.000 s
------------------------------------------------------------

------------------------------------------------------------
          Begin self-consistency iteration #    9

  Date     :  20150727, Time     :  121334.918
------------------------------------------------------------
  Evaluating new KS density.
  Integration grid: deviation in total charge (<rho> - N_e) =  -3.197442E-14
  Pulay mixing of updated and previous charge densities.

  Evaluating partitioned Hartree potential by multipole expansion.
  | Analytical far-field extrapolation by fixed multipoles:
  | Hartree multipole sum: apparent total charge =  -0.301822E-05
  Summing up the Hartree potential.
  Time summed over all CPUs for potential: real work        0.941 s, elapsed        0.947 s
  | RMS charge density error from multipole expansion :   0.135229E-01

  Integrating Hamiltonian matrix: batch-based integration.
  Time summed over all CPUs for integration: real work        2.169 s, elapsed        2.254 s

  Updating Kohn-Sham eigenvalues, eigenvectors, occupation numbers, and Fermi level.
  Solving generalized eigenproblem
  Updating Kohn-Sham eigenvalues and eigenfunctions.
  Solving real generalised eigenvalue problem by standard LAPACK (fast)
  Determining occupation numbers for Kohn-Sham eigenstates.
  | Chemical potential (Fermi level) in eV                 : -.46189586E+01
  | Error in electron count due to remaining E_F inaccuracy: 0.00000000E+00
  | Maximum occupation number of highest empty state:  0.00E+00

  Highest occupied state (VBM) at     -5.85118041 eV
  | Occupation number:      2.00000000

  Lowest unoccupied state (CBM) at    -1.36932190 eV
  | Occupation number:      0.00000000

  Overall HOMO-LUMO gap:      4.48185851 eV.

  Total energy components:
  | Sum of eigenvalues            :        -124.30370697 Ha       -3382.47596508 eV
  | XC energy correction          :         -27.89052130 Ha        -758.93969901 eV
  | XC potential correction       :          35.64445588 Ha         969.93499416 eV
  | Free-atom electrostatic energy:        -107.54380842 Ha       -2926.41592151 eV
  | Hartree energy correction     :          -5.53466637 Ha        -150.60593470 eV
  | van der Waals energy corr.    :           0.00000000 Ha           0.00000000 eV
  | Entropy correction            :           0.00000000 Ha           0.00000000 eV
  | ---------------------------
  | Total energy                  :        -229.62824718 Ha       -6248.50252614 eV
  | Total energy, T -> 0          :        -229.62824718 Ha       -6248.50252614 eV  <-- do not rely on this value for anything but (periodic) metals
  | Electronic free energy        :        -229.62824718 Ha       -6248.50252614 eV

  Derived energy quantities:
  | Kinetic energy                :         228.87577632 Ha        6228.02675226 eV
  | Electrostatic energy          :        -430.61350220 Ha      -11717.58957938 eV
  | Energy correction for multipole
  | error in Hartree potential    :          -0.00409846 Ha          -0.11152485 eV
  | Sum of eigenvalues per atom                           :        -375.83066279 eV
  | Total energy (T->0) per atom                          :        -694.27805846 eV  <-- do not rely on this value for anything but (periodic) metals
  | Electronic free energy per atom                       :        -694.27805846 eV

  Self-consistency convergence accuracy:
  | Change of charge density      : 0.5871E-03
  | Change of sum of eigenvalues  : 0.4875E-01 eV
  | Change of total energy        : 0.5304E-05 eV

  End self-consistency iteration #     9       :  max(cpu_time)    wall_clock(cpu1)
  | Time for this iteration                    :        0.637 s           0.637 s
  | Charge density update                      :        0.207 s           0.207 s
  | Density mixing                             :        0.008 s           0.009 s
  | Hartree multipole update                   :        0.004 s           0.003 s
  | Hartree multipole summation                :        0.119 s           0.119 s
  | Integration                                :        0.283 s           0.283 s
  | Solution of K.-S. eqns.                    :        0.016 s           0.016 s
  | Total energy evaluation                    :        0.000 s           0.000 s
------------------------------------------------------------

------------------------------------------------------------
          Begin self-consistency iteration #   10

  Date     :  20150727, Time     :  121335.556
------------------------------------------------------------
  Evaluating new KS density.
  Integration grid: deviation in total charge (<rho> - N_e) =   7.105427E-15
  Pulay mixing of updated and previous charge densities.

  Evaluating partitioned Hartree potential by multipole expansion.
  | Analytical far-field extrapolation by fixed multipoles:
  | Hartree multipole sum: apparent total charge =  -0.301562E-05
  Summing up the Hartree potential.
  Time summed over all CPUs for potential: real work        0.941 s, elapsed        0.947 s
  | RMS charge density error from multipole expansion :   0.135257E-01

  Integrating Hamiltonian matrix: batch-based integration.
  Time summed over all CPUs for integration: real work        2.171 s, elapsed        2.257 s

  Updating Kohn-Sham eigenvalues, eigenvectors, occupation numbers, and Fermi level.
  Solving generalized eigenproblem
  Updating Kohn-Sham eigenvalues and eigenfunctions.
  Solving real generalised eigenvalue problem by standard LAPACK (fast)
  Determining occupation numbers for Kohn-Sham eigenstates.
  | Chemical potential (Fermi level) in eV                 : -.46188336E+01
  | Error in electron count due to remaining E_F inaccuracy: 0.00000000E+00
  | Maximum occupation number of highest empty state:  0.00E+00

  Highest occupied state (VBM) at     -5.85158446 eV
  | Occupation number:      2.00000000

  Lowest unoccupied state (CBM) at    -1.36910524 eV
  | Occupation number:      0.00000000

  Overall HOMO-LUMO gap:      4.48247922 eV.

  Total energy components:
  | Sum of eigenvalues            :        -124.30385738 Ha       -3382.48005795 eV
  | XC energy correction          :         -27.89044210 Ha        -758.93754393 eV
  | XC potential correction       :          35.64435009 Ha         969.93211567 eV
  | Free-atom electrostatic energy:        -107.54380842 Ha       -2926.41592151 eV
  | Hartree energy correction     :          -5.53448923 Ha        -150.60111447 eV
  | van der Waals energy corr.    :           0.00000000 Ha           0.00000000 eV
  | Entropy correction            :           0.00000000 Ha           0.00000000 eV
  | ---------------------------
  | Total energy                  :        -229.62824704 Ha       -6248.50252219 eV
  | Total energy, T -> 0          :        -229.62824704 Ha       -6248.50252219 eV  <-- do not rely on this value for anything but (periodic) metals
  | Electronic free energy        :        -229.62824704 Ha       -6248.50252219 eV

  Derived energy quantities:
  | Kinetic energy                :         228.87610722 Ha        6228.03575650 eV
  | Electrostatic energy          :        -430.61391216 Ha      -11717.60073477 eV
  | Energy correction for multipole
  | error in Hartree potential    :          -0.00409486 Ha          -0.11142693 eV
  | Sum of eigenvalues per atom                           :        -375.83111755 eV
  | Total energy (T->0) per atom                          :        -694.27805802 eV  <-- do not rely on this value for anything but (periodic) metals
  | Electronic free energy per atom                       :        -694.27805802 eV

  Self-consistency convergence accuracy:
  | Change of charge density      : 0.2780E-03
  | Change of sum of eigenvalues  : -.4093E-02 eV
  | Change of total energy        : 0.3947E-05 eV

[...]
  |   Hirshfeld volume        :     21.67486698
  |   Hirshfeld dipole vector :     -0.03023507       0.02176936       0.02212787
  |   Hirshfeld dipole moment :      0.04333252
  |   Hirshfeld second moments:      0.03131035       0.05811827      -0.00817439
  |                                  0.05811827       0.03426560       0.02651336
  |                                 -0.00817439       0.02651336       0.00671672
  ----------------------------------------------------------------------
  | Atom     5: H
  |   Hirshfeld charge        :      0.13515084
  |   Free atom volume        :     10.44207651
  |   Hirshfeld volume        :      6.84741016
  |   Hirshfeld dipole vector :      0.03893826       0.08992030       0.06118257
  |   Hirshfeld dipole moment :      0.11552123
  |   Hirshfeld second moments:      0.11555435       0.02196826      -0.00759422
  |                                  0.02196826       0.08758224      -0.00008765
  |                                 -0.00759422      -0.00008765       0.10152823
  ----------------------------------------------------------------------
  | Atom     6: H
  |   Hirshfeld charge        :      0.14501277
  |   Free atom volume        :     10.44207651
  |   Hirshfeld volume        :      6.40863523
  |   Hirshfeld dipole vector :     -0.10389440      -0.06414194       0.02299080
  |   Hirshfeld dipole moment :      0.12424497
  |   Hirshfeld second moments:      0.10434103       0.01314989       0.00060956
  |                                  0.01314989       0.11806073       0.01364549
  |                                  0.00060956       0.01364549       0.11114029
  ----------------------------------------------------------------------
  | Atom     7: O
  |   Hirshfeld charge        :     -0.28832288
  |   Free atom volume        :     23.95238533
  |   Hirshfeld volume        :     21.71034877
  |   Hirshfeld dipole vector :     -0.00325708       0.05064242      -0.00803846
  |   Hirshfeld dipole moment :      0.05137976
  |   Hirshfeld second moments:      0.00127301      -0.01663568      -0.06392417
  |                                 -0.01663568       0.01607302       0.00310245
  |                                 -0.06392417       0.00310245       0.04008786
  ----------------------------------------------------------------------
  | Atom     8: H
  |   Hirshfeld charge        :      0.14376158
  |   Free atom volume        :     10.44207651
  |   Hirshfeld volume        :      6.14080488
  |   Hirshfeld dipole vector :     -0.06366047       0.08673945       0.06684308
  |   Hirshfeld dipole moment :      0.12666643
  |   Hirshfeld second moments:      0.10985379       0.00267201      -0.01766580
  |                                  0.00267201       0.11439958      -0.00856099
  |                                 -0.01766580      -0.00856099       0.12424364
  ----------------------------------------------------------------------
  | Atom     9: H
  |   Hirshfeld charge        :      0.15154438
  |   Free atom volume        :     10.44207651
  |   Hirshfeld volume        :      6.15102465
  |   Hirshfeld dipole vector :      0.05918637       0.05313524      -0.09543172
  |   Hirshfeld dipole moment :      0.12423202
  |   Hirshfeld second moments:      0.11158269      -0.01137390      -0.01276965
  |                                 -0.01137390       0.12206106       0.00872602
  |                                 -0.01276965       0.00872602       0.11575407
  ----------------------------------------------------------------------


  Total energy components:
  | Sum of eigenvalues            :        -124.30315388 Ha       -3382.46091468 eV
  | XC energy correction          :         -27.89052338 Ha        -758.93975560 eV
  | XC potential correction       :          35.64445765 Ha         969.93504253 eV
  | Free-atom electrostatic energy:        -107.54380842 Ha       -2926.41592151 eV
  | Hartree energy correction     :          -5.53521905 Ha        -150.62097394 eV
  | van der Waals energy corr.    :          -0.00070413 Ha          -0.01916047 eV
  | Entropy correction            :           0.00000000 Ha           0.00000000 eV
  | ---------------------------
  | Total energy                  :        -229.62895121 Ha       -6248.52168366 eV
  | Total energy, T -> 0          :        -229.62895121 Ha       -6248.52168366 eV  <-- do not rely on this value for anything but (periodic) metals
  | Electronic free energy        :        -229.62895121 Ha       -6248.52168366 eV

  Derived energy quantities:
  | Kinetic energy                :         228.87612565 Ha        6228.03625780 eV
  | Electrostatic energy          :        -430.61384934 Ha      -11717.59902540 eV
  | Energy correction for multipole
  | error in Hartree potential    :          -0.00409524 Ha          -0.11143715 eV
  | Sum of eigenvalues per atom                           :        -375.82899052 eV
  | Total energy (T->0) per atom                          :        -694.28018707 eV  <-- do not rely on this value for anything but (periodic) metals
  | Electronic free energy per atom                       :        -694.28018707 eV

  atomic forces [eV/Ang]:
  -----------------------
  atom #    1
   Hellmann-Feynman + Multipole  : -.762364E+01 -.118707E+02 0.387721E+01
   Pulay + GGA                   : 0.756550E+01 0.156846E+02 -.601374E+01
   Van der Waals               : 0.372312E-03 0.707021E-03 -.368960E-02
   ----------------------------------------------------------------
   Total forces(   1)            : -.577712E-01 0.381459E+01 -.214022E+01
  atom #    2
   Hellmann-Feynman + Multipole  : 0.230587E+01 -.355098E+01 0.153963E+01
   Pulay + GGA                   : -.347795E-01 0.114135E+00 -.631800E-01
   Van der Waals               : -.422100E-03 0.721491E-03 0.166992E-02
   ----------------------------------------------------------------
   Total forces(   2)            : 0.227067E+01 -.343613E+01 0.147812E+01
  atom #    3
   Hellmann-Feynman + Multipole  : -.217718E+01 -.325612E+00 -.187695E+00
   Pulay + GGA                   : 0.138328E+00 0.513555E-01 -.256840E-02
   Van der Waals               : 0.728800E-03 0.907047E-03 -.812700E-03
   ----------------------------------------------------------------
   Total forces(   3)            : -.203812E+01 -.273350E+00 -.191076E+00
  atom #    4
   Hellmann-Feynman + Multipole  : 0.832953E+01 -.506296E+01 -.149945E+02
   Pulay + GGA                   : -.870573E+01 0.362899E+01 0.145628E+02
   Van der Waals               : -.309174E-02 0.113800E-02 0.628402E-02
   ----------------------------------------------------------------
   Total forces(   4)            : -.379300E+00 -.143283E+01 -.425427E+00
  atom #    5
   Hellmann-Feynman + Multipole  : -.454838E+00 0.458211E+00 0.848581E+00
   Pulay + GGA                   : 0.402959E-01 0.845669E-01 0.109266E+00
   Van der Waals               : -.717063E-03 0.372029E-02 -.688731E-03
   ----------------------------------------------------------------
   Total forces(   5)            : -.415259E+00 0.546498E+00 0.957158E+00
  atom #    6
   Hellmann-Feynman + Multipole  : 0.724691E+00 0.865747E+00 0.255866E+00
   Pulay + GGA                   : -.116668E+00 -.614550E-01 0.591816E-01
   Van der Waals               : 0.553947E-03 0.132016E-02 -.117114E-02
   ----------------------------------------------------------------
   Total forces(   6)            : 0.608576E+00 0.805612E+00 0.313876E+00
  atom #    7
   Hellmann-Feynman + Multipole  : 0.113266E+01 -.162364E+02 0.213604E+01
   Pulay + GGA                   : 0.196157E+00 0.163615E+02 -.397409E+01
   Van der Waals               : 0.191941E-02 -.587678E-02 -.112702E-02
   ----------------------------------------------------------------
   Total forces(   7)            : 0.133074E+01 0.119224E+00 -.183917E+01
  atom #    8
   Hellmann-Feynman + Multipole  : -.235038E+00 0.550074E+00 0.189720E+00
   Pulay + GGA                   : -.752254E-01 0.101834E+00 0.859808E-01
   Van der Waals               : 0.236058E-03 -.703004E-03 -.144358E-03
   ----------------------------------------------------------------
   Total forces(   8)            : -.310027E+00 0.651204E+00 0.275557E+00
  atom #    9
   Hellmann-Feynman + Multipole  : -.106088E+01 -.855789E+00 0.168387E+01
   Pulay + GGA                   : 0.589126E-01 0.705501E-01 -.115381E+00
   Van der Waals               : 0.420375E-03 -.193422E-02 -.320400E-03
   ----------------------------------------------------------------
   Total forces(   9)            : -.100155E+01 -.787173E+00 0.156817E+01
  Timings for vdw_correction_hirshfeld (Tkatchenko-Scheffler 2009):
  | CPU time:        1.675 s, Wall clock time:        1.674 s.
  Removing unitary transformations (pure translations, rotations) from forces on atoms.
  Atomic forces before filtering:
  | Net force on center of mass :  0.795944E-02 0.764929E-02 -.300251E-02 eV/A
  | Net torque on center of mass:  0.419510E-02 -.245117E-02 -.714842E-03 eV
  Atomic forces after filtering:
  | Net force on center of mass :  0.178406E-15 -.178406E-15 0.178406E-15 eV/A
  | Net torque on center of mass:  -.424838E-15 0.141613E-14 -.264344E-14 eV
 
  Energy and forces in a compact form:
  | Total energy uncorrected      :         -0.624852168366477E+04 eV
  | Total energy corrected        :         -0.624852168366477E+04 eV  <-- do not rely on this value for anything but (periodic) metals
  | Electronic free energy        :         -0.624852168366477E+04 eV
  Total atomic forces (unitary forces cleaned) [eV/Ang]:
  |   1         -0.588648778588188E-01          0.381357008159656E+01         -0.213983309680183E+01
  |   2          0.226943047857383E+01         -0.343723826794597E+01          0.147848461238486E+01
  |   3         -0.203923147278927E+01         -0.274281929184159E+00         -0.190903889483243E+00
  |   4         -0.379922545469532E+00         -0.143358401385697E+01         -0.424907477416877E+00
  |   5         -0.415841515538045E+00          0.545837127172962E+00          0.957543341713901E+00
  |   6          0.608044714952513E+00          0.804828145869448E+00          0.314601955112818E+00
  |   7          0.132986425577609E+01          0.118440719811264E+00         -0.183896815419423E+01
  |   8         -0.310876473979098E+00          0.650442743507438E+00          0.275753695602241E+00
  |   9         -0.100260256366766E+01         -0.788014606970567E+00          0.156822901308236E+01
 
  ------------------------------------ 
  Start decomposition of the XC Energy 
  ------------------------------------ 
  Hartree-Fock part   :          0.000000000 Ha              0.000000000 eV
  ------------------------------------ 
  X Energy            :        -26.919975598 Ha           -732.529806722 eV
  C Energy GGA        :         -0.970547782 Ha            -26.409948875 eV
  Total XC Energy     :        -27.890523380 Ha           -758.939755597 eV
  LDA X and C from self-consistent density 
  X Energy LDA        :        -24.233586957 Ha           -659.429452505 eV
  C Energy LDA        :         -1.973961594 Ha            -53.714227926 eV
  ------------------------------------ 
  End decomposition of the XC Energy 
  ------------------------------------ 
  Performing Hirshfeld analysis of fragment charges and moments.
  ----------------------------------------------------------------------
  | Atom     1: O
  |   Hirshfeld charge        :     -0.27282817
  |   Free atom volume        :     23.95238533
  |   Hirshfeld volume        :     22.43199131
  |   Hirshfeld dipole vector :      0.01837765       0.03648635       0.02468622
  |   Hirshfeld dipole moment :      0.04773261
  |   Hirshfeld second moments:      0.05666695      -0.01921376       0.02004330
  |                                 -0.01921376      -0.00129002      -0.03361340
  |                                  0.02004330      -0.03361340      -0.04941267
  ----------------------------------------------------------------------
  | Atom     2: H
  |   Hirshfeld charge        :      0.13863374
  |   Free atom volume        :     10.44207651
  |   Hirshfeld volume        :      6.68170209
  |   Hirshfeld dipole vector :     -0.06409490       0.09270266      -0.03290778
  |   Hirshfeld dipole moment :      0.11740894
  |   Hirshfeld second moments:      0.12353875       0.00746420       0.00687551
  |                                  0.00746420       0.09538802      -0.00616726
  |                                  0.00687551      -0.00616726       0.08977466
  ----------------------------------------------------------------------
  | Atom     3: H
  |   Hirshfeld charge        :      0.13222900
  |   Free atom volume        :     10.44207651
  |   Hirshfeld volume        :      6.66089282
  |   Hirshfeld dipole vector :      0.11815184       0.02352090       0.01857902
  |   Hirshfeld dipole moment :      0.12189450
  |   Hirshfeld second moments:      0.11019372      -0.01010961       0.00235671
  |                                 -0.01010961       0.11151573      -0.00848140
  |                                  0.00235671      -0.00848140       0.09007218
  ----------------------------------------------------------------------
  | Atom     4: O
  |   Hirshfeld charge        :     -0.28524522
  |   Free atom volume        :     23.95238533
  |   Hirshfeld volume        :     21.67486698
  |   Hirshfeld dipole vector :     -0.03023507       0.02176936       0.02212787
  |   Hirshfeld dipole moment :      0.04333252
  |   Hirshfeld second moments:      0.03131035       0.05811827      -0.00817439
  |                                  0.05811827       0.03426560       0.02651336
  |                                 -0.00817439       0.02651336       0.00671672
  ----------------------------------------------------------------------
  | Atom     5: H
  |   Hirshfeld charge        :      0.13515084
  |   Free atom volume        :     10.44207651
  |   Hirshfeld volume        :      6.84741016
  |   Hirshfeld dipole vector :      0.03893826       0.08992030       0.06118257
  |   Hirshfeld dipole moment :      0.11552123
  |   Hirshfeld second moments:      0.11555435       0.02196826      -0.00759422
  |                                  0.02196826       0.08758224      -0.00008765
  |                                 -0.00759422      -0.00008765       0.10152823
  ----------------------------------------------------------------------
  | Atom     6: H
  |   Hirshfeld charge        :      0.14501277
  |   Free atom volume        :     10.44207651
  |   Hirshfeld volume        :      6.40863523
  |   Hirshfeld dipole vector :     -0.10389440      -0.06414194       0.02299080
  |   Hirshfeld dipole moment :      0.12424497
  |   Hirshfeld second moments:      0.10434103       0.01314989       0.00060956
  |                                  0.01314989       0.11806073       0.01364549
  |                                  0.00060956       0.01364549       0.11114029
  ----------------------------------------------------------------------
  | Atom     7: O
  |   Hirshfeld charge        :     -0.28832288
  |   Free atom volume        :     23.95238533
  |   Hirshfeld volume        :     21.71034877
  |   Hirshfeld dipole vector :     -0.00325708       0.05064242      -0.00803846
  |   Hirshfeld dipole moment :      0.05137976
  |   Hirshfeld second moments:      0.00127301      -0.01663568      -0.06392417
  |                                 -0.01663568       0.01607302       0.00310245
  |                                 -0.06392417       0.00310245       0.04008786
  ----------------------------------------------------------------------
  | Atom     8: H
  |   Hirshfeld charge        :      0.14376158
  |   Free atom volume        :     10.44207651
  |   Hirshfeld volume        :      6.14080488
  |   Hirshfeld dipole vector :     -0.06366047       0.08673945       0.06684308
  |   Hirshfeld dipole moment :      0.12666643
  |   Hirshfeld second moments:      0.10985379       0.00267201      -0.01766580
  |                                  0.00267201       0.11439958      -0.00856099
  |                                 -0.01766580      -0.00856099       0.12424364
  ----------------------------------------------------------------------
  | Atom     9: H
  |   Hirshfeld charge        :      0.15154438
  |   Free atom volume        :     10.44207651
  |   Hirshfeld volume        :      6.15102465
  |   Hirshfeld dipole vector :      0.05918637       0.05313524      -0.09543172
  |   Hirshfeld dipole moment :      0.12423202
  |   Hirshfeld second moments:      0.11158269      -0.01137390      -0.01276965
  |                                 -0.01137390       0.12206106       0.00872602
  |                                 -0.01276965       0.00872602       0.11575407
  ----------------------------------------------------------------------


------------------------------------------------------------------------------
  Final output of selected total energy values:

  The following output summarizes some interesting total energy values
  at the end of a run (AFTER all relaxation, molecular dynamics, etc.).

  | Total energy of the DFT / Hartree-Fock s.c.f. calculation      :          -6248.521683665 eV
  | Final zero-broadening corrected energy (caution - metals only) :          -6248.521683665 eV
  | For reference only, the value of 1 Hartree used in FHI-aims is :             27.211384500 eV

  Before relying on these values, please be sure to understand exactly which
  total energy value is referred to by a given number. Different objects may
  all carry the same name 'total energy'. Definitions:

  Total energy of the DFT / Hartree-Fock s.c.f. calculation:
  | Note that this energy does not include ANY quantities calculated after the
  | s.c.f. cycle, in particular not ANY RPA, MP2, etc. many-body perturbation terms.

  Final zero-broadening corrected energy:
  | For metallic systems only, a broadening of the occupation numbers at the Fermi
  | level can be extrapolated back to zero broadening by an electron-gas inspired
  | formula. For all systems that are not real metals, this value can be
  | meaningless and should be avoided.

------------------------------------------------------------------------------

------------------------------------------------------------
          Leaving FHI-aims.
          Date     :  20150727, Time     :  121340.038

          Computational steps:
          | Number of self-consistency cycles          :           14

          Detailed time accounting                     :  max(cpu_time)    wall_clock(cpu1)
          | Total time                                 :       11.465 s          11.489 s
          | Preparation time                           :        0.172 s           0.595 s
          | Grid partitioning                          :        0.089 s           0.088 s
          | Preloading free-atom quantities on grid    :        0.014 s           0.013 s
          | Free-atom superposition energy             :        0.030 s           0.030 s
          | Total time for integrations                :        4.375 s           4.381 s
          | Total time for solution of K.-S. equations :        0.290 s           0.289 s
          | Total time for density & force components  :        3.733 s           3.736 s
          | Total time for mixing                      :        0.099 s           0.102 s
          | Total time for Hartree multipole update    :        0.054 s           0.049 s
          | Total time for Hartree multipole sum       :        2.058 s           2.058 s
          | Total time for total energy evaluation     :        0.002 s           0.005 s
          | Total time for scaled ZORA corrections     :        0.000 s           0.000 s
          | Total time for TS (2009) vdW correction    :        0.021 s           0.021 s

          Have a nice day.
------------------------------------------------------------
