begin 
comment This RuNNer input has been created automatically by fhiaims2runner 
comment relativistic  atomic zora scalar 
atom    -7.659119727    0.122834137   -2.882135845   O   -0.354482620    0.000000000   -0.032231336    0.066742302   -0.025551451 
atom    -8.629834630    1.842130327   -3.614707366   H    0.121743500    0.000000000    0.042439635   -0.069299381    0.029271840 
atom    -5.797341910    0.623934903   -2.791712414   H    0.059898650    0.000000000   -0.031972767   -0.005238849   -0.005252146 
atom    -3.110225879    1.644400645   -2.838842202   O   -0.180787160    0.000000000    0.054169293    0.005879516    0.030145921 
atom    -2.964773601    2.837859544   -1.362589455   H    0.175090510    0.000000000   -0.002679071   -0.017015070   -0.022499644 
atom    -1.557951309    0.533318719   -2.603514514   H    0.178575590    0.000000000   -0.029725754    0.018931482   -0.006114519 
energy   -153.08680950 
charge      0.00000000 
end 
