  MPI-parallelism will be employed.
------------------------------------------------------------
          Invoking FHI-aims ...
          Version 081213
          Compiled on 2013/08/29 at 17:41:06 on host generoso.

          When using FHI-aims, please cite the following reference:

          Volker Blum, Ralf Gehrke, Felix Hanke, Paula Havu,
          Ville Havu, Xinguo Ren, Karsten Reuter, and Matthias Scheffler,
          'Ab Initio Molecular Simulations with Numeric Atom-Centered Orbitals: FHI-aims',
          Computer Physics Communications 180, 2175-2196 (2009)

          For any questions about FHI-aims, please visit the aimsclub website
          with its forums and wiki. Contributions to both the forums and the
          wiki are warmly encouraged - they are for you, and everyone is welcome there.

------------------------------------------------------------

  Date     :  20150727, Time     :  115846.851
  Time zero on CPU 1             :   0.439920000000000E-01  s.
  Internal wall clock time zero  :           207230326.851  s.

  Using        8 parallel tasks.
  Task        0 on host gen60 reporting.
  Task        1 on host gen60 reporting.
  Task        2 on host gen60 reporting.
  Task        3 on host gen60 reporting.
  Task        4 on host gen60 reporting.
  Task        5 on host gen60 reporting.
  Task        6 on host gen60 reporting.
  Task        7 on host gen60 reporting.

  Performing system and environment tests:
  | Environment variable OMP_NUM_THREADS correctly set to 1.
  | Checking for scalapack...
  | No scalapack compiled in.

  Obtaining array dimensions for all initial allocations:
  
  -----------------------------------------------------------------------
  Parsing control.in (first pass over file, find array dimensions only).
  The contents of control.in will be repeated verbatim below
  unless switched off by setting 'verbatim_writeout .false.' .
  in the first line of control.in .
  -----------------------------------------------------------------------
  
  #########################################################################################
  #
  #  Volker Blum, FHI 2008 : Test run input file control.in
  #
  #########################################################################################
  #
  #  Physical model
  #
    xc                 rpbe
    spin               none
    relativistic       atomic_zora scalar
    charge             0.
   vdw_correction_hirshfeld
  #
  #  SCF convergence
  #
    occupation_type    gaussian 0.01
    mixer              pulay
      n_max_pulay        10
      charge_mix_param   0.1
    sc_accuracy_rho    5E-5
    sc_accuracy_eev    5E-3
    sc_accuracy_etot   5E-6
    sc_iter_limit      3000
  #
  #  Eigenvalue solver
  #
    KS_method          lapack
      empty_states       8
      basis_threshold    0.e-5
  #
  #  Efficiency
  #
  #   all previous settings are now default, except stratmann still
  #   undecided. Continue to handle stratmann with care, if at all.
  #
  #  partition_type stratmann
    partition_type rho_r2
  #  hartree_partition_type stratmann
  #
  #  Oprions for large clusters (100's of atoms: memory saving / better scaling)
  #
  # for periodic systems:
  #
    density_update_method orbital
    packed_matrix_format none
  #  k_grid 6 6 6
  #  output k_eigenvalue 1
  #  distributed_spline_storage .true.
  #
  #  Relaxation
  #
  #  relax_geometry   bfgs 5.e-3
    sc_accuracy_forces 5.E-4
    final_forces_cleaned .true.
  #
  #  Output options
  #
  #  output mulliken
    output Hirshfeld
  #  output dipole
  
  #harmonic_length_scale 0.001
  
  ################################################################################
  #
  #  FHI-aims code project
  #  VB, Fritz-Haber Institut, 2007
  #
  #  Suggested "safe" defaults for H atom (to be pasted into control.in file)
  #  Basis constructed for a non-relativistic H2 molecule using the
  #  PW-LDA functional.
  #
  ################################################################################
    species        H
  #     global species definitions
      nucleus             1
      cut_pot             4.0  2.0  1.0
      cut_free_atom       finite 8.0
      logarithmic         0.00010000 100.00  1.0123
      basis_dep_cutoff    1d-4  # 1d-4 is safe default - please check 5d-4 if you wish!
      radial_base         24 7.0
      radial_multiplier   2
      angular_grids       specified
        division   0.2783  110
        division   0.3822  194
        division   0.5626  302
  #      division   0.5922  434
  #      division   0.6227  590
  #      division   0.7206  770
        outer_grid  302
      l_hartree           4
  ################################################################################
  #
  #  Definition of "minimal" basis
  #
  ################################################################################
  #     valence basis states
      valence      1  s   1.
  #     ion occupancy
      ion_occ      1  s   0.5
  ################################################################################
  #
  #  Suggested additional basis functions. For production calculations,
  #  uncomment them one after another (the most important basis functions are
  #  listed first).
  #
  ################################################################################
  #  "First tier" - improvements: -1014.90 meV to -62.69 meV
       hydro 2 s 2.1
       hydro 2 p 3.5
  #  "Second tier" - improvements: -12.89 meV to -1.83 meV
       hydro 1 s 0.85
       hydro 2 p 3.7
       hydro 2 s 1.2
       hydro 3 d 7
  #  "Third tier" - improvements: -0.25 meV to -0.12 meV
  #     hydro 4 f 11.2
  #     hydro 3 p 4.8
  #     hydro 4 d 9
  #     hydro 3 s 3.2
  
  ################################################################################
  #
  #  FHI-aims code project
  #  VB, Fritz-Haber Institut, 2007
  #
  #  Suggested "safe" defaults for O atom (to be pasted into control.in file)
  #  All values have been tested for a non-relativistic, non-spinpolarized O2
  #  molecule using the PW-LDA functional. Validity for PBE is expected.
  #
  #  Constructed for dimers: 1.0 A, 1.208 A, 1.5 A, 2.0 A, 3.0 A
  #
  ################################################################################
    species        O
  #     global species definitions
      nucleus             8
      mass                15.9994
      l_hartree           4
      cut_pot             4.0  2.0  1.0
      cut_free_atom       finite 8.0
      basis_dep_cutoff    1d-4  # 1d-4 is safe default - please check 5d-4 if you wish!
      logarithmic         0.00010000 100.00  1.0123
      radial_base         36 7.0
      radial_multiplier   2
       angular_grids specified
        division   0.4087  110
        division   0.5181  194
        division   0.6184  302
  #      division   0.7315  434
  #      division   0.7934  590
  #      division   0.9656  770
  #      division   1.4041  974
  #      outer_grid 974
        outer_grid 302
  ################################################################################
  #
  #  Definition of "minimal" basis
  #
  ################################################################################
  #     valence basis states
      valence      2  s   2.
      valence      2  p   4.
  #     ion occupancy
      ion_occ      2  s   1.
      ion_occ      2  p   3.
  ################################################################################
  #
  #  Suggested additional basis functions. For production calculations,
  #  uncomment them one after another (the most important basis functions are
  #  listed first).
  #
  ################################################################################
  #  "First tier" - improvements: -699.05 meV to -159.38 meV
       hydro 2 p 1.8
       hydro 3 d 7.6
       hydro 3 s 6.4
  #  "Second tier" - improvements: -49.91 meV to -5.39 meV
       hydro 4 f 11.6
       hydro 3 p 6.2
       hydro 3 d 5.6
       hydro 5 g 17.6
       hydro 1 s 0.75
  #  "Third tier" - improvements: -2.83 meV to -0.50 meV
  #     ionic 2 p auto
  #     hydro 4 f 10.8
  #     hydro 4 d 4.7
  #     hydro 2 s 6.8
  #  "Fourth tier" - improvements: -0.40 meV to -0.12 meV
  #     hydro 3 p 5
  #     hydro 3 s 3.3
  #     hydro 5 g 15.6
  #     hydro 4 f 17.6
  #     hydro 4 d 14
  # Further basis functions - -0.08 meV and below
  #     hydro 3 s 2.1
  #     hydro 4 d 11.6
  #     hydro 3 p 16
  #     hydro 2 s 17.2
  
  
  -----------------------------------------------------------------------
  Completed first pass over input file control.in .
  -----------------------------------------------------------------------
  
  
  -----------------------------------------------------------------------
  Parsing geometry.in (first pass over file, find array dimensions only).
  The contents of geometry.in will be repeated verbatim below
  unless switched off by setting 'verbatim_writeout .false.' .
  in the first line of geometry.in .
  -----------------------------------------------------------------------
  
  atom      -4.053030000      0.065001000     -1.525160000  O
  atom      -4.566710000      0.974813000     -1.912820000  H
  atom      -3.067820000      0.330172000     -1.477310000  H
  atom      -4.581760000     -0.256435000      0.939478000  O
  atom      -4.349860000      0.471090000      1.504340000  H
  atom      -5.393870000     -0.726611000      1.228070000  H
  atom      -1.645860000      0.870179000     -1.502250000  O
  atom      -1.568890000      1.501730000     -0.721051000  H
  atom      -0.824432000      0.282220000     -1.377720000  H
  atom      -3.818880000      2.024990000      2.187990000  O
  atom      -3.690880000      1.961360000      3.202150000  H
  atom      -4.546490000      2.751300000      2.045370000  H
  atom      -1.975360000      2.858040000      0.453140000  O
  atom      -1.223550000      3.375850000      0.786238000  H
  atom      -2.537520000      2.567960000      1.156120000  H
  atom      -5.628340000      3.730740000      1.385610000  O
  atom      -6.090650000      4.418470000      1.860350000  H
  atom      -5.158540000      4.200260000      0.615875000  H
  
  -----------------------------------------------------------------------
  Completed first pass over input file geometry.in .
  -----------------------------------------------------------------------
  
 
  Basic array size parameters: 
  | Number of species                 :        2
  | Number of atoms                   :       18
  | Max. basis fn. angular momentum   :        4
  | Max. atomic/ionic basis occupied n:        2
  | Max. number of basis fn. types    :        2
  | Max. radial fns per species/type  :        8
  | Max. logarithmic grid size        :     1301
  | Max. radial integration grid size :       73
  | Max. angular integration grid size:      302
  | Max. angular grid division number :        8
  | Radial grid for Hartree potential :     1301
  | Number of spin channels           :        1

------------------------------------------------------------
          Reading file control.in.
------------------------------------------------------------
  XC: Using RPBE gradient-corrected functionals.
  Spin treatment: No spin polarisation.
  Scalar relativistic treatment of kinetic energy: on-site free-atom approximation to ZORA.
  Charge =   0.000000E+00: Neutral system requested explicitly.
  Using non-empirical van der Waals correction (Hirshfeld partitioning):
  Occupation type: Gaussian broadening, width =   0.100000E-01 eV.
  Using pulay charge density mixing.
  Pulay mixing - number of memorized iterations:   10
  Charge density mixing - mixing parameter:     0.1000
  Convergence accuracy of self-consistent charge density: 0.5000E-04
  Convergence accuracy of sum of eigenvalues: 0.5000E-02
  Convergence accuracy of total energy: 0.5000E-05
  Maximum number of s.-c. iterations  :  3000
  Kohn-Sham eigenvalues and eigenfunctions calculated by lapack diagonalisation (D&C).
  Number of empty states per atom:        8
  Threshold for basis singularities: 0.0000E+00
  Partition function in integrals calculations: rho / r^2
 Using packed matrix format           0
  Convergence accuracy of forces: 0.5000E-03
  Cleaning forces before final output.
  Hirshfeld charge analysis will be performed.
 
  Reading configuration options for species H                   .
  | Found nuclear charge :   1.0000
  | Found cutoff potl. onset [A], width [A], scale factor :    4.00000    2.00000    1.00000
  | Found cutoff specification for free atom: Cutoff potential begins at    8.00000 A.
  | Found logarithmic grid data [bohr] : 0.1000E-03 0.1000E+03 0.1012E+01
  | Threshold for basis-dependent cutoff potential is   0.100000E-03
  | Found data for basic radial integration grid :    24 points, outermost radius =    7.000 A
  | Found multiplier for basic radial grid :   2
  | Found angular grid specification: user-specified.
  | Specified grid contains     4 separate shells.
  | Check grid settings after all constraints further below.
  | Found l_max for Hartree potential  :   4
  | Found free-atom valence shell :  1 s   1.000
  | No ionic wave fns used. Skipping ion_occ.
  | Found hydrogenic basis function :  2 s   2.100
  | Found hydrogenic basis function :  2 p   3.500
  | Found hydrogenic basis function :  1 s   0.850
  | Found hydrogenic basis function :  2 p   3.700
  | Found hydrogenic basis function :  2 s   1.200
  | Found hydrogenic basis function :  3 d   7.000
  Species H                   : Missing cutoff potential type.
  Defaulting to exp(1/x)/(1-x)^2 type cutoff potential.
  Species H : On-site basis accuracy parameter (for Gram-Schmidt orthonormalisation) not specified.
  Using default value basis_acc =  0.1000000E-03.
  Species H                   : Using default innermost maximum threshold i_radial=  2 for radial functions.
  Species H                   : Basic radial grid will be enhanced according to radial_multiplier =   2, to contain    49 grid points.
 
  Reading configuration options for species O                   .
  | Found nuclear charge :   8.0000
  | Found atomic mass :    15.9994000000000      amu
  | Found l_max for Hartree potential  :   4
  | Found cutoff potl. onset [A], width [A], scale factor :    4.00000    2.00000    1.00000
  | Found cutoff specification for free atom: Cutoff potential begins at    8.00000 A.
  | Threshold for basis-dependent cutoff potential is   0.100000E-03
  | Found logarithmic grid data [bohr] : 0.1000E-03 0.1000E+03 0.1012E+01
  | Found data for basic radial integration grid :    36 points, outermost radius =    7.000 A
  | Found multiplier for basic radial grid :   2
  | Found angular grid specification: user-specified.
  | Specified grid contains     4 separate shells.
  | Check grid settings after all constraints further below.
  | Found free-atom valence shell :  2 s   2.000
  | Found free-atom valence shell :  2 p   4.000
  | No ionic wave fns used. Skipping ion_occ.
  | No ionic wave fns used. Skipping ion_occ.
  | Found hydrogenic basis function :  2 p   1.800
  | Found hydrogenic basis function :  3 d   7.600
  | Found hydrogenic basis function :  3 s   6.400
  | Found hydrogenic basis function :  4 f  11.600
  | Found hydrogenic basis function :  3 p   6.200
  | Found hydrogenic basis function :  3 d   5.600
  | Found hydrogenic basis function :  5 g  17.600
  | Found hydrogenic basis function :  1 s   0.750
  Species O                   : Missing cutoff potential type.
  Defaulting to exp(1/x)/(1-x)^2 type cutoff potential.
  Species O : On-site basis accuracy parameter (for Gram-Schmidt orthonormalisation) not specified.
  Using default value basis_acc =  0.1000000E-03.
  Species O                   : Using default innermost maximum threshold i_radial=  2 for radial functions.
  Species O                   : Basic radial grid will be enhanced according to radial_multiplier =   2, to contain    73 grid points.
 
  Finished reading input file 'control.in'. Consistency checks are next.
 
  Target number of points in a grid batch is not set. Defaulting to  100
  Method for grid partitioning is not set. Defaulting to parallel hash+maxmin partitioning.
  Batch size limit is not set. Defaulting to    200
  By default, will store active basis functions for each batch.
  If in need of memory, prune_basis_once .false. can be used to disable this option.
  communication_type for Hartree potential was not specified.
  Defaulting to calc_hartree .
  Pulay mixer: Number of initial linear mixing iterations not set.
  Defaulting to    0 iterations.
  Work space size for distributed Hartree potential not set.
  Defaulting to   0.200000E+03 MB.
  Algorithm-dependent basis array size parameters:
  | n_max_pulay                         :       10
  Geometry relaxation not requested: no relaxation will be performed.
  Handling of forces: Unphysical translation and rotation will be removed from forces.
  No accuracy limit for integral partition fn. given. Defaulting to 0.1000E-14.
  No threshold value for u(r) in integrations given. Defaulting to 0.1000E-05.
  No accuracy for occupation numbers given. Defaulting to 0.1000E-07.
  No threshold value for occupation numbers given. Defaulting to 0.0000E+00.
  No accuracy for fermi level given. Defaulting to 0.1000E-19.
  Maximum # of iterations to find E_F not set. Defaulting to  200.
  Will not use alltoall communication since running on < 1024 CPUs.
  Partitioning for Hartree potential was not defined. Using partition_type for integrals.
  | Reporting present value of keyword multip_moments_threshold  :       0.10000000E-09
  | This value may affect high angular momentum components of the Hartree potential in periodic systems.
  No q(lm)/r^(l+1) cutoff set for long-range Hartree potential.
  | Using default value of  0.100000E-09 .
  | Verify using the multipole_threshold keyword.
  Defaulting to new monopole extrapolation.
  Density update method: Loop over occupied states selected for charge density update.
------------------------------------------------------------


------------------------------------------------------------
          Reading geometry description geometry.in.
------------------------------------------------------------
  Input structure read successfully.
  The structure contains       18 atoms,  and a total of         60.000 electrons.

  Input geometry:
  | No unit cell requested.
  | Atomic structure:
  |       Atom                x [A]            y [A]            z [A]
  |    1: Species O             -4.053030         0.065001        -1.525160
  |    2: Species H             -4.566710         0.974813        -1.912820
  |    3: Species H             -3.067820         0.330172        -1.477310
  |    4: Species O             -4.581760        -0.256435         0.939478
  |    5: Species H             -4.349860         0.471090         1.504340
  |    6: Species H             -5.393870        -0.726611         1.228070
  |    7: Species O             -1.645860         0.870179        -1.502250
  |    8: Species H             -1.568890         1.501730        -0.721051
  |    9: Species H             -0.824432         0.282220        -1.377720
  |   10: Species O             -3.818880         2.024990         2.187990
  |   11: Species H             -3.690880         1.961360         3.202150
  |   12: Species H             -4.546490         2.751300         2.045370
  |   13: Species O             -1.975360         2.858040         0.453140
  |   14: Species H             -1.223550         3.375850         0.786238
  |   15: Species H             -2.537520         2.567960         1.156120
  |   16: Species O             -5.628340         3.730740         1.385610
  |   17: Species H             -6.090650         4.418470         1.860350
  |   18: Species H             -5.158540         4.200260         0.615875
  |

  | The smallest distance between any two atoms is         0.94570141 AA.
  |
  | The first atom of this pair is atom number                     13 .
  | The second atom of this pair is atom number                    15 .

  Structure-dependent array size parameters: 
  | Maximum number of distinct radial functions  :       18
  | Maximum number of basis functions            :      414
  | Number of Kohn-Sham states (occupied + empty):      102
------------------------------------------------------------

------------------------------------------------------------
          Preparing all fixed parts of the calculation.
------------------------------------------------------------
  Determining machine precision:
    2.225073858507201E-308
  Setting up grids for atomic and cluster calculations.

  Creating wave function, potential, and density for free atoms.

  Species: H

  List of occupied orbitals and eigenvalues:
    n    l              occ      energy [Ha]    energy [eV]
    1    0           1.0000        -0.241408        -6.5691


  Species: O

  List of occupied orbitals and eigenvalues:
    n    l              occ      energy [Ha]    energy [eV]
    1    0           2.0000       -18.944147      -515.4965
    2    0           2.0000        -0.883529       -24.0421
    2    1           4.0000        -0.330176        -8.9845

  Creating fixed part of basis set: Ionic, confined, hydrogenic.
 
  H                    hydrogenic:
 
  List of hydrogenic basis orbitals: 
    n    l      effective z      eigenvalue [eV]  inner max. [A]     outer max. [A]     outer radius [A]   
    2    0         2.100000       -14.9965           0.193241           1.317192           5.372934
    2    1         3.500000       -41.6672           0.602363           0.602363           4.056010
    1    0         0.850000        -9.8292           0.624864           0.624864           5.372934
    2    1         3.700000       -46.5653           0.573616           0.573616           3.909951
    2    0         1.200000        -4.5995           0.334977           2.228160           5.505921
    3    2         7.000000       -74.0753           0.680692           0.680692           3.769152
 
 
  O                    hydrogenic:
 
  List of hydrogenic basis orbitals: 
    n    l      effective z      eigenvalue [eV]  inner max. [A]     outer max. [A]     outer radius [A]   
    2    1         1.800000       -11.0118           1.178546           1.178546           5.432516
    3    2         7.600000       -87.3182           0.624117           0.624117           3.541422
    3    0         6.400000       -61.9209           0.061166           1.081887           4.306510
    4    3        11.600000      -114.4238           0.731621           0.731621           3.584982
    3    1         6.200000       -58.1113           0.255677           1.030255           4.306510
    3    2         5.600000       -47.4081           0.847222           0.847222           4.413102
    5    4        17.600000      -168.5799           0.749730           0.749730           3.372413
    1    0         0.750000        -7.6499           0.705275           0.705275           5.366508
 

  Adding cutoff potential to free-atom effective potential.
  Creating atomic-like basis functions for current effective potential.

  Species H                   :

  List of atomic basis orbitals and eigenvalues:
    n    l      energy [Ha]    energy [eV]    outer radius [A]
    1    0        -0.241374        -6.5681       5.372934


  Species O                   :

  List of atomic basis orbitals and eigenvalues:
    n    l      energy [Ha]    energy [eV]    outer radius [A]
    1    0       -18.944147      -515.4965       1.415745
    2    0        -0.883529       -24.0421       5.048305
    2    1        -0.330173        -8.9845       5.301302

  Assembling full basis from fixed parts.
  | Species H :   atomic orbital   1 s accepted.
  | Species H :    hydro orbital   2 s accepted.
  | Species H :    hydro orbital   1 s accepted.
  | Species H :    hydro orbital   2 s accepted.
  | Species H :    hydro orbital   2 p accepted.
  | Species H :    hydro orbital   2 p accepted.
  | Species H :    hydro orbital   3 d accepted.
  | Species O :   atomic orbital   1 s accepted.
  | Species O :    hydro orbital   3 s accepted.
  | Species O :   atomic orbital   2 s accepted.
  | Species O :    hydro orbital   1 s accepted.
  | Species O :    hydro orbital   3 p accepted.
  | Species O :   atomic orbital   2 p accepted.
  | Species O :    hydro orbital   2 p accepted.
  | Species O :    hydro orbital   3 d accepted.
  | Species O :    hydro orbital   3 d accepted.
  | Species O :    hydro orbital   4 f accepted.
  | Species O :    hydro orbital   5 g accepted.
 
  Basis size parameters after reduction:
  | Total number of radial functions:       18
  | Total number of basis functions :      414
 
  Testing on-site integration grid accuracy.
  |  Species  Function  <phi|h_atom|phi> (log., in eV)  <phi|h_atom|phi> (rad., in eV)
           1        1                 -6.5683835025                 -6.5684759159
           1        2                 13.3711789951                 13.3708738703
           1        3                 23.6590910787                 23.6532055418
           1        4                 16.2963827186                 16.1870710655 ***
           1        5                 28.7627214838                 28.7627215090
           1        6                 59.5965249172                 59.5965950857
           1        7                 60.2220506392                 60.2220503827
           2        8               -515.4964576505               -515.4964530710
           2        9                 15.3030791347                 15.3030722972
           2       10                -21.7296094581                -21.7296135470
           2       11                 14.2969371730                 14.2969701621
           2       12                 21.0679693190                 21.0679697493
           2       13                 -2.3833606469                 -2.3833613176
           2       14                 13.7067136422                 13.7066766629
           2       15                 45.8013116808                 45.8013116965
           2       16                 52.2309815402                 52.2309831494
           2       17                 85.4120732416                 85.4120732763
           2       18                142.1019167745                142.1019167817
 * Note: Onsite integrals marked "***" above are less accurate than
 * onsite_accuracy_threshold =    0.03000 eV. Usually, this is harmless.
 * When in doubt, tighten the "radial" and/or "radial_multiplier" flags to check.

  Preparing densities etc. for the partition functions (integrals / Hartree potential).

  Preparations completed.
  max(cpu_time)          :      0.169 s.
  Wall clock time (cpu1) :      0.417 s.
------------------------------------------------------------

------------------------------------------------------------
          Begin self-consistency loop: Initialization.

          Date     :  20150727, Time     :  115847.295
------------------------------------------------------------

  Initializing index lists of integration centers etc. from given atomic structure:
  | Number of centers in hartree potential         :        18
  | Number of centers in hartree multipole         :        18
  | Number of centers in electron density summation:        18
  | Number of centers in basis integrals           :        18
  | Number of centers in integrals                 :        18
  Partitioning the integration grid into batches with parallel hashing+maxmin method.
  | Number of batches:     2325
  | Maximal batch size:     198
  | Minimal batch size:      59
  | Average batch size:     101.528
  | Standard deviation of batch sizes:      32.802

  Integration load balanced across     8 MPI tasks.
  Work distribution over tasks is as follows:
  Task     0 has      29564 integration points.
  Task     1 has      29467 integration points.
  Task     2 has      29471 integration points.
  Task     3 has      29570 integration points.
  Task     4 has      29474 integration points.
  Task     5 has      29473 integration points.
  Task     6 has      29563 integration points.
  Task     7 has      29470 integration points.
  Initializing partition tables, free-atom densities, potentials, etc. across the integration grid (initialize_grid_storage).
  | Net number of integration points:   236052
  | of which are non-zero points    :   235480
  Obtaining max. number of non-zero basis functions in each batch (get_n_compute_maxes).
  | Maximal number of non-zero basis functions:      409 in task     0
  | Maximal number of non-zero basis functions:      410 in task     1
  | Maximal number of non-zero basis functions:      410 in task     2
  | Maximal number of non-zero basis functions:      410 in task     3
  | Maximal number of non-zero basis functions:      409 in task     4
  | Maximal number of non-zero basis functions:      410 in task     5
  | Maximal number of non-zero basis functions:      410 in task     6
  | Maximal number of non-zero basis functions:      410 in task     7
  Integrating Hamiltonian matrix: batch-based integration.
  Time summed over all CPUs for integration: real work       11.009 s, elapsed       11.108 s
  Integrating overlap matrix.
  Time summed over all CPUs for integration: real work        6.016 s, elapsed        6.096 s

  Updating Kohn-Sham eigenvalues, eigenvectors, occupation numbers, and Fermi level.
  Solving generalized eigenproblem
  Updating Kohn-Sham eigenvalues and eigenfunctions.
  Transforming overlap matrix and checking for singularities.
  Overlap matrix is nonsingular:
  | Lowest eigenvalue:  0.264799E-03
  Solving real generalised eigenvalue problem by standard LAPACK (fast)
  Determining occupation numbers for Kohn-Sham eigenstates.
  | Chemical potential (Fermi level) in eV                 : -.29831228E+01
  | Error in electron count due to remaining E_F inaccuracy: 0.00000000E+00
  | Maximum occupation number of highest empty state:  0.00E+00

  Writing Kohn-Sham eigenvalues.

  State    Occupation    Eigenvalue [Ha]    Eigenvalue [eV]
      1       2.00000         -19.057397         -518.57817
      2       2.00000         -19.052100         -518.43401
      3       2.00000         -19.050543         -518.39164
      4       2.00000         -19.042518         -518.17328
      5       2.00000         -19.036167         -518.00045
      6       2.00000         -19.019704         -517.55249
      7       2.00000          -1.110271          -30.21200
      8       2.00000          -1.101016          -29.96018
      9       2.00000          -1.098412          -29.88931
     10       2.00000          -1.086572          -29.56712
     11       2.00000          -1.068065          -29.06352
     12       2.00000          -1.042036          -28.35524
     13       2.00000          -0.654632          -17.81345
     14       2.00000          -0.648546          -17.64784
     15       2.00000          -0.629139          -17.11975
     16       2.00000          -0.609013          -16.57209
     17       2.00000          -0.605083          -16.46515
     18       2.00000          -0.590585          -16.07064
     19       2.00000          -0.527150          -14.34449
     20       2.00000          -0.520621          -14.16681
     21       2.00000          -0.509261          -13.85771
     22       2.00000          -0.502360          -13.66992
     23       2.00000          -0.487996          -13.27906
     24       2.00000          -0.470451          -12.80163
     25       2.00000          -0.443764          -12.07542
     26       2.00000          -0.441406          -12.01128
     27       2.00000          -0.439060          -11.94743
     28       2.00000          -0.431458          -11.74056
     29       2.00000          -0.430177          -11.70570
     30       2.00000          -0.402449          -10.95120
     31       0.00000          -0.097370           -2.64957
     32       0.00000          -0.073442           -1.99847
     33       0.00000          -0.063221           -1.72034
     34       0.00000          -0.056017           -1.52431
     35       0.00000          -0.041033           -1.11657
     36       0.00000          -0.033336           -0.90712
     37       0.00000          -0.004578           -0.12456
     38       0.00000           0.028520            0.77608
     39       0.00000           0.041071            1.11760
     40       0.00000           0.047143            1.28282
     41       0.00000           0.048503            1.31983
     42       0.00000           0.060121            1.63596
     43       0.00000           0.071143            1.93590
     44       0.00000           0.076778            2.08924
     45       0.00000           0.086484            2.35334
     46       0.00000           0.097996            2.66661
     47       0.00000           0.102139            2.77934
     48       0.00000           0.105311            2.86567
     49       0.00000           0.112449            3.05990
     50       0.00000           0.116942            3.18214
     51       0.00000           0.120595            3.28156
     52       0.00000           0.125339            3.41063
     53       0.00000           0.132748            3.61226
     54       0.00000           0.142350            3.87355
     55       0.00000           0.146679            3.99133
     56       0.00000           0.152885            4.16022
     57       0.00000           0.168022            4.57212
     58       0.00000           0.178631            4.86081
     59       0.00000           0.184421            5.01836
     60       0.00000           0.195769            5.32715
     61       0.00000           0.206125            5.60895
     62       0.00000           0.224256            6.10231
     63       0.00000           0.232430            6.32474
     64       0.00000           0.243413            6.62360
     65       0.00000           0.261429            7.11385
     66       0.00000           0.271182            7.37924
     67       0.00000           0.286056            7.78397
     68       0.00000           0.287648            7.82731
     69       0.00000           0.311411            8.47392
     70       0.00000           0.321067            8.73669
     71       0.00000           0.333998            9.08855
     72       0.00000           0.345375            9.39813
     73       0.00000           0.352035            9.57937
     74       0.00000           0.357148            9.71849
     75       0.00000           0.366836            9.98210
     76       0.00000           0.372388           10.13318
     77       0.00000           0.391295           10.64767
     78       0.00000           0.400437           10.89643
     79       0.00000           0.405004           11.02073
     80       0.00000           0.419931           11.42690
     81       0.00000           0.425251           11.57167
     82       0.00000           0.436791           11.88570
     83       0.00000           0.451031           12.27317
     84       0.00000           0.455936           12.40665
     85       0.00000           0.482237           13.12233
     86       0.00000           0.491428           13.37244
     87       0.00000           0.494952           13.46834
     88       0.00000           0.508405           13.83439
     89       0.00000           0.532999           14.50363
     90       0.00000           0.547248           14.89136
     91       0.00000           0.564007           15.34741
     92       0.00000           0.582180           15.84193
     93       0.00000           0.586687           15.96456
     94       0.00000           0.616093           16.76473
     95       0.00000           0.621508           16.91209
     96       0.00000           0.668418           18.18858
     97       0.00000           0.695477           18.92489
     98       0.00000           0.704066           19.15862
     99       0.00000           0.723066           19.67563
    100       0.00000           0.733663           19.96398
    101       0.00000           0.760985           20.70747
    102       0.00000           0.767527           20.88547

  Highest occupied state (VBM) at    -10.95119991 eV
  | Occupation number:      2.00000000

  Lowest unoccupied state (CBM) at    -2.64956775 eV
  | Occupation number:      0.00000000

  Overall HOMO-LUMO gap:      8.30163215 eV.
  Calculating total energy contributions from superposition of free atom densities.

  Total energy components:
  | Sum of eigenvalues            :        -260.21590605 Ha       -7080.83507254 eV
  | XC energy correction          :         -54.69802236 Ha       -1488.40891789 eV
  | XC potential correction       :          69.90014306 Ha        1902.07966948 eV
  | Free-atom electrostatic energy:        -214.67729223 Ha       -5841.66634227 eV
  | Hartree energy correction     :           0.00000000 Ha           0.00000000 eV
  | van der Waals energy corr.    :           0.00000000 Ha           0.00000000 eV
  | Entropy correction            :           0.00000000 Ha           0.00000000 eV
  | ---------------------------
  | Total energy                  :        -459.69107758 Ha      -12508.83066322 eV
  | Total energy, T -> 0          :        -459.69107758 Ha      -12508.83066322 eV  <-- do not rely on this value for anything but (periodic) metals
  | Electronic free energy        :        -459.69107758 Ha      -12508.83066322 eV

  Derived energy quantities:
  | Kinetic energy                :         455.02885971 Ha       12381.96526007 eV
  | Electrostatic energy          :        -860.02191492 Ha      -23402.38700540 eV
  | Energy correction for multipole
  | error in Hartree potential    :           0.00000000 Ha           0.00000000 eV
  | Sum of eigenvalues per atom                           :        -393.37972625 eV
  | Total energy (T->0) per atom                          :        -694.93503685 eV  <-- do not rely on this value for anything but (periodic) metals
  | Electronic free energy per atom                       :        -694.93503685 eV
  Initialize hartree_potential_storage
  Max. number of atoms included in rho_multipole:           18

  End scf initialization - timings             :  max(cpu_time)    wall_clock(cpu1)
  | Time for scf. initialization               :        2.950 s           2.949 s
  | Boundary condition initialization          :        0.000 s           0.016 s
  | Integration                                :        2.156 s           2.157 s
  | Solution of K.-S. eqns.                    :        0.294 s           0.294 s
  | Grid partitioning                          :        0.198 s           0.188 s
  | Preloading free-atom quantities on grid    :        0.013 s           0.014 s
  | Free-atom superposition energy             :        0.090 s           0.089 s
  | Total energy evaluation                    :        0.000 s           0.000 s
------------------------------------------------------------

------------------------------------------------------------
          Begin self-consistency iteration #    1

  Date     :  20150727, Time     :  115850.245
------------------------------------------------------------
  Evaluating new KS density.
  Integration grid: deviation in total charge (<rho> - N_e) =  -2.131628E-14
  Pulay mixing of updated and previous charge densities.

  Evaluating partitioned Hartree potential by multipole expansion.
  | Analytical far-field extrapolation by fixed multipoles:
  | Hartree multipole sum: apparent total charge =  -0.212891E-05
  Summing up the Hartree potential.
  Time summed over all CPUs for potential: real work        3.782 s, elapsed        3.799 s
  | RMS charge density error from multipole expansion :   0.178384E-02

  Integrating Hamiltonian matrix: batch-based integration.
  Time summed over all CPUs for integration: real work       11.001 s, elapsed       11.131 s

  Updating Kohn-Sham eigenvalues, eigenvectors, occupation numbers, and Fermi level.
  Solving generalized eigenproblem
  Updating Kohn-Sham eigenvalues and eigenfunctions.
  Solving real generalised eigenvalue problem by standard LAPACK (fast)
  Determining occupation numbers for Kohn-Sham eigenstates.
  | Chemical potential (Fermi level) in eV                 : -.25066608E+01
  | Error in electron count due to remaining E_F inaccuracy: 0.00000000E+00
  | Maximum occupation number of highest empty state:  0.00E+00

  Writing Kohn-Sham eigenvalues.

  State    Occupation    Eigenvalue [Ha]    Eigenvalue [eV]
      1       2.00000         -18.985541         -516.62285
      2       2.00000         -18.978892         -516.44193
      3       2.00000         -18.969578         -516.18848
      4       2.00000         -18.968945         -516.17127
      5       2.00000         -18.958793         -515.89501
      6       2.00000         -18.927384         -515.04031
      7       2.00000          -1.072445          -29.18271
      8       2.00000          -1.068750          -29.08218
      9       2.00000          -1.050661          -28.58993
     10       2.00000          -1.047750          -28.51072
     11       2.00000          -1.033451          -28.12163
     12       2.00000          -0.989564          -26.92741
     13       2.00000          -0.620875          -16.89487
     14       2.00000          -0.604687          -16.45436
     15       2.00000          -0.603639          -16.42586
     16       2.00000          -0.578172          -15.73285
     17       2.00000          -0.575718          -15.66610
     18       2.00000          -0.548157          -14.91612
     19       2.00000          -0.494649          -13.46007
     20       2.00000          -0.481024          -13.08933
     21       2.00000          -0.467684          -12.72633
     22       2.00000          -0.462154          -12.57586
     23       2.00000          -0.446720          -12.15587
     24       2.00000          -0.422648          -11.50083
     25       2.00000          -0.408073          -11.10424
     26       2.00000          -0.403283          -10.97390
     27       2.00000          -0.396333          -10.78477
     28       2.00000          -0.388497          -10.57155
     29       2.00000          -0.384506          -10.46294
     30       2.00000          -0.347197           -9.44771
     31       0.00000          -0.088054           -2.39608
     32       0.00000          -0.062964           -1.71333
     33       0.00000          -0.053028           -1.44296
     34       0.00000          -0.046448           -1.26391
     35       0.00000          -0.031565           -0.85892
     36       0.00000          -0.024208           -0.65873
     37       0.00000          -0.000048           -0.00131
     38       0.00000           0.041647            1.13328
     39       0.00000           0.050266            1.36782
     40       0.00000           0.053822            1.46456
     41       0.00000           0.061549            1.67484
     42       0.00000           0.069123            1.88092
     43       0.00000           0.080315            2.18547
     44       0.00000           0.087664            2.38547
     45       0.00000           0.098390            2.67734
     46       0.00000           0.106074            2.88643
     47       0.00000           0.111257            3.02745
     48       0.00000           0.115812            3.15141
     49       0.00000           0.124753            3.39471
     50       0.00000           0.128408            3.49415
     51       0.00000           0.131100            3.56742
     52       0.00000           0.138219            3.76113
     53       0.00000           0.142029            3.86480
     54       0.00000           0.158261            4.30651
     55       0.00000           0.166981            4.54380
     56       0.00000           0.169717            4.61825
     57       0.00000           0.179907            4.89552
     58       0.00000           0.192658            5.24248
     59       0.00000           0.196664            5.35150
     60       0.00000           0.205936            5.60379
     61       0.00000           0.222216            6.04680
     62       0.00000           0.237299            6.45724
     63       0.00000           0.246147            6.69799
     64       0.00000           0.252405            6.86829
     65       0.00000           0.273667            7.44685
     66       0.00000           0.283249            7.70760
     67       0.00000           0.295762            8.04811
     68       0.00000           0.298339            8.11821
     69       0.00000           0.319137            8.68415
     70       0.00000           0.331850            9.03010
     71       0.00000           0.344819            9.38300
     72       0.00000           0.355866            9.68361
     73       0.00000           0.363160            9.88209
     74       0.00000           0.366407            9.97046
     75       0.00000           0.379242           10.31971
     76       0.00000           0.384854           10.47240
     77       0.00000           0.403632           10.98339
     78       0.00000           0.412714           11.23051
     79       0.00000           0.415254           11.29963
     80       0.00000           0.427964           11.64549
     81       0.00000           0.437988           11.91826
     82       0.00000           0.449017           12.21838
     83       0.00000           0.459436           12.50188
     84       0.00000           0.469031           12.76297
     85       0.00000           0.492756           13.40858
     86       0.00000           0.502731           13.68001
     87       0.00000           0.506292           13.77690
     88       0.00000           0.521499           14.19072
     89       0.00000           0.548276           14.91935
     90       0.00000           0.560704           15.25754
     91       0.00000           0.578862           15.75164
     92       0.00000           0.596739           16.23809
     93       0.00000           0.602271           16.38862
     94       0.00000           0.629265           17.12318
     95       0.00000           0.636098           17.30912
     96       0.00000           0.683169           18.58998
     97       0.00000           0.711931           19.37264
     98       0.00000           0.718437           19.54967
     99       0.00000           0.736776           20.04871
    100       0.00000           0.749357           20.39104
    101       0.00000           0.773323           21.04319
    102       0.00000           0.782521           21.29347

  Highest occupied state (VBM) at     -9.44771049 eV
  | Occupation number:      2.00000000

  Lowest unoccupied state (CBM) at    -2.39607520 eV
  | Occupation number:      0.00000000

  Overall HOMO-LUMO gap:      7.05163529 eV.

  Total energy components:
  | Sum of eigenvalues            :        -257.37154177 Ha       -7003.43598238 eV
  | XC energy correction          :         -54.98429941 Ha       -1496.19891261 eV
  | XC potential correction       :          70.27439825 Ha        1912.26367117 eV
  | Free-atom electrostatic energy:        -214.67729223 Ha       -5841.66634227 eV
  | Hartree energy correction     :          -2.75870641 Ha         -75.06822075 eV
  | van der Waals energy corr.    :           0.00000000 Ha           0.00000000 eV
  | Entropy correction            :           0.00000000 Ha           0.00000000 eV
  | ---------------------------
  | Total energy                  :        -459.51744156 Ha      -12504.10578685 eV
  | Total energy, T -> 0          :        -459.51744156 Ha      -12504.10578685 eV  <-- do not rely on this value for anything but (periodic) metals
  | Electronic free energy        :        -459.51744156 Ha      -12504.10578685 eV

  Derived energy quantities:
  | Kinetic energy                :         456.73344442 Ha       12428.34937020 eV
  | Electrostatic energy          :        -861.26658658 Ha      -23436.25624444 eV
  | Energy correction for multipole
  | error in Hartree potential    :           0.00008391 Ha           0.00228341 eV
  | Sum of eigenvalues per atom                           :        -389.07977680 eV
  | Total energy (T->0) per atom                          :        -694.67254371 eV  <-- do not rely on this value for anything but (periodic) metals
  | Electronic free energy per atom                       :        -694.67254371 eV

  Self-consistency convergence accuracy:
  | Change of charge density      : 0.7219E+00
  | Change of sum of eigenvalues  : 0.7740E+02 eV
  | Change of total energy        : 0.4725E+01 eV

  End self-consistency iteration #     1       :  max(cpu_time)    wall_clock(cpu1)
  | Time for this iteration                    :        2.859 s           2.857 s
  | Charge density update                      :        0.896 s           0.895 s
  | Density mixing                             :        0.004 s           0.004 s
  | Hartree multipole update                   :        0.006 s           0.006 s
  | Hartree multipole summation                :        0.476 s           0.476 s
  | Integration                                :        1.394 s           1.394 s
  | Solution of K.-S. eqns.                    :        0.082 s           0.081 s
  | Total energy evaluation                    :        0.000 s           0.000 s
------------------------------------------------------------

------------------------------------------------------------
          Begin self-consistency iteration #    2

  Date     :  20150727, Time     :  115853.103
------------------------------------------------------------
  Evaluating new KS density.
  Integration grid: deviation in total charge (<rho> - N_e) =   7.105427E-15
  Pulay mixing of updated and previous charge densities.

  Evaluating partitioned Hartree potential by multipole expansion.
  | Analytical far-field extrapolation by fixed multipoles:
  | Hartree multipole sum: apparent total charge =  -0.595714E-05
  Summing up the Hartree potential.
  Time summed over all CPUs for potential: real work        3.781 s, elapsed        3.798 s
  | RMS charge density error from multipole expansion :   0.714543E-02

  Integrating Hamiltonian matrix: batch-based integration.
  Time summed over all CPUs for integration: real work       10.973 s, elapsed       11.105 s

  Updating Kohn-Sham eigenvalues, eigenvectors, occupation numbers, and Fermi level.
  Solving generalized eigenproblem
  Updating Kohn-Sham eigenvalues and eigenfunctions.
  Solving real generalised eigenvalue problem by standard LAPACK (fast)
  Determining occupation numbers for Kohn-Sham eigenstates.
  | Chemical potential (Fermi level) in eV                 : -.26512749E+01
  | Error in electron count due to remaining E_F inaccuracy: 0.00000000E+00
  | Maximum occupation number of highest empty state:  0.00E+00

  Highest occupied state (VBM) at     -5.83659886 eV
  | Occupation number:      2.00000000

  Lowest unoccupied state (CBM) at    -1.95375898 eV
  | Occupation number:      0.00000000

  Overall HOMO-LUMO gap:      3.88283988 eV.

  Total energy components:
  | Sum of eigenvalues            :        -250.60539988 Ha       -6819.31989388 eV
  | XC energy correction          :         -55.69274363 Ha       -1515.47666087 eV
  | XC potential correction       :          71.19960995 Ha        1937.43996265 eV
  | Free-atom electrostatic energy:        -214.67729223 Ha       -5841.66634227 eV
  | Hartree energy correction     :          -9.53971637 Ha        -259.58889027 eV
  | van der Waals energy corr.    :           0.00000000 Ha           0.00000000 eV
  | Entropy correction            :           0.00000000 Ha           0.00000000 eV
  | ---------------------------
  | Total energy                  :        -459.31554216 Ha      -12498.61182464 eV
  | Total energy, T -> 0          :        -459.31554216 Ha      -12498.61182464 eV  <-- do not rely on this value for anything but (periodic) metals
  | Electronic free energy        :        -459.31554216 Ha      -12498.61182464 eV

  Derived energy quantities:
  | Kinetic energy                :         460.16736374 Ha       12521.79106907 eV
  | Electrostatic energy          :        -863.79016227 Ha      -23504.92623285 eV
  | Energy correction for multipole
  | error in Hartree potential    :          -0.00073848 Ha          -0.02009507 eV
  | Sum of eigenvalues per atom                           :        -378.85110522 eV
  | Total energy (T->0) per atom                          :        -694.36732359 eV  <-- do not rely on this value for anything but (periodic) metals
  | Electronic free energy per atom                       :        -694.36732359 eV

  Self-consistency convergence accuracy:
  | Change of charge density      : 0.5463E+00
  | Change of sum of eigenvalues  : 0.1841E+03 eV
  | Change of total energy        : 0.5494E+01 eV

  End self-consistency iteration #     2       :  max(cpu_time)    wall_clock(cpu1)
  | Time for this iteration                    :        2.853 s           2.852 s
  | Charge density update                      :        0.892 s           0.891 s
  | Density mixing                             :        0.006 s           0.007 s
  | Hartree multipole update                   :        0.006 s           0.006 s
  | Hartree multipole summation                :        0.476 s           0.476 s
  | Integration                                :        1.391 s           1.390 s
  | Solution of K.-S. eqns.                    :        0.081 s           0.081 s
  | Total energy evaluation                    :        0.001 s           0.000 s
------------------------------------------------------------

------------------------------------------------------------
          Begin self-consistency iteration #    3

  Date     :  20150727, Time     :  115855.955
------------------------------------------------------------
  Evaluating new KS density.
  Integration grid: deviation in total charge (<rho> - N_e) =  -7.105427E-15
  Pulay mixing of updated and previous charge densities.

  Evaluating partitioned Hartree potential by multipole expansion.
  | Analytical far-field extrapolation by fixed multipoles:
  | Hartree multipole sum: apparent total charge =  -0.512102E-05
  Summing up the Hartree potential.
  Time summed over all CPUs for potential: real work        3.781 s, elapsed        3.798 s
  | RMS charge density error from multipole expansion :   0.144082E-01

  Integrating Hamiltonian matrix: batch-based integration.
  Time summed over all CPUs for integration: real work       10.965 s, elapsed       11.108 s

  Updating Kohn-Sham eigenvalues, eigenvectors, occupation numbers, and Fermi level.
  Solving generalized eigenproblem
  Updating Kohn-Sham eigenvalues and eigenfunctions.
  Solving real generalised eigenvalue problem by standard LAPACK (fast)
  Determining occupation numbers for Kohn-Sham eigenstates.
  | Chemical potential (Fermi level) in eV                 : -.24848790E+01
  | Error in electron count due to remaining E_F inaccuracy: 0.00000000E+00
  | Maximum occupation number of highest empty state:  0.00E+00

  Highest occupied state (VBM) at     -5.63109272 eV
  | Occupation number:      2.00000000

  Lowest unoccupied state (CBM) at    -1.96773828 eV
  | Occupation number:      0.00000000

  Overall HOMO-LUMO gap:      3.66335444 eV.

  Total energy components:
  | Sum of eigenvalues            :        -250.76605674 Ha       -6823.69158939 eV
  | XC energy correction          :         -55.66600560 Ha       -1514.74908189 eV
  | XC potential correction       :          71.15801657 Ha        1936.30814919 eV
  | Free-atom electrostatic energy:        -214.67729223 Ha       -5841.66634227 eV
  | Hartree energy correction     :          -9.35796413 Ha        -254.64316000 eV
  | van der Waals energy corr.    :           0.00000000 Ha           0.00000000 eV
  | Entropy correction            :           0.00000000 Ha           0.00000000 eV
  | ---------------------------
  | Total energy                  :        -459.30930212 Ha      -12498.44202436 eV
  | Total energy, T -> 0          :        -459.30930212 Ha      -12498.44202436 eV  <-- do not rely on this value for anything but (periodic) metals
  | Electronic free energy        :        -459.30930212 Ha      -12498.44202436 eV

  Derived energy quantities:
  | Kinetic energy                :         457.75435073 Ha       12456.12964427 eV
  | Electrostatic energy          :        -861.39764725 Ha      -23439.82258674 eV
  | Energy correction for multipole
  | error in Hartree potential    :          -0.00639738 Ha          -0.17408156 eV
  | Sum of eigenvalues per atom                           :        -379.09397719 eV
  | Total energy (T->0) per atom                          :        -694.35789024 eV  <-- do not rely on this value for anything but (periodic) metals
  | Electronic free energy per atom                       :        -694.35789024 eV

  Self-consistency convergence accuracy:
  | Change of charge density      : 0.2734E+00
  | Change of sum of eigenvalues  : -.4372E+01 eV
  | Change of total energy        : 0.1698E+00 eV

  End self-consistency iteration #     3       :  max(cpu_time)    wall_clock(cpu1)
  | Time for this iteration                    :        2.849 s           2.849 s
  | Charge density update                      :        0.886 s           0.886 s
  | Density mixing                             :        0.008 s           0.008 s
  | Hartree multipole update                   :        0.006 s           0.006 s
  | Hartree multipole summation                :        0.476 s           0.476 s
  | Integration                                :        1.391 s           1.391 s
  | Solution of K.-S. eqns.                    :        0.081 s           0.081 s
  | Total energy evaluation                    :        0.000 s           0.000 s
------------------------------------------------------------

------------------------------------------------------------
          Begin self-consistency iteration #    4

  Date     :  20150727, Time     :  115858.804
------------------------------------------------------------
  Evaluating new KS density.
  Integration grid: deviation in total charge (<rho> - N_e) =   3.552714E-14
  Pulay mixing of updated and previous charge densities.

  Evaluating partitioned Hartree potential by multipole expansion.
  | Analytical far-field extrapolation by fixed multipoles:
  | Hartree multipole sum: apparent total charge =  -0.598441E-05
  Summing up the Hartree potential.
  Time summed over all CPUs for potential: real work        3.780 s, elapsed        3.798 s
  | RMS charge density error from multipole expansion :   0.185599E-01

  Integrating Hamiltonian matrix: batch-based integration.
  Time summed over all CPUs for integration: real work       10.967 s, elapsed       11.103 s

  Updating Kohn-Sham eigenvalues, eigenvectors, occupation numbers, and Fermi level.
  Solving generalized eigenproblem
  Updating Kohn-Sham eigenvalues and eigenfunctions.
  Solving real generalised eigenvalue problem by standard LAPACK (fast)
  Determining occupation numbers for Kohn-Sham eigenstates.
  | Chemical potential (Fermi level) in eV                 : -.20426857E+01
  | Error in electron count due to remaining E_F inaccuracy: 0.00000000E+00
  | Maximum occupation number of highest empty state:  0.00E+00

  Highest occupied state (VBM) at     -4.38412896 eV
  | Occupation number:      2.00000000

  Lowest unoccupied state (CBM) at    -1.87016857 eV
  | Occupation number:      0.00000000

  Overall HOMO-LUMO gap:      2.51396039 eV.

  Total energy components:
  | Sum of eigenvalues            :        -248.72725767 Ha       -6768.21304422 eV
  | XC energy correction          :         -55.89900630 Ha       -1521.08935349 eV
  | XC potential correction       :          71.46073628 Ha        1944.54557162 eV
  | Free-atom electrostatic energy:        -214.67729223 Ha       -5841.66634227 eV
  | Hartree energy correction     :         -11.45275672 Ha        -311.64536674 eV
  | van der Waals energy corr.    :           0.00000000 Ha           0.00000000 eV
  | Entropy correction            :           0.00000000 Ha           0.00000000 eV
  | ---------------------------
  | Total energy                  :        -459.29557664 Ha      -12498.06853510 eV
  | Total energy, T -> 0          :        -459.29557664 Ha      -12498.06853510 eV  <-- do not rely on this value for anything but (periodic) metals
  | Electronic free energy        :        -459.29557664 Ha      -12498.06853510 eV

  Derived energy quantities:
  | Kinetic energy                :         457.96579491 Ha       12461.88333319 eV
  | Electrostatic energy          :        -861.36236526 Ha      -23438.86251480 eV
  | Energy correction for multipole
  | error in Hartree potential    :          -0.00870618 Ha          -0.23690722 eV
  | Sum of eigenvalues per atom                           :        -376.01183579 eV
  | Total energy (T->0) per atom                          :        -694.33714084 eV  <-- do not rely on this value for anything but (periodic) metals
  | Electronic free energy per atom                       :        -694.33714084 eV

  Self-consistency convergence accuracy:
  | Change of charge density      : 0.1491E+00
  | Change of sum of eigenvalues  : 0.5548E+02 eV
  | Change of total energy        : 0.3735E+00 eV

  End self-consistency iteration #     4       :  max(cpu_time)    wall_clock(cpu1)
  | Time for this iteration                    :        2.851 s           2.850 s
  | Charge density update                      :        0.886 s           0.886 s
  | Density mixing                             :        0.010 s           0.010 s
  | Hartree multipole update                   :        0.007 s           0.006 s
  | Hartree multipole summation                :        0.475 s           0.476 s
  | Integration                                :        1.391 s           1.391 s
  | Solution of K.-S. eqns.                    :        0.081 s           0.081 s
  | Total energy evaluation                    :        0.001 s           0.000 s
------------------------------------------------------------

------------------------------------------------------------
          Begin self-consistency iteration #    5

  Date     :  20150727, Time     :  115901.654
------------------------------------------------------------
  Evaluating new KS density.
  Integration grid: deviation in total charge (<rho> - N_e) =   4.973799E-14
  Pulay mixing of updated and previous charge densities.

  Evaluating partitioned Hartree potential by multipole expansion.
  | Analytical far-field extrapolation by fixed multipoles:
  | Hartree multipole sum: apparent total charge =  -0.589602E-05
  Summing up the Hartree potential.
  Time summed over all CPUs for potential: real work        3.781 s, elapsed        3.798 s
  | RMS charge density error from multipole expansion :   0.192599E-01

  Integrating Hamiltonian matrix: batch-based integration.
  Time summed over all CPUs for integration: real work       10.966 s, elapsed       11.105 s

  Updating Kohn-Sham eigenvalues, eigenvectors, occupation numbers, and Fermi level.
  Solving generalized eigenproblem
  Updating Kohn-Sham eigenvalues and eigenfunctions.
  Solving real generalised eigenvalue problem by standard LAPACK (fast)
  Determining occupation numbers for Kohn-Sham eigenstates.
  | Chemical potential (Fermi level) in eV                 : -.20207283E+01
  | Error in electron count due to remaining E_F inaccuracy: 0.00000000E+00
  | Maximum occupation number of highest empty state:  0.00E+00

  Highest occupied state (VBM) at     -4.12013477 eV
  | Occupation number:      2.00000000

  Lowest unoccupied state (CBM) at    -1.86453511 eV
  | Occupation number:      0.00000000

  Overall HOMO-LUMO gap:      2.25559966 eV.

  Total energy components:
  | Sum of eigenvalues            :        -248.57810744 Ha       -6764.15445970 eV
  | XC energy correction          :         -55.92133890 Ha       -1521.69705458 eV
  | XC potential correction       :          71.48921995 Ha        1945.32065173 eV
  | Free-atom electrostatic energy:        -214.67729223 Ha       -5841.66634227 eV
  | Hartree energy correction     :         -11.60777130 Ha        -315.86352812 eV
  | van der Waals energy corr.    :           0.00000000 Ha           0.00000000 eV
  | Entropy correction            :           0.00000000 Ha           0.00000000 eV
  | ---------------------------
  | Total energy                  :        -459.29528992 Ha      -12498.06073294 eV
  | Total energy, T -> 0          :        -459.29528992 Ha      -12498.06073294 eV  <-- do not rely on this value for anything but (periodic) metals
  | Electronic free energy        :        -459.29528992 Ha      -12498.06073294 eV

  Derived energy quantities:
  | Kinetic energy                :         458.00445182 Ha       12462.93524130 eV
  | Electrostatic energy          :        -861.37840284 Ha      -23439.29891966 eV
  | Energy correction for multipole
  | error in Hartree potential    :          -0.00912589 Ha          -0.24832806 eV
  | Sum of eigenvalues per atom                           :        -375.78635887 eV
  | Total energy (T->0) per atom                          :        -694.33670739 eV  <-- do not rely on this value for anything but (periodic) metals
  | Electronic free energy per atom                       :        -694.33670739 eV

  Self-consistency convergence accuracy:
  | Change of charge density      : 0.3547E-01
  | Change of sum of eigenvalues  : 0.4059E+01 eV
  | Change of total energy        : 0.7802E-02 eV

  End self-consistency iteration #     5       :  max(cpu_time)    wall_clock(cpu1)
  | Time for this iteration                    :        2.878 s           2.878 s
  | Charge density update                      :        0.912 s           0.912 s
  | Density mixing                             :        0.011 s           0.011 s
  | Hartree multipole update                   :        0.006 s           0.007 s
  | Hartree multipole summation                :        0.476 s           0.475 s
  | Integration                                :        1.391 s           1.391 s
  | Solution of K.-S. eqns.                    :        0.082 s           0.082 s
  | Total energy evaluation                    :        0.000 s           0.000 s
------------------------------------------------------------

------------------------------------------------------------
          Begin self-consistency iteration #    6

  Date     :  20150727, Time     :  115904.532
------------------------------------------------------------
  Evaluating new KS density.
  Integration grid: deviation in total charge (<rho> - N_e) =  -1.421085E-14
  Pulay mixing of updated and previous charge densities.

  Evaluating partitioned Hartree potential by multipole expansion.
  | Analytical far-field extrapolation by fixed multipoles:
  | Hartree multipole sum: apparent total charge =  -0.588512E-05
  Summing up the Hartree potential.
  Time summed over all CPUs for potential: real work        3.780 s, elapsed        3.798 s
  | RMS charge density error from multipole expansion :   0.195032E-01

  Integrating Hamiltonian matrix: batch-based integration.
  Time summed over all CPUs for integration: real work       10.964 s, elapsed       11.112 s

  Updating Kohn-Sham eigenvalues, eigenvectors, occupation numbers, and Fermi level.
  Solving generalized eigenproblem
  Updating Kohn-Sham eigenvalues and eigenfunctions.
  Solving real generalised eigenvalue problem by standard LAPACK (fast)
  Determining occupation numbers for Kohn-Sham eigenstates.
  | Chemical potential (Fermi level) in eV                 : -.20092011E+01
  | Error in electron count due to remaining E_F inaccuracy: 0.00000000E+00
  | Maximum occupation number of highest empty state:  0.00E+00

  Highest occupied state (VBM) at     -4.09178401 eV
  | Occupation number:      2.00000000

  Lowest unoccupied state (CBM) at    -1.85998152 eV
  | Occupation number:      0.00000000

  Overall HOMO-LUMO gap:      2.23180249 eV.

  Total energy components:
  | Sum of eigenvalues            :        -248.52301839 Ha       -6762.65541055 eV
  | XC energy correction          :         -55.92899055 Ha       -1521.90526653 eV
  | XC potential correction       :          71.49900047 Ha        1945.58679325 eV
  | Free-atom electrostatic energy:        -214.67729223 Ha       -5841.66634227 eV
  | Hartree energy correction     :         -11.66505746 Ha        -317.42236378 eV
  | van der Waals energy corr.    :           0.00000000 Ha           0.00000000 eV
  | Entropy correction            :           0.00000000 Ha           0.00000000 eV
  | ---------------------------
  | Total energy                  :        -459.29535816 Ha      -12498.06258987 eV
  | Total energy, T -> 0          :        -459.29535816 Ha      -12498.06258987 eV  <-- do not rely on this value for anything but (periodic) metals
  | Electronic free energy        :        -459.29535816 Ha      -12498.06258987 eV

  Derived energy quantities:
  | Kinetic energy                :         458.00771130 Ha       12463.02393607 eV
  | Electrostatic energy          :        -861.37407890 Ha      -23439.18125941 eV
  | Energy correction for multipole
  | error in Hartree potential    :          -0.00927060 Ha          -0.25226575 eV
  | Sum of eigenvalues per atom                           :        -375.70307836 eV
  | Total energy (T->0) per atom                          :        -694.33681055 eV  <-- do not rely on this value for anything but (periodic) metals
  | Electronic free energy per atom                       :        -694.33681055 eV

  Self-consistency convergence accuracy:
  | Change of charge density      : 0.1132E-01
  | Change of sum of eigenvalues  : 0.1499E+01 eV
  | Change of total energy        : -.1857E-02 eV

  End self-consistency iteration #     6       :  max(cpu_time)    wall_clock(cpu1)
  | Time for this iteration                    :        2.856 s           2.856 s
  | Charge density update                      :        0.887 s           0.887 s
  | Density mixing                             :        0.013 s           0.013 s
  | Hartree multipole update                   :        0.007 s           0.007 s
  | Hartree multipole summation                :        0.475 s           0.475 s
  | Integration                                :        1.392 s           1.392 s
  | Solution of K.-S. eqns.                    :        0.081 s           0.081 s
  | Total energy evaluation                    :        0.000 s           0.000 s
------------------------------------------------------------

------------------------------------------------------------
          Begin self-consistency iteration #    7

  Date     :  20150727, Time     :  115907.388
------------------------------------------------------------
  Evaluating new KS density.
  Integration grid: deviation in total charge (<rho> - N_e) =   1.421085E-14
  Pulay mixing of updated and previous charge densities.

  Evaluating partitioned Hartree potential by multipole expansion.
  | Analytical far-field extrapolation by fixed multipoles:
  | Hartree multipole sum: apparent total charge =  -0.560945E-05
  Summing up the Hartree potential.
  Time summed over all CPUs for potential: real work        3.780 s, elapsed        3.798 s
  | RMS charge density error from multipole expansion :   0.195174E-01

  Integrating Hamiltonian matrix: batch-based integration.
  Time summed over all CPUs for integration: real work       10.971 s, elapsed       11.099 s

  Updating Kohn-Sham eigenvalues, eigenvectors, occupation numbers, and Fermi level.
  Solving generalized eigenproblem
  Updating Kohn-Sham eigenvalues and eigenfunctions.
  Solving real generalised eigenvalue problem by standard LAPACK (fast)
  Determining occupation numbers for Kohn-Sham eigenstates.
  | Chemical potential (Fermi level) in eV                 : -.20529738E+01
  | Error in electron count due to remaining E_F inaccuracy: 0.00000000E+00
  | Maximum occupation number of highest empty state:  0.00E+00

  Highest occupied state (VBM) at     -4.24513613 eV
  | Occupation number:      2.00000000

  Lowest unoccupied state (CBM) at    -1.87169956 eV
  | Occupation number:      0.00000000

  Overall HOMO-LUMO gap:      2.37343657 eV.

  Total energy components:
  | Sum of eigenvalues            :        -248.71141063 Ha       -6767.78182425 eV
  | XC energy correction          :         -55.91203815 Ha       -1521.44396830 eV
  | XC potential correction       :          71.47620310 Ha        1944.96644519 eV
  | Free-atom electrostatic energy:        -214.67729223 Ha       -5841.66634227 eV
  | Hartree energy correction     :         -11.47070747 Ha        -312.13383154 eV
  | van der Waals energy corr.    :           0.00000000 Ha           0.00000000 eV
  | Entropy correction            :           0.00000000 Ha           0.00000000 eV
  | ---------------------------
  | Total energy                  :        -459.29524538 Ha      -12498.05952117 eV
  | Total energy, T -> 0          :        -459.29524538 Ha      -12498.05952117 eV  <-- do not rely on this value for anything but (periodic) metals
  | Electronic free energy        :        -459.29524538 Ha      -12498.05952117 eV

  Derived energy quantities:
  | Kinetic energy                :         458.07351461 Ha       12464.81453536 eV
  | Electrostatic energy          :        -861.45672184 Ha      -23441.43008822 eV
  | Energy correction for multipole
  | error in Hartree potential    :          -0.00925276 Ha          -0.25178031 eV
  | Sum of eigenvalues per atom                           :        -375.98787912 eV
  | Total energy (T->0) per atom                          :        -694.33664006 eV  <-- do not rely on this value for anything but (periodic) metals
  | Electronic free energy per atom                       :        -694.33664006 eV

  Self-consistency convergence accuracy:
  | Change of charge density      : 0.1113E-01
  | Change of sum of eigenvalues  : -.5126E+01 eV
  | Change of total energy        : 0.3069E-02 eV

  End self-consistency iteration #     7       :  max(cpu_time)    wall_clock(cpu1)
  | Time for this iteration                    :        2.854 s           2.853 s
  | Charge density update                      :        0.886 s           0.886 s
  | Density mixing                             :        0.015 s           0.014 s
  | Hartree multipole update                   :        0.006 s           0.007 s
  | Hartree multipole summation                :        0.476 s           0.475 s
  | Integration                                :        1.390 s           1.390 s
  | Solution of K.-S. eqns.                    :        0.081 s           0.081 s
  | Total energy evaluation                    :        0.000 s           0.000 s
------------------------------------------------------------

------------------------------------------------------------
          Begin self-consistency iteration #    8

  Date     :  20150727, Time     :  115910.242
------------------------------------------------------------
  Evaluating new KS density.
  Integration grid: deviation in total charge (<rho> - N_e) =  -2.842171E-14
  Pulay mixing of updated and previous charge densities.

  Evaluating partitioned Hartree potential by multipole expansion.
  | Analytical far-field extrapolation by fixed multipoles:
  | Hartree multipole sum: apparent total charge =  -0.561338E-05
  Summing up the Hartree potential.
  Time summed over all CPUs for potential: real work        3.780 s, elapsed        3.797 s
  | RMS charge density error from multipole expansion :   0.195688E-01

  Integrating Hamiltonian matrix: batch-based integration.
  Time summed over all CPUs for integration: real work       10.972 s, elapsed       11.096 s

  Updating Kohn-Sham eigenvalues, eigenvectors, occupation numbers, and Fermi level.
  Solving generalized eigenproblem
  Updating Kohn-Sham eigenvalues and eigenfunctions.
  Solving real generalised eigenvalue problem by standard LAPACK (fast)
  Determining occupation numbers for Kohn-Sham eigenstates.
  | Chemical potential (Fermi level) in eV                 : -.20488305E+01
  | Error in electron count due to remaining E_F inaccuracy: 0.00000000E+00
  | Maximum occupation number of highest empty state:  0.00E+00

  Highest occupied state (VBM) at     -4.22254957 eV
  | Occupation number:      2.00000000

  Lowest unoccupied state (CBM) at    -1.87084557 eV
  | Occupation number:      0.00000000

  Overall HOMO-LUMO gap:      2.35170400 eV.

  Total energy components:
  | Sum of eigenvalues            :        -248.69068450 Ha       -6767.21783754 eV
  | XC energy correction          :         -55.91414217 Ha       -1521.50122157 eV
  | XC potential correction       :          71.47892499 Ha        1945.04051154 eV
  | Free-atom electrostatic energy:        -214.67729223 Ha       -5841.66634227 eV
  | Hartree energy correction     :         -11.49205092 Ha        -312.71461627 eV
  | van der Waals energy corr.    :           0.00000000 Ha           0.00000000 eV
  | Entropy correction            :           0.00000000 Ha           0.00000000 eV
  | ---------------------------
  | Total energy                  :        -459.29524483 Ha      -12498.05950611 eV
  | Total energy, T -> 0          :        -459.29524483 Ha      -12498.05950611 eV  <-- do not rely on this value for anything but (periodic) metals
  | Electronic free energy        :        -459.29524483 Ha      -12498.05950611 eV

  Derived energy quantities:
  | Kinetic energy                :         458.07486371 Ha       12464.85124608 eV
  | Electrostatic energy          :        -861.45596637 Ha      -23441.40953063 eV
  | Energy correction for multipole
  | error in Hartree potential    :          -0.00929777 Ha          -0.25300525 eV
  | Sum of eigenvalues per atom                           :        -375.95654653 eV
  | Total energy (T->0) per atom                          :        -694.33663923 eV  <-- do not rely on this value for anything but (periodic) metals
  | Electronic free energy per atom                       :        -694.33663923 eV

  Self-consistency convergence accuracy:
  | Change of charge density      : 0.2318E-02
  | Change of sum of eigenvalues  : 0.5640E+00 eV
  | Change of total energy        : 0.1505E-04 eV

  End self-consistency iteration #     8       :  max(cpu_time)    wall_clock(cpu1)
  | Time for this iteration                    :        2.855 s           2.854 s
  | Charge density update                      :        0.886 s           0.885 s
  | Density mixing                             :        0.016 s           0.016 s
  | Hartree multipole update                   :        0.006 s           0.006 s
  | Hartree multipole summation                :        0.476 s           0.476 s
  | Integration                                :        1.390 s           1.390 s
  | Solution of K.-S. eqns.                    :        0.081 s           0.080 s
  | Total energy evaluation                    :        0.000 s           0.000 s
------------------------------------------------------------

------------------------------------------------------------
          Begin self-consistency iteration #    9

  Date     :  20150727, Time     :  115913.096
------------------------------------------------------------
  Evaluating new KS density.
  Integration grid: deviation in total charge (<rho> - N_e) =   2.842171E-14
  Pulay mixing of updated and previous charge densities.

[...]
   Pulay + GGA                   : 0.439581E+01 0.225404E+01 0.121887E+02
   Van der Waals               : -.752577E-02 -.428792E-02 -.886930E-03
   ----------------------------------------------------------------
   Total forces(  13)            : 0.157508E+01 0.823826E+00 -.205890E+01
  atom #   14
   Hellmann-Feynman + Multipole  : -.461653E+00 -.281516E+00 0.170485E+00
   Pulay + GGA                   : 0.854680E-01 0.708272E-01 0.551792E-01
   Van der Waals               : -.504668E-02 -.324638E-02 0.477932E-03
   ----------------------------------------------------------------
   Total forces(  14)            : -.381232E+00 -.213935E+00 0.226142E+00
  atom #   15
   Hellmann-Feynman + Multipole  : -.839763E+00 -.510099E+00 0.164066E+01
   Pulay + GGA                   : -.424471E-01 -.465290E-02 0.666620E-01
   Van der Waals               : -.274937E-02 -.532991E-03 -.592379E-02
   ----------------------------------------------------------------
   Total forces(  15)            : -.884959E+00 -.515285E+00 0.170140E+01
  atom #   16
   Hellmann-Feynman + Multipole  : -.187752E+01 -.133779E+02 -.296394E+00
   Pulay + GGA                   : 0.289637E+01 0.139199E+02 -.164508E+01
   Van der Waals               : 0.672712E-02 -.695468E-02 -.186701E-02
   ----------------------------------------------------------------
   Total forces(  16)            : 0.102557E+01 0.534964E+00 -.194334E+01
  atom #   17
   Hellmann-Feynman + Multipole  : -.288474E+00 0.528999E+00 0.302358E+00
   Pulay + GGA                   : -.809377E-01 0.901084E-01 0.728482E-01
   Van der Waals               : 0.244502E-02 -.248283E-02 0.508098E-04
   ----------------------------------------------------------------
   Total forces(  17)            : -.366966E+00 0.616624E+00 0.375257E+00
  atom #   18
   Hellmann-Feynman + Multipole  : -.957092E+00 -.912260E+00 0.149133E+01
   Pulay + GGA                   : 0.428670E-01 0.730400E-01 -.102050E+00
   Van der Waals               : 0.421227E-02 -.299181E-02 -.107167E-02
   ----------------------------------------------------------------
   Total forces(  18)            : -.910013E+00 -.842212E+00 0.138821E+01
  Timings for vdw_correction_hirshfeld (Tkatchenko-Scheffler 2009):
  | CPU time:        7.583 s, Wall clock time:        7.583 s.
  Removing unitary transformations (pure translations, rotations) from forces on atoms.
  Atomic forces before filtering:
  | Net force on center of mass :  0.651476E-02 0.453202E-02 0.149309E-02 eV/A
  | Net torque on center of mass:  -.519221E-03 -.889021E-03 -.305035E-02 eV
  Atomic forces after filtering:
  | Net force on center of mass :  0.356812E-15 0.178406E-15 0.713624E-15 eV/A
  | Net torque on center of mass:  0.151054E-14 0.226580E-14 0.679741E-14 eV
 
  Energy and forces in a compact form:
  | Total energy uncorrected      :         -0.124981595549728E+05 eV
  | Total energy corrected        :         -0.124981595549728E+05 eV  <-- do not rely on this value for anything but (periodic) metals
  | Electronic free energy        :         -0.124981595549728E+05 eV
  Total atomic forces (unitary forces cleaned) [eV/Ang]:
  |   1         -0.164459067695168E+01          0.349068789419394E+01         -0.223426871723459E+01
  |   2          0.222966522925689E+01         -0.353758070013213E+01          0.145231532286391E+01
  |   3         -0.148231960104568E+01         -0.210141041675341E+00         -0.252246700044074E+00
  |   4         -0.699710137969846E+00         -0.199078093350620E+01         -0.484757140441496E+00
  |   5         -0.282654277193071E+00          0.734189160939660E+00          0.100261888600516E+01
  |   6          0.636206129163881E+00          0.715697389332276E+00          0.198289158369451E+00
  |   7          0.296268713534071E+01         -0.244273137334020E+00          0.104958544638976E+01
  |   8         -0.326991398748245E+00         -0.327140865118374E+00         -0.693384390363341E+00
  |   9         -0.163650902991035E+01          0.957469208501869E+00         -0.355822274319723E+00
  |  10         -0.496097059876353E+00          0.984704630559981E+00          0.256991965485053E+01
  |  11         -0.273727249975555E+00          0.179799341549520E+00         -0.219436778144670E+01
  |  12          0.959090104966470E+00         -0.115507506143611E+01          0.253864304979175E+00
  |  13          0.157467026563460E+01          0.823638296209015E+00         -0.205901342451910E+01
  |  14         -0.381652520521619E+00         -0.214092351210643E+00          0.226006902439091E+00
  |  15         -0.885341139561616E+00         -0.515492307673459E+00          0.170129545016434E+01
  |  16          0.102515138834218E+01          0.534635608864459E+00         -0.194338858731282E+01
  |  17         -0.367407448011968E+00          0.616279371009493E+00          0.375210858339792E+00
  |  18         -0.910469712938731E+00         -0.842524503073932E+00          0.138814303128064E+01
 
  ------------------------------------ 
  Start decomposition of the XC Energy 
  ------------------------------------ 
  Hartree-Fock part   :          0.000000000 Ha              0.000000000 eV
  ------------------------------------ 
  X Energy            :        -53.944395693 Ha          -1467.901692834 eV
  C Energy GGA        :         -1.969644487 Ha            -53.596753454 eV
  Total XC Energy     :        -55.914040180 Ha          -1521.498446288 eV
  LDA X and C from self-consistent density 
  X Energy LDA        :        -48.631847080 Ha          -1323.339889849 eV
  C Energy LDA        :         -3.961904976 Ha           -107.808919661 eV
  ------------------------------------ 
  End decomposition of the XC Energy 
  ------------------------------------ 
  Performing Hirshfeld analysis of fragment charges and moments.
  ----------------------------------------------------------------------
  | Atom     1: O
  |   Hirshfeld charge        :     -0.33588087
  |   Free atom volume        :     23.95238533
  |   Hirshfeld volume        :     23.68422615
  |   Hirshfeld dipole vector :      0.03560463       0.04904960       0.03039689
  |   Hirshfeld dipole moment :      0.06780505
  |   Hirshfeld second moments:      0.00701921      -0.02979145       0.01797627
  |                                 -0.02979145      -0.03186494      -0.03718733
  |                                  0.01797627      -0.03718733      -0.07324058
  ----------------------------------------------------------------------
  | Atom     2: H
  |   Hirshfeld charge        :      0.10183944
  |   Free atom volume        :     10.44207651
  |   Hirshfeld volume        :      7.57140295
  |   Hirshfeld dipole vector :     -0.05602322       0.09177473      -0.02775077
  |   Hirshfeld dipole moment :      0.11104642
  |   Hirshfeld second moments:      0.09965775       0.00242281       0.00719285
  |                                  0.00242281       0.07292942      -0.00787277
  |                                  0.00719285      -0.00787277       0.07045427
  ----------------------------------------------------------------------
  | Atom     3: H
  |   Hirshfeld charge        :      0.05920938
  |   Free atom volume        :     10.44207651
  |   Hirshfeld volume        :      8.63696352
  |   Hirshfeld dipole vector :      0.04260093       0.00731424       0.01739782
  |   Hirshfeld dipole moment :      0.04659423
  |   Hirshfeld second moments:      0.02141313      -0.02850732      -0.00097219
  |                                 -0.02850732       0.07245382      -0.00644210
  |                                 -0.00097219      -0.00644210       0.05443441
  ----------------------------------------------------------------------
  | Atom     4: O
  |   Hirshfeld charge        :     -0.31066786
  |   Free atom volume        :     23.95238533
  |   Hirshfeld volume        :     22.43701893
  |   Hirshfeld dipole vector :     -0.02846733       0.02413243       0.01355181
  |   Hirshfeld dipole moment :      0.03970409
  |   Hirshfeld second moments:      0.01710022       0.05525154      -0.01270651
  |                                  0.05525154       0.00940830       0.01857409
  |                                 -0.01270651       0.01857409      -0.01327169
  ----------------------------------------------------------------------
  | Atom     5: H
  |   Hirshfeld charge        :      0.07150363
  |   Free atom volume        :     10.44207651
  |   Hirshfeld volume        :      8.07174797
  |   Hirshfeld dipole vector :      0.01521152       0.04308237       0.03012165
  |   Hirshfeld dipole moment :      0.05472472
  |   Hirshfeld second moments:      0.08393919       0.00120177      -0.01285309
  |                                  0.00120177       0.03581956      -0.01862233
  |                                 -0.01285309      -0.01862233       0.06907871
  ----------------------------------------------------------------------
  | Atom     6: H
  |   Hirshfeld charge        :      0.12219175
  |   Free atom volume        :     10.44207651
  |   Hirshfeld volume        :      6.94634661
  |   Hirshfeld dipole vector :     -0.10169846      -0.06047888       0.01983472
  |   Hirshfeld dipole moment :      0.11997370
  |   Hirshfeld second moments:      0.09158783       0.01388517      -0.00056771
  |                                  0.01388517       0.10544071       0.01259339
  |                                 -0.00056771       0.01259339       0.09516755
  ----------------------------------------------------------------------
  | Atom     7: O
  |   Hirshfeld charge        :     -0.21468039
  |   Free atom volume        :     23.95238533
  |   Hirshfeld volume        :     21.13018144
  |   Hirshfeld dipole vector :     -0.02038401      -0.02591676       0.03545166
  |   Hirshfeld dipole moment :      0.04841494
  |   Hirshfeld second moments:      0.06485840      -0.02544428       0.00690796
  |                                 -0.02544428       0.05882791       0.02938939
  |                                  0.00690796       0.02938939       0.02360008
  ----------------------------------------------------------------------
  | Atom     8: H
  |   Hirshfeld charge        :      0.10727035
  |   Free atom volume        :     10.44207651
  |   Hirshfeld volume        :      7.57153406
  |   Hirshfeld dipole vector :      0.01104709       0.01991145       0.04577998
  |   Hirshfeld dipole moment :      0.05113033
  |   Hirshfeld second moments:      0.10716539       0.00085364       0.00812977
  |                                  0.00085364       0.06846879      -0.02558233
  |                                  0.00812977      -0.02558233       0.05813679
  ----------------------------------------------------------------------
  | Atom     9: H
  |   Hirshfeld charge        :      0.15581306
  |   Free atom volume        :     10.44207651
  |   Hirshfeld volume        :      6.13417762
  |   Hirshfeld dipole vector :      0.08965802      -0.07653732       0.01388923
  |   Hirshfeld dipole moment :      0.11869892
  |   Hirshfeld second moments:      0.11880170       0.00155077       0.00067729
  |                                  0.00155077       0.12025274       0.01416516
  |                                  0.00067729       0.01416516       0.11978684
  ----------------------------------------------------------------------
  | Atom    10: O
  |   Hirshfeld charge        :     -0.19149608
  |   Free atom volume        :     23.95238533
  |   Hirshfeld volume        :     20.30345117
  |   Hirshfeld dipole vector :     -0.00283077      -0.00969368      -0.01405230
  |   Hirshfeld dipole moment :      0.01730456
  |   Hirshfeld second moments:      0.06103196      -0.01351808       0.00605777
  |                                 -0.01351808       0.05828515      -0.00667887
  |                                  0.00605777      -0.00667887       0.09921174
  ----------------------------------------------------------------------
  | Atom    11: H
  |   Hirshfeld charge        :      0.16339329
  |   Free atom volume        :     10.44207651
  |   Hirshfeld volume        :      5.82787683
  |   Hirshfeld dipole vector :      0.01782333      -0.01566393       0.11442312
  |   Hirshfeld dipole moment :      0.11685752
  |   Hirshfeld second moments:      0.13106436      -0.00787286      -0.00045247
  |                                 -0.00787286       0.12577906       0.00010917
  |                                 -0.00045247       0.00010917       0.12233317
  ----------------------------------------------------------------------
  | Atom    12: H
  |   Hirshfeld charge        :      0.10490510
  |   Free atom volume        :     10.44207651
  |   Hirshfeld volume        :      7.27465238
  |   Hirshfeld dipole vector :     -0.02692870       0.02349527       0.00291807
  |   Hirshfeld dipole moment :      0.03585663
  |   Hirshfeld second moments:      0.06707659       0.02412415      -0.01826807
  |                                  0.02412415       0.06895339       0.01246312
  |                                 -0.01826807       0.01246312       0.11122979
  ----------------------------------------------------------------------
  | Atom    13: O
  |   Hirshfeld charge        :     -0.25665742
  |   Free atom volume        :     23.95238533
  |   Hirshfeld volume        :     20.87074058
  |   Hirshfeld dipole vector :      0.01349891      -0.02537199       0.02489483
  |   Hirshfeld dipole moment :      0.03802251
  |   Hirshfeld second moments:      0.06926447       0.03833794      -0.00914695
  |                                  0.03833794       0.04081741       0.01858340
  |                                 -0.00914695       0.01858340       0.04085921
  ----------------------------------------------------------------------
  | Atom    14: H
  |   Hirshfeld charge        :      0.15293639
  |   Free atom volume        :     10.44207651
  |   Hirshfeld volume        :      6.01092641
  |   Hirshfeld dipole vector :      0.09909698       0.06155779       0.03470530
  |   Hirshfeld dipole moment :      0.12171290
  |   Hirshfeld second moments:      0.12007410       0.00759284      -0.01061958
  |                                  0.00759284       0.11726804       0.00011960
  |                                 -0.01061958       0.00011960       0.12519250
  ----------------------------------------------------------------------
  | Atom    15: H
  |   Hirshfeld charge        :      0.09660665
  |   Free atom volume        :     10.44207651
  |   Hirshfeld volume        :      7.44728489
  |   Hirshfeld dipole vector :     -0.02220055      -0.02071530       0.03168804
  |   Hirshfeld dipole moment :      0.04388758
  |   Hirshfeld second moments:      0.07669021      -0.00544603       0.03350085
  |                                 -0.00544603       0.08922545       0.01745181
  |                                  0.03350085       0.01745181       0.07075633
  ----------------------------------------------------------------------
  | Atom    16: O
  |   Hirshfeld charge        :     -0.18773707
  |   Free atom volume        :     23.95238533
  |   Hirshfeld volume        :     19.94261281
  |   Hirshfeld dipole vector :      0.02040598       0.01352703       0.00907849
  |   Hirshfeld dipole moment :      0.02611137
  |   Hirshfeld second moments:      0.06368772      -0.02286174      -0.04031251
  |                                 -0.02286174       0.07693523      -0.00704437
  |                                 -0.04031251      -0.00704437       0.09807579
  ----------------------------------------------------------------------
  | Atom    17: H
  |   Hirshfeld charge        :      0.17388539
  |   Free atom volume        :     10.44207651
  |   Hirshfeld volume        :      5.41212019
  |   Hirshfeld dipole vector :     -0.06167650       0.08338206       0.06627352
  |   Hirshfeld dipole moment :      0.12308021
  |   Hirshfeld second moments:      0.13203122       0.00035263      -0.00937423
  |                                  0.00035263       0.13384210      -0.01221661
  |                                 -0.00937423      -0.01221661       0.14267182
  ----------------------------------------------------------------------
  | Atom    18: H
  |   Hirshfeld charge        :      0.18750781
  |   Free atom volume        :     10.44207651
  |   Hirshfeld volume        :      5.86279499
  |   Hirshfeld dipole vector :      0.05094982       0.05213220      -0.09181105
  |   Hirshfeld dipole moment :      0.11723020
  |   Hirshfeld second moments:      0.11537081      -0.00984569      -0.00001829
  |                                 -0.00984569       0.13908263       0.00546758
  |                                 -0.00001829       0.00546758       0.13262042
  ----------------------------------------------------------------------


------------------------------------------------------------------------------
  Final output of selected total energy values:

  The following output summarizes some interesting total energy values
  at the end of a run (AFTER all relaxation, molecular dynamics, etc.).

  | Total energy of the DFT / Hartree-Fock s.c.f. calculation      :         -12498.159554973 eV
  | Final zero-broadening corrected energy (caution - metals only) :         -12498.159554973 eV
  | For reference only, the value of 1 Hartree used in FHI-aims is :             27.211384500 eV

  Before relying on these values, please be sure to understand exactly which
  total energy value is referred to by a given number. Different objects may
  all carry the same name 'total energy'. Definitions:

  Total energy of the DFT / Hartree-Fock s.c.f. calculation:
  | Note that this energy does not include ANY quantities calculated after the
  | s.c.f. cycle, in particular not ANY RPA, MP2, etc. many-body perturbation terms.

  Final zero-broadening corrected energy:
  | For metallic systems only, a broadening of the occupation numbers at the Fermi
  | level can be extrapolated back to zero broadening by an electron-gas inspired
  | formula. For all systems that are not real metals, this value can be
  | meaningless and should be avoided.

------------------------------------------------------------------------------

------------------------------------------------------------
          Leaving FHI-aims.
          Date     :  20150727, Time     :  115938.807

          Computational steps:
          | Number of self-consistency cycles          :           15

          Detailed time accounting                     :  max(cpu_time)    wall_clock(cpu1)
          | Total time                                 :       51.909 s          51.956 s
          | Preparation time                           :        0.169 s           0.417 s
          | Grid partitioning                          :        0.198 s           0.188 s
          | Preloading free-atom quantities on grid    :        0.013 s           0.014 s
          | Free-atom superposition energy             :        0.090 s           0.089 s
          | Total time for integrations                :       23.012 s          23.014 s
          | Total time for solution of K.-S. equations :        1.512 s           1.509 s
          | Total time for density & force components  :       17.271 s          17.270 s
          | Total time for mixing                      :        0.224 s           0.226 s
          | Total time for Hartree multipole update    :        0.095 s           0.093 s
          | Total time for Hartree multipole sum       :        8.699 s           8.699 s
          | Total time for total energy evaluation     :        0.004 s           0.003 s
          | Total time for scaled ZORA corrections     :        0.000 s           0.000 s
          | Total time for TS (2009) vdW correction    :        0.072 s           0.072 s

          Have a nice day.
------------------------------------------------------------
