  MPI-parallelism will be employed.
------------------------------------------------------------
          Invoking FHI-aims ...
          Version 081213
          Compiled on 2013/08/29 at 17:41:06 on host generoso.

          When using FHI-aims, please cite the following reference:

          Volker Blum, Ralf Gehrke, Felix Hanke, Paula Havu,
          Ville Havu, Xinguo Ren, Karsten Reuter, and Matthias Scheffler,
          'Ab Initio Molecular Simulations with Numeric Atom-Centered Orbitals: FHI-aims',
          Computer Physics Communications 180, 2175-2196 (2009)

          For any questions about FHI-aims, please visit the aimsclub website
          with its forums and wiki. Contributions to both the forums and the
          wiki are warmly encouraged - they are for you, and everyone is welcome there.

------------------------------------------------------------

  Date     :  20150727, Time     :  123904.925
  Time zero on CPU 1             :   0.519910000000000E-01  s.
  Internal wall clock time zero  :           207232744.925  s.

  Using        8 parallel tasks.
  Task        0 on host gen60 reporting.
  Task        1 on host gen60 reporting.
  Task        2 on host gen60 reporting.
  Task        3 on host gen60 reporting.
  Task        4 on host gen60 reporting.
  Task        5 on host gen60 reporting.
  Task        6 on host gen60 reporting.
  Task        7 on host gen60 reporting.

  Performing system and environment tests:
  | Environment variable OMP_NUM_THREADS correctly set to 1.
  | Checking for scalapack...
  | No scalapack compiled in.

  Obtaining array dimensions for all initial allocations:
  
  -----------------------------------------------------------------------
  Parsing control.in (first pass over file, find array dimensions only).
  The contents of control.in will be repeated verbatim below
  unless switched off by setting 'verbatim_writeout .false.' .
  in the first line of control.in .
  -----------------------------------------------------------------------
  
  #########################################################################################
  #
  #  Volker Blum, FHI 2008 : Test run input file control.in
  #
  #########################################################################################
  #
  #  Physical model
  #
    xc                 rpbe
    spin               none
    relativistic       atomic_zora scalar
    charge             0.
   vdw_correction_hirshfeld
  #
  #  SCF convergence
  #
    occupation_type    gaussian 0.01
    mixer              pulay
      n_max_pulay        10
      charge_mix_param   0.1
    sc_accuracy_rho    5E-5
    sc_accuracy_eev    5E-3
    sc_accuracy_etot   5E-6
    sc_iter_limit      3000
  #
  #  Eigenvalue solver
  #
    KS_method          lapack
      empty_states       8
      basis_threshold    0.e-5
  #
  #  Efficiency
  #
  #   all previous settings are now default, except stratmann still
  #   undecided. Continue to handle stratmann with care, if at all.
  #
  #  partition_type stratmann
    partition_type rho_r2
  #  hartree_partition_type stratmann
  #
  #  Oprions for large clusters (100's of atoms: memory saving / better scaling)
  #
  # for periodic systems:
  #
    density_update_method orbital
    packed_matrix_format none
  #  k_grid 6 6 6
  #  output k_eigenvalue 1
  #  distributed_spline_storage .true.
  #
  #  Relaxation
  #
  #  relax_geometry   bfgs 5.e-3
    sc_accuracy_forces 5.E-4
    final_forces_cleaned .true.
  #
  #  Output options
  #
  #  output mulliken
    output Hirshfeld
  #  output dipole
  
  #harmonic_length_scale 0.001
  
  ################################################################################
  #
  #  FHI-aims code project
  #  VB, Fritz-Haber Institut, 2007
  #
  #  Suggested "safe" defaults for H atom (to be pasted into control.in file)
  #  Basis constructed for a non-relativistic H2 molecule using the
  #  PW-LDA functional.
  #
  ################################################################################
    species        H
  #     global species definitions
      nucleus             1
      cut_pot             4.0  2.0  1.0
      cut_free_atom       finite 8.0
      logarithmic         0.00010000 100.00  1.0123
      basis_dep_cutoff    1d-4  # 1d-4 is safe default - please check 5d-4 if you wish!
      radial_base         24 7.0
      radial_multiplier   2
      angular_grids       specified
        division   0.2783  110
        division   0.3822  194
        division   0.5626  302
  #      division   0.5922  434
  #      division   0.6227  590
  #      division   0.7206  770
        outer_grid  302
      l_hartree           4
  ################################################################################
  #
  #  Definition of "minimal" basis
  #
  ################################################################################
  #     valence basis states
      valence      1  s   1.
  #     ion occupancy
      ion_occ      1  s   0.5
  ################################################################################
  #
  #  Suggested additional basis functions. For production calculations,
  #  uncomment them one after another (the most important basis functions are
  #  listed first).
  #
  ################################################################################
  #  "First tier" - improvements: -1014.90 meV to -62.69 meV
       hydro 2 s 2.1
       hydro 2 p 3.5
  #  "Second tier" - improvements: -12.89 meV to -1.83 meV
       hydro 1 s 0.85
       hydro 2 p 3.7
       hydro 2 s 1.2
       hydro 3 d 7
  #  "Third tier" - improvements: -0.25 meV to -0.12 meV
  #     hydro 4 f 11.2
  #     hydro 3 p 4.8
  #     hydro 4 d 9
  #     hydro 3 s 3.2
  
  ################################################################################
  #
  #  FHI-aims code project
  #  VB, Fritz-Haber Institut, 2007
  #
  #  Suggested "safe" defaults for O atom (to be pasted into control.in file)
  #  All values have been tested for a non-relativistic, non-spinpolarized O2
  #  molecule using the PW-LDA functional. Validity for PBE is expected.
  #
  #  Constructed for dimers: 1.0 A, 1.208 A, 1.5 A, 2.0 A, 3.0 A
  #
  ################################################################################
    species        O
  #     global species definitions
      nucleus             8
      mass                15.9994
      l_hartree           4
      cut_pot             4.0  2.0  1.0
      cut_free_atom       finite 8.0
      basis_dep_cutoff    1d-4  # 1d-4 is safe default - please check 5d-4 if you wish!
      logarithmic         0.00010000 100.00  1.0123
      radial_base         36 7.0
      radial_multiplier   2
       angular_grids specified
        division   0.4087  110
        division   0.5181  194
        division   0.6184  302
  #      division   0.7315  434
  #      division   0.7934  590
  #      division   0.9656  770
  #      division   1.4041  974
  #      outer_grid 974
        outer_grid 302
  ################################################################################
  #
  #  Definition of "minimal" basis
  #
  ################################################################################
  #     valence basis states
      valence      2  s   2.
      valence      2  p   4.
  #     ion occupancy
      ion_occ      2  s   1.
      ion_occ      2  p   3.
  ################################################################################
  #
  #  Suggested additional basis functions. For production calculations,
  #  uncomment them one after another (the most important basis functions are
  #  listed first).
  #
  ################################################################################
  #  "First tier" - improvements: -699.05 meV to -159.38 meV
       hydro 2 p 1.8
       hydro 3 d 7.6
       hydro 3 s 6.4
  #  "Second tier" - improvements: -49.91 meV to -5.39 meV
       hydro 4 f 11.6
       hydro 3 p 6.2
       hydro 3 d 5.6
       hydro 5 g 17.6
       hydro 1 s 0.75
  #  "Third tier" - improvements: -2.83 meV to -0.50 meV
  #     ionic 2 p auto
  #     hydro 4 f 10.8
  #     hydro 4 d 4.7
  #     hydro 2 s 6.8
  #  "Fourth tier" - improvements: -0.40 meV to -0.12 meV
  #     hydro 3 p 5
  #     hydro 3 s 3.3
  #     hydro 5 g 15.6
  #     hydro 4 f 17.6
  #     hydro 4 d 14
  # Further basis functions - -0.08 meV and below
  #     hydro 3 s 2.1
  #     hydro 4 d 11.6
  #     hydro 3 p 16
  #     hydro 2 s 17.2
  
  
  -----------------------------------------------------------------------
  Completed first pass over input file control.in .
  -----------------------------------------------------------------------
  
  
  -----------------------------------------------------------------------
  Parsing geometry.in (first pass over file, find array dimensions only).
  The contents of geometry.in will be repeated verbatim below
  unless switched off by setting 'verbatim_writeout .false.' .
  in the first line of geometry.in .
  -----------------------------------------------------------------------
  
  atom      -4.053030000      0.065001000     -1.525160000  O
  atom      -4.566710000      0.974813000     -1.912820000  H
  atom      -3.067820000      0.330172000     -1.477310000  H
  atom      -3.818880000      2.024990000      2.187990000  O
  atom      -3.690880000      1.961360000      3.202150000  H
  atom      -4.546490000      2.751300000      2.045370000  H
  atom      -1.975360000      2.858040000      0.453140000  O
  atom      -1.223550000      3.375850000      0.786238000  H
  atom      -2.537520000      2.567960000      1.156120000  H
  atom      -5.628340000      3.730740000      1.385610000  O
  atom      -6.090650000      4.418470000      1.860350000  H
  atom      -5.158540000      4.200260000      0.615875000  H
  
  -----------------------------------------------------------------------
  Completed first pass over input file geometry.in .
  -----------------------------------------------------------------------
  
 
  Basic array size parameters: 
  | Number of species                 :        2
  | Number of atoms                   :       12
  | Max. basis fn. angular momentum   :        4
  | Max. atomic/ionic basis occupied n:        2
  | Max. number of basis fn. types    :        2
  | Max. radial fns per species/type  :        8
  | Max. logarithmic grid size        :     1301
  | Max. radial integration grid size :       73
  | Max. angular integration grid size:      302
  | Max. angular grid division number :        8
  | Radial grid for Hartree potential :     1301
  | Number of spin channels           :        1

------------------------------------------------------------
          Reading file control.in.
------------------------------------------------------------
  XC: Using RPBE gradient-corrected functionals.
  Spin treatment: No spin polarisation.
  Scalar relativistic treatment of kinetic energy: on-site free-atom approximation to ZORA.
  Charge =   0.000000E+00: Neutral system requested explicitly.
  Using non-empirical van der Waals correction (Hirshfeld partitioning):
  Occupation type: Gaussian broadening, width =   0.100000E-01 eV.
  Using pulay charge density mixing.
  Pulay mixing - number of memorized iterations:   10
  Charge density mixing - mixing parameter:     0.1000
  Convergence accuracy of self-consistent charge density: 0.5000E-04
  Convergence accuracy of sum of eigenvalues: 0.5000E-02
  Convergence accuracy of total energy: 0.5000E-05
  Maximum number of s.-c. iterations  :  3000
  Kohn-Sham eigenvalues and eigenfunctions calculated by lapack diagonalisation (D&C).
  Number of empty states per atom:        8
  Threshold for basis singularities: 0.0000E+00
  Partition function in integrals calculations: rho / r^2
 Using packed matrix format           0
  Convergence accuracy of forces: 0.5000E-03
  Cleaning forces before final output.
  Hirshfeld charge analysis will be performed.
 
  Reading configuration options for species H                   .
  | Found nuclear charge :   1.0000
  | Found cutoff potl. onset [A], width [A], scale factor :    4.00000    2.00000    1.00000
  | Found cutoff specification for free atom: Cutoff potential begins at    8.00000 A.
  | Found logarithmic grid data [bohr] : 0.1000E-03 0.1000E+03 0.1012E+01
  | Threshold for basis-dependent cutoff potential is   0.100000E-03
  | Found data for basic radial integration grid :    24 points, outermost radius =    7.000 A
  | Found multiplier for basic radial grid :   2
  | Found angular grid specification: user-specified.
  | Specified grid contains     4 separate shells.
  | Check grid settings after all constraints further below.
  | Found l_max for Hartree potential  :   4
  | Found free-atom valence shell :  1 s   1.000
  | No ionic wave fns used. Skipping ion_occ.
  | Found hydrogenic basis function :  2 s   2.100
  | Found hydrogenic basis function :  2 p   3.500
  | Found hydrogenic basis function :  1 s   0.850
  | Found hydrogenic basis function :  2 p   3.700
  | Found hydrogenic basis function :  2 s   1.200
  | Found hydrogenic basis function :  3 d   7.000
  Species H                   : Missing cutoff potential type.
  Defaulting to exp(1/x)/(1-x)^2 type cutoff potential.
  Species H : On-site basis accuracy parameter (for Gram-Schmidt orthonormalisation) not specified.
  Using default value basis_acc =  0.1000000E-03.
  Species H                   : Using default innermost maximum threshold i_radial=  2 for radial functions.
  Species H                   : Basic radial grid will be enhanced according to radial_multiplier =   2, to contain    49 grid points.
 
  Reading configuration options for species O                   .
  | Found nuclear charge :   8.0000
  | Found atomic mass :    15.9994000000000      amu
  | Found l_max for Hartree potential  :   4
  | Found cutoff potl. onset [A], width [A], scale factor :    4.00000    2.00000    1.00000
  | Found cutoff specification for free atom: Cutoff potential begins at    8.00000 A.
  | Threshold for basis-dependent cutoff potential is   0.100000E-03
  | Found logarithmic grid data [bohr] : 0.1000E-03 0.1000E+03 0.1012E+01
  | Found data for basic radial integration grid :    36 points, outermost radius =    7.000 A
  | Found multiplier for basic radial grid :   2
  | Found angular grid specification: user-specified.
  | Specified grid contains     4 separate shells.
  | Check grid settings after all constraints further below.
  | Found free-atom valence shell :  2 s   2.000
  | Found free-atom valence shell :  2 p   4.000
  | No ionic wave fns used. Skipping ion_occ.
  | No ionic wave fns used. Skipping ion_occ.
  | Found hydrogenic basis function :  2 p   1.800
  | Found hydrogenic basis function :  3 d   7.600
  | Found hydrogenic basis function :  3 s   6.400
  | Found hydrogenic basis function :  4 f  11.600
  | Found hydrogenic basis function :  3 p   6.200
  | Found hydrogenic basis function :  3 d   5.600
  | Found hydrogenic basis function :  5 g  17.600
  | Found hydrogenic basis function :  1 s   0.750
  Species O                   : Missing cutoff potential type.
  Defaulting to exp(1/x)/(1-x)^2 type cutoff potential.
  Species O : On-site basis accuracy parameter (for Gram-Schmidt orthonormalisation) not specified.
  Using default value basis_acc =  0.1000000E-03.
  Species O                   : Using default innermost maximum threshold i_radial=  2 for radial functions.
  Species O                   : Basic radial grid will be enhanced according to radial_multiplier =   2, to contain    73 grid points.
 
  Finished reading input file 'control.in'. Consistency checks are next.
 
  Target number of points in a grid batch is not set. Defaulting to  100
  Method for grid partitioning is not set. Defaulting to parallel hash+maxmin partitioning.
  Batch size limit is not set. Defaulting to    200
  By default, will store active basis functions for each batch.
  If in need of memory, prune_basis_once .false. can be used to disable this option.
  communication_type for Hartree potential was not specified.
  Defaulting to calc_hartree .
  Pulay mixer: Number of initial linear mixing iterations not set.
  Defaulting to    0 iterations.
  Work space size for distributed Hartree potential not set.
  Defaulting to   0.200000E+03 MB.
  Algorithm-dependent basis array size parameters:
  | n_max_pulay                         :       10
  Geometry relaxation not requested: no relaxation will be performed.
  Handling of forces: Unphysical translation and rotation will be removed from forces.
  No accuracy limit for integral partition fn. given. Defaulting to 0.1000E-14.
  No threshold value for u(r) in integrations given. Defaulting to 0.1000E-05.
  No accuracy for occupation numbers given. Defaulting to 0.1000E-07.
  No threshold value for occupation numbers given. Defaulting to 0.0000E+00.
  No accuracy for fermi level given. Defaulting to 0.1000E-19.
  Maximum # of iterations to find E_F not set. Defaulting to  200.
  Will not use alltoall communication since running on < 1024 CPUs.
  Partitioning for Hartree potential was not defined. Using partition_type for integrals.
  | Reporting present value of keyword multip_moments_threshold  :       0.10000000E-09
  | This value may affect high angular momentum components of the Hartree potential in periodic systems.
  No q(lm)/r^(l+1) cutoff set for long-range Hartree potential.
  | Using default value of  0.100000E-09 .
  | Verify using the multipole_threshold keyword.
  Defaulting to new monopole extrapolation.
  Density update method: Loop over occupied states selected for charge density update.
------------------------------------------------------------


------------------------------------------------------------
          Reading geometry description geometry.in.
------------------------------------------------------------
  Input structure read successfully.
  The structure contains       12 atoms,  and a total of         40.000 electrons.

  Input geometry:
  | No unit cell requested.
  | Atomic structure:
  |       Atom                x [A]            y [A]            z [A]
  |    1: Species O             -4.053030         0.065001        -1.525160
  |    2: Species H             -4.566710         0.974813        -1.912820
  |    3: Species H             -3.067820         0.330172        -1.477310
  |    4: Species O             -3.818880         2.024990         2.187990
  |    5: Species H             -3.690880         1.961360         3.202150
  |    6: Species H             -4.546490         2.751300         2.045370
  |    7: Species O             -1.975360         2.858040         0.453140
  |    8: Species H             -1.223550         3.375850         0.786238
  |    9: Species H             -2.537520         2.567960         1.156120
  |   10: Species O             -5.628340         3.730740         1.385610
  |   11: Species H             -6.090650         4.418470         1.860350
  |   12: Species H             -5.158540         4.200260         0.615875
  |

  | The smallest distance between any two atoms is         0.94570141 AA.
  |
  | The first atom of this pair is atom number                      7 .
  | The second atom of this pair is atom number                     9 .

  Structure-dependent array size parameters: 
  | Maximum number of distinct radial functions  :       18
  | Maximum number of basis functions            :      276
  | Number of Kohn-Sham states (occupied + empty):       68
------------------------------------------------------------

------------------------------------------------------------
          Preparing all fixed parts of the calculation.
------------------------------------------------------------
  Determining machine precision:
    2.225073858507201E-308
  Setting up grids for atomic and cluster calculations.

  Creating wave function, potential, and density for free atoms.

  Species: H

  List of occupied orbitals and eigenvalues:
    n    l              occ      energy [Ha]    energy [eV]
    1    0           1.0000        -0.241408        -6.5691


  Species: O

  List of occupied orbitals and eigenvalues:
    n    l              occ      energy [Ha]    energy [eV]
    1    0           2.0000       -18.944147      -515.4965
    2    0           2.0000        -0.883529       -24.0421
    2    1           4.0000        -0.330176        -8.9845

  Creating fixed part of basis set: Ionic, confined, hydrogenic.
 
  H                    hydrogenic:
 
  List of hydrogenic basis orbitals: 
    n    l      effective z      eigenvalue [eV]  inner max. [A]     outer max. [A]     outer radius [A]   
    2    0         2.100000       -14.9965           0.193241           1.317192           5.372934
    2    1         3.500000       -41.6672           0.602363           0.602363           4.056010
    1    0         0.850000        -9.8292           0.624864           0.624864           5.372934
    2    1         3.700000       -46.5653           0.573616           0.573616           3.909951
    2    0         1.200000        -4.5995           0.334977           2.228160           5.505921
    3    2         7.000000       -74.0753           0.680692           0.680692           3.769152
 
 
  O                    hydrogenic:
 
  List of hydrogenic basis orbitals: 
    n    l      effective z      eigenvalue [eV]  inner max. [A]     outer max. [A]     outer radius [A]   
    2    1         1.800000       -11.0118           1.178546           1.178546           5.432516
    3    2         7.600000       -87.3182           0.624117           0.624117           3.541422
    3    0         6.400000       -61.9209           0.061166           1.081887           4.306510
    4    3        11.600000      -114.4238           0.731621           0.731621           3.584982
    3    1         6.200000       -58.1113           0.255677           1.030255           4.306510
    3    2         5.600000       -47.4081           0.847222           0.847222           4.413102
    5    4        17.600000      -168.5799           0.749730           0.749730           3.372413
    1    0         0.750000        -7.6499           0.705275           0.705275           5.366508
 

  Adding cutoff potential to free-atom effective potential.
  Creating atomic-like basis functions for current effective potential.

  Species H                   :

  List of atomic basis orbitals and eigenvalues:
    n    l      energy [Ha]    energy [eV]    outer radius [A]
    1    0        -0.241374        -6.5681       5.372934


  Species O                   :

  List of atomic basis orbitals and eigenvalues:
    n    l      energy [Ha]    energy [eV]    outer radius [A]
    1    0       -18.944147      -515.4965       1.415745
    2    0        -0.883529       -24.0421       5.048305
    2    1        -0.330173        -8.9845       5.301302

  Assembling full basis from fixed parts.
  | Species H :   atomic orbital   1 s accepted.
  | Species H :    hydro orbital   2 s accepted.
  | Species H :    hydro orbital   1 s accepted.
  | Species H :    hydro orbital   2 s accepted.
  | Species H :    hydro orbital   2 p accepted.
  | Species H :    hydro orbital   2 p accepted.
  | Species H :    hydro orbital   3 d accepted.
  | Species O :   atomic orbital   1 s accepted.
  | Species O :    hydro orbital   3 s accepted.
  | Species O :   atomic orbital   2 s accepted.
  | Species O :    hydro orbital   1 s accepted.
  | Species O :    hydro orbital   3 p accepted.
  | Species O :   atomic orbital   2 p accepted.
  | Species O :    hydro orbital   2 p accepted.
  | Species O :    hydro orbital   3 d accepted.
  | Species O :    hydro orbital   3 d accepted.
  | Species O :    hydro orbital   4 f accepted.
  | Species O :    hydro orbital   5 g accepted.
 
  Basis size parameters after reduction:
  | Total number of radial functions:       18
  | Total number of basis functions :      276
 
  Testing on-site integration grid accuracy.
  |  Species  Function  <phi|h_atom|phi> (log., in eV)  <phi|h_atom|phi> (rad., in eV)
           1        1                 -6.5683835025                 -6.5684759159
           1        2                 13.3711789951                 13.3708738703
           1        3                 23.6590910787                 23.6532055418
           1        4                 16.2963827186                 16.1870710655 ***
           1        5                 28.7627214838                 28.7627215090
           1        6                 59.5965249172                 59.5965950857
           1        7                 60.2220506392                 60.2220503827
           2        8               -515.4964576505               -515.4964530710
           2        9                 15.3030791347                 15.3030722972
           2       10                -21.7296094581                -21.7296135470
           2       11                 14.2969371730                 14.2969701621
           2       12                 21.0679693190                 21.0679697493
           2       13                 -2.3833606469                 -2.3833613176
           2       14                 13.7067136422                 13.7066766629
           2       15                 45.8013116808                 45.8013116965
           2       16                 52.2309815402                 52.2309831494
           2       17                 85.4120732416                 85.4120732763
           2       18                142.1019167745                142.1019167817
 * Note: Onsite integrals marked "***" above are less accurate than
 * onsite_accuracy_threshold =    0.03000 eV. Usually, this is harmless.
 * When in doubt, tighten the "radial" and/or "radial_multiplier" flags to check.

  Preparing densities etc. for the partition functions (integrals / Hartree potential).

  Preparations completed.
  max(cpu_time)          :      0.173 s.
  Wall clock time (cpu1) :      0.656 s.
------------------------------------------------------------

------------------------------------------------------------
          Begin self-consistency loop: Initialization.

          Date     :  20150727, Time     :  123905.602
------------------------------------------------------------

  Initializing index lists of integration centers etc. from given atomic structure:
  | Number of centers in hartree potential         :        12
  | Number of centers in hartree multipole         :        12
  | Number of centers in electron density summation:        12
  | Number of centers in basis integrals           :        12
  | Number of centers in integrals                 :        12
  Partitioning the integration grid into batches with parallel hashing+maxmin method.
  | Number of batches:     1646
  | Maximal batch size:     194
  | Minimal batch size:      49
  | Average batch size:      95.606
  | Standard deviation of batch sizes:      33.057

  Integration load balanced across     8 MPI tasks.
  Work distribution over tasks is as follows:
  Task     0 has      19655 integration points.
  Task     1 has      19715 integration points.
  Task     2 has      19660 integration points.
  Task     3 has      19727 integration points.
  Task     4 has      19636 integration points.
  Task     5 has      19625 integration points.
  Task     6 has      19725 integration points.
  Task     7 has      19625 integration points.
  Initializing partition tables, free-atom densities, potentials, etc. across the integration grid (initialize_grid_storage).
  | Net number of integration points:   157368
  | of which are non-zero points    :   156840
  Obtaining max. number of non-zero basis functions in each batch (get_n_compute_maxes).
  | Maximal number of non-zero basis functions:      274 in task     0
  | Maximal number of non-zero basis functions:      274 in task     1
  | Maximal number of non-zero basis functions:      274 in task     2
  | Maximal number of non-zero basis functions:      274 in task     3
  | Maximal number of non-zero basis functions:      274 in task     4
  | Maximal number of non-zero basis functions:      274 in task     5
  | Maximal number of non-zero basis functions:      274 in task     6
  | Maximal number of non-zero basis functions:      274 in task     7
  Integrating Hamiltonian matrix: batch-based integration.
  Time summed over all CPUs for integration: real work        4.319 s, elapsed        4.495 s
  Integrating overlap matrix.
  Time summed over all CPUs for integration: real work        2.282 s, elapsed        2.366 s

  Updating Kohn-Sham eigenvalues, eigenvectors, occupation numbers, and Fermi level.
  Solving generalized eigenproblem
  Updating Kohn-Sham eigenvalues and eigenfunctions.
  Transforming overlap matrix and checking for singularities.
  Overlap matrix is nonsingular:
  | Lowest eigenvalue:  0.297428E-03
  Solving real generalised eigenvalue problem by standard LAPACK (fast)
  Determining occupation numbers for Kohn-Sham eigenstates.
  | Chemical potential (Fermi level) in eV                 : -.45443131E+01
  | Error in electron count due to remaining E_F inaccuracy: 0.00000000E+00
  | Maximum occupation number of highest empty state:  0.00E+00

  Writing Kohn-Sham eigenvalues.

  State    Occupation    Eigenvalue [Ha]    Eigenvalue [eV]
      1       2.00000         -19.054638         -518.50308
      2       2.00000         -19.050528         -518.39125
      3       2.00000         -19.032793         -517.90865
      4       2.00000         -19.019188         -517.53843
      5       2.00000          -1.105738          -30.08866
      6       2.00000          -1.098855          -29.90137
      7       2.00000          -1.064263          -28.96007
      8       2.00000          -1.042754          -28.37478
      9       2.00000          -0.651696          -17.73356
     10       2.00000          -0.628596          -17.10496
     11       2.00000          -0.602657          -16.39913
     12       2.00000          -0.569543          -15.49806
     13       2.00000          -0.522632          -14.22153
     14       2.00000          -0.504263          -13.72171
     15       2.00000          -0.485998          -13.22468
     16       2.00000          -0.478828          -13.02956
     17       2.00000          -0.439553          -11.96084
     18       2.00000          -0.438472          -11.93144
     19       2.00000          -0.424306          -11.54596
     20       2.00000          -0.409169          -11.13405
     21       0.00000          -0.094654           -2.57567
     22       0.00000          -0.075594           -2.05700
     23       0.00000          -0.054412           -1.48062
     24       0.00000          -0.040100           -1.09117
     25       0.00000          -0.019273           -0.52445
     26       0.00000          -0.003281           -0.08928
     27       0.00000           0.045469            1.23726
     28       0.00000           0.055791            1.51816
     29       0.00000           0.070047            1.90607
     30       0.00000           0.075704            2.06001
     31       0.00000           0.087154            2.37158
     32       0.00000           0.095623            2.60203
     33       0.00000           0.097752            2.65996
     34       0.00000           0.109689            2.98480
     35       0.00000           0.114866            3.12567
     36       0.00000           0.116582            3.17235
     37       0.00000           0.129406            3.52131
     38       0.00000           0.147334            4.00917
     39       0.00000           0.156259            4.25202
     40       0.00000           0.170461            4.63848
     41       0.00000           0.189440            5.15493
     42       0.00000           0.191566            5.21277
     43       0.00000           0.221793            6.03530
     44       0.00000           0.239761            6.52422
     45       0.00000           0.254611            6.92833
     46       0.00000           0.270689            7.36582
     47       0.00000           0.281301            7.65459
     48       0.00000           0.316420            8.61023
     49       0.00000           0.325699            8.86272
     50       0.00000           0.341832            9.30172
     51       0.00000           0.354772            9.65384
     52       0.00000           0.368145           10.01773
     53       0.00000           0.383155           10.42618
     54       0.00000           0.389777           10.60637
     55       0.00000           0.398535           10.84468
     56       0.00000           0.418842           11.39727
     57       0.00000           0.425942           11.59046
     58       0.00000           0.441372           12.01034
     59       0.00000           0.451035           12.27329
     60       0.00000           0.476724           12.97232
     61       0.00000           0.492624           13.40498
     62       0.00000           0.519533           14.13721
     63       0.00000           0.543611           14.79241
     64       0.00000           0.566477           15.41463
     65       0.00000           0.574235           15.62573
     66       0.00000           0.635974           17.30575
     67       0.00000           0.656488           17.86396
     68       0.00000           0.708707           19.28491

  Highest occupied state (VBM) at    -11.13404694 eV
  | Occupation number:      2.00000000

  Lowest unoccupied state (CBM) at    -2.57566640 eV
  | Occupation number:      0.00000000

  Overall HOMO-LUMO gap:      8.55838054 eV.
  Calculating total energy contributions from superposition of free atom densities.

  Total energy components:
  | Sum of eigenvalues            :        -173.24894092 Ha       -4714.34354546 eV
  | XC energy correction          :         -36.41444476 Ha        -990.88745760 eV
  | XC potential correction       :          46.52478299 Ha        1266.00375860 eV
  | Free-atom electrostatic energy:        -143.32087964 Ha       -3899.95956272 eV
  | Hartree energy correction     :           0.00000000 Ha           0.00000000 eV
  | van der Waals energy corr.    :           0.00000000 Ha           0.00000000 eV
  | Entropy correction            :           0.00000000 Ha           0.00000000 eV
  | ---------------------------
  | Total energy                  :        -306.45948232 Ha       -8339.18680718 eV
  | Total energy, T -> 0          :        -306.45948232 Ha       -8339.18680718 eV  <-- do not rely on this value for anything but (periodic) metals
  | Electronic free energy        :        -306.45948232 Ha       -8339.18680718 eV

  Derived energy quantities:
  | Kinetic energy                :         303.25024946 Ha        8251.85913774 eV
  | Electrostatic energy          :        -573.29528703 Ha      -15600.15848733 eV
  | Energy correction for multipole
  | error in Hartree potential    :           0.00000000 Ha           0.00000000 eV
  | Sum of eigenvalues per atom                           :        -392.86196212 eV
  | Total energy (T->0) per atom                          :        -694.93223393 eV  <-- do not rely on this value for anything but (periodic) metals
  | Electronic free energy per atom                       :        -694.93223393 eV
  Initialize hartree_potential_storage
  Max. number of atoms included in rho_multipole:           12

  End scf initialization - timings             :  max(cpu_time)    wall_clock(cpu1)
  | Time for scf. initialization               :        1.254 s           1.247 s
  | Boundary condition initialization          :        0.000 s           0.000 s
  | Integration                                :        0.860 s           0.860 s
  | Solution of K.-S. eqns.                    :        0.118 s           0.118 s
  | Grid partitioning                          :        0.120 s           0.120 s
  | Preloading free-atom quantities on grid    :        0.013 s           0.013 s
  | Free-atom superposition energy             :        0.046 s           0.045 s
  | Total energy evaluation                    :        0.000 s           0.000 s
------------------------------------------------------------

------------------------------------------------------------
          Begin self-consistency iteration #    1

  Date     :  20150727, Time     :  123906.849
------------------------------------------------------------
  Evaluating new KS density.
  Integration grid: deviation in total charge (<rho> - N_e) =   7.105427E-15
  Pulay mixing of updated and previous charge densities.

  Evaluating partitioned Hartree potential by multipole expansion.
  | Analytical far-field extrapolation by fixed multipoles:
  | Hartree multipole sum: apparent total charge =  -0.135404E-05
  Summing up the Hartree potential.
  Time summed over all CPUs for potential: real work        1.655 s, elapsed        1.667 s
  | RMS charge density error from multipole expansion :   0.142067E-02

  Integrating Hamiltonian matrix: batch-based integration.
  Time summed over all CPUs for integration: real work        4.313 s, elapsed        4.483 s

  Updating Kohn-Sham eigenvalues, eigenvectors, occupation numbers, and Fermi level.
  Solving generalized eigenproblem
  Updating Kohn-Sham eigenvalues and eigenfunctions.
  Solving real generalised eigenvalue problem by standard LAPACK (fast)
  Determining occupation numbers for Kohn-Sham eigenstates.
  | Chemical potential (Fermi level) in eV                 : -.41446787E+01
  | Error in electron count due to remaining E_F inaccuracy: 0.00000000E+00
  | Maximum occupation number of highest empty state:  0.00E+00

  Writing Kohn-Sham eigenvalues.

  State    Occupation    Eigenvalue [Ha]    Eigenvalue [eV]
      1       2.00000         -18.984422         -516.59240
      2       2.00000         -18.968212         -516.15132
      3       2.00000         -18.957388         -515.85677
      4       2.00000         -18.943318         -515.47390
      5       2.00000          -1.068795          -29.08339
      6       2.00000          -1.060610          -28.86065
      7       2.00000          -1.025432          -27.90343
      8       2.00000          -1.002840          -27.28865
      9       2.00000          -0.612837          -16.67615
     10       2.00000          -0.602022          -16.38186
     11       2.00000          -0.571576          -15.55337
     12       2.00000          -0.536470          -14.59809
     13       2.00000          -0.488864          -13.30267
     14       2.00000          -0.462717          -12.59118
     15       2.00000          -0.447301          -12.17167
     16       2.00000          -0.439920          -11.97084
     17       2.00000          -0.405454          -11.03297
     18       2.00000          -0.393059          -10.69568
     19       2.00000          -0.383344          -10.43131
     20       2.00000          -0.367323           -9.99537
     21       0.00000          -0.086032           -2.34105
     22       0.00000          -0.066709           -1.81523
     23       0.00000          -0.047097           -1.28157
     24       0.00000          -0.031808           -0.86553
     25       0.00000          -0.009230           -0.25116
     26       0.00000           0.002908            0.07912
     27       0.00000           0.054852            1.49259
     28       0.00000           0.063898            1.73875
     29       0.00000           0.079209            2.15539
     30       0.00000           0.085351            2.32252
     31       0.00000           0.095991            2.61204
     32       0.00000           0.104304            2.83826
     33       0.00000           0.107701            2.93070
     34       0.00000           0.116577            3.17222
     35       0.00000           0.123826            3.36947
     36       0.00000           0.129321            3.51899
     37       0.00000           0.137727            3.74773
     38       0.00000           0.156177            4.24978
     39       0.00000           0.172254            4.68727
     40       0.00000           0.179958            4.89691
     41       0.00000           0.199284            5.42279
     42       0.00000           0.202070            5.49861
     43       0.00000           0.231896            6.31021
     44       0.00000           0.249568            6.79108
     45       0.00000           0.263282            7.16426
     46       0.00000           0.278443            7.57681
     47       0.00000           0.291098            7.92119
     48       0.00000           0.324750            8.83691
     49       0.00000           0.335374            9.12599
     50       0.00000           0.349870            9.52044
     51       0.00000           0.364486            9.91818
     52       0.00000           0.376564           10.24683
     53       0.00000           0.391072           10.64161
     54       0.00000           0.399063           10.85906
     55       0.00000           0.407988           11.10191
     56       0.00000           0.427595           11.63545
     57       0.00000           0.434029           11.81054
     58       0.00000           0.451507           12.28614
     59       0.00000           0.462817           12.59388
     60       0.00000           0.488047           13.28044
     61       0.00000           0.501901           13.65743
     62       0.00000           0.530955           14.44801
     63       0.00000           0.556902           15.15407
     64       0.00000           0.579757           15.77600
     65       0.00000           0.585021           15.91923
     66       0.00000           0.648557           17.64813
     67       0.00000           0.669233           18.21075
     68       0.00000           0.720819           19.61449

  Highest occupied state (VBM) at     -9.99536671 eV
  | Occupation number:      2.00000000

  Lowest unoccupied state (CBM) at    -2.34104960 eV
  | Occupation number:      0.00000000

  Overall HOMO-LUMO gap:      7.65431710 eV.

  Total energy components:
  | Sum of eigenvalues            :        -171.44380590 Ha       -4665.22332261 eV
  | XC energy correction          :         -36.60674072 Ha        -996.12009709 eV
  | XC potential correction       :          46.77679021 Ha        1272.86122414 eV
  | Free-atom electrostatic energy:        -143.32087964 Ha       -3899.95956272 eV
  | Hartree energy correction     :          -1.74973030 Ha         -47.61258391 eV
  | van der Waals energy corr.    :           0.00000000 Ha           0.00000000 eV
  | Entropy correction            :           0.00000000 Ha           0.00000000 eV
  | ---------------------------
  | Total energy                  :        -306.34436635 Ha       -8336.05434219 eV
  | Total energy, T -> 0          :        -306.34436635 Ha       -8336.05434219 eV  <-- do not rely on this value for anything but (periodic) metals
  | Electronic free energy        :        -306.34436635 Ha       -8336.05434219 eV

  Derived energy quantities:
  | Kinetic energy                :         304.38356366 Ha        8282.69818636 eV
  | Electrostatic energy          :        -574.12118929 Ha      -15622.63243147 eV
  | Energy correction for multipole
  | error in Hartree potential    :          -0.00007351 Ha          -0.00200022 eV
  | Sum of eigenvalues per atom                           :        -388.76861022 eV
  | Total energy (T->0) per atom                          :        -694.67119518 eV  <-- do not rely on this value for anything but (periodic) metals
  | Electronic free energy per atom                       :        -694.67119518 eV

  Self-consistency convergence accuracy:
  | Change of charge density      : 0.5907E+00
  | Change of sum of eigenvalues  : 0.4912E+02 eV
  | Change of total energy        : 0.3132E+01 eV

  End self-consistency iteration #     1       :  max(cpu_time)    wall_clock(cpu1)
  | Time for this iteration                    :        1.186 s           1.186 s
  | Charge density update                      :        0.377 s           0.377 s
  | Density mixing                             :        0.003 s           0.002 s
  | Hartree multipole update                   :        0.004 s           0.005 s
  | Hartree multipole summation                :        0.209 s           0.209 s
  | Integration                                :        0.562 s           0.561 s
  | Solution of K.-S. eqns.                    :        0.030 s           0.031 s
  | Total energy evaluation                    :        0.000 s           0.000 s
------------------------------------------------------------

------------------------------------------------------------
          Begin self-consistency iteration #    2

  Date     :  20150727, Time     :  123908.035
------------------------------------------------------------
  Evaluating new KS density.
  Integration grid: deviation in total charge (<rho> - N_e) =   2.131628E-14
  Pulay mixing of updated and previous charge densities.

  Evaluating partitioned Hartree potential by multipole expansion.
  | Analytical far-field extrapolation by fixed multipoles:
  | Hartree multipole sum: apparent total charge =  -0.359538E-05
  Summing up the Hartree potential.
  Time summed over all CPUs for potential: real work        1.654 s, elapsed        1.668 s
  | RMS charge density error from multipole expansion :   0.562761E-02

  Integrating Hamiltonian matrix: batch-based integration.
  Time summed over all CPUs for integration: real work        4.299 s, elapsed        4.475 s

  Updating Kohn-Sham eigenvalues, eigenvectors, occupation numbers, and Fermi level.
  Solving generalized eigenproblem
  Updating Kohn-Sham eigenvalues and eigenfunctions.
  Solving real generalised eigenvalue problem by standard LAPACK (fast)
  Determining occupation numbers for Kohn-Sham eigenstates.
  | Chemical potential (Fermi level) in eV                 : -.31695908E+01
  | Error in electron count due to remaining E_F inaccuracy: 0.00000000E+00
  | Maximum occupation number of highest empty state:  0.00E+00

  Highest occupied state (VBM) at     -7.39151469 eV
  | Occupation number:      2.00000000

  Lowest unoccupied state (CBM) at    -1.86198088 eV
  | Occupation number:      0.00000000

  Overall HOMO-LUMO gap:      5.52953380 eV.

  Total energy components:
  | Sum of eigenvalues            :        -167.26518842 Ha       -4551.51735569 eV
  | XC energy correction          :         -37.07100171 Ha       -1008.75328138 eV
  | XC potential correction       :          47.38471059 Ha        1289.40357930 eV
  | Free-atom electrostatic energy:        -143.32087964 Ha       -3899.95956272 eV
  | Hartree energy correction     :          -5.94153421 Ha        -161.67737183 eV
  | van der Waals energy corr.    :           0.00000000 Ha           0.00000000 eV
  | Entropy correction            :           0.00000000 Ha           0.00000000 eV
  | ---------------------------
  | Total energy                  :        -306.21389339 Ha       -8332.50399231 eV
  | Total energy, T -> 0          :        -306.21389339 Ha       -8332.50399231 eV  <-- do not rely on this value for anything but (periodic) metals
  | Electronic free energy        :        -306.21389339 Ha       -8332.50399231 eV

  Derived energy quantities:
  | Kinetic energy                :         306.60624753 Ha        8343.18049167 eV
  | Electrostatic energy          :        -575.74913921 Ha      -15666.93120261 eV
  | Energy correction for multipole
  | error in Hartree potential    :          -0.00092615 Ha          -0.02520178 eV
  | Sum of eigenvalues per atom                           :        -379.29311297 eV
  | Total energy (T->0) per atom                          :        -694.37533269 eV  <-- do not rely on this value for anything but (periodic) metals
  | Electronic free energy per atom                       :        -694.37533269 eV

  Self-consistency convergence accuracy:
  | Change of charge density      : 0.4459E+00
  | Change of sum of eigenvalues  : 0.1137E+03 eV
  | Change of total energy        : 0.3550E+01 eV

  End self-consistency iteration #     2       :  max(cpu_time)    wall_clock(cpu1)
  | Time for this iteration                    :        1.183 s           1.183 s
  | Charge density update                      :        0.373 s           0.374 s
  | Density mixing                             :        0.005 s           0.004 s
  | Hartree multipole update                   :        0.004 s           0.004 s
  | Hartree multipole summation                :        0.209 s           0.210 s
  | Integration                                :        0.561 s           0.560 s
  | Solution of K.-S. eqns.                    :        0.030 s           0.031 s
  | Total energy evaluation                    :        0.000 s           0.000 s
------------------------------------------------------------

------------------------------------------------------------
          Begin self-consistency iteration #    3

  Date     :  20150727, Time     :  123909.218
------------------------------------------------------------
  Evaluating new KS density.
  Integration grid: deviation in total charge (<rho> - N_e) =  -7.105427E-15
  Pulay mixing of updated and previous charge densities.

  Evaluating partitioned Hartree potential by multipole expansion.
  | Analytical far-field extrapolation by fixed multipoles:
  | Hartree multipole sum: apparent total charge =  -0.274457E-05
  Summing up the Hartree potential.
  Time summed over all CPUs for potential: real work        1.654 s, elapsed        1.667 s
  | RMS charge density error from multipole expansion :   0.115988E-01

  Integrating Hamiltonian matrix: batch-based integration.
  Time summed over all CPUs for integration: real work        4.305 s, elapsed        4.473 s

  Updating Kohn-Sham eigenvalues, eigenvectors, occupation numbers, and Fermi level.
  Solving generalized eigenproblem
  Updating Kohn-Sham eigenvalues and eigenfunctions.
  Solving real generalised eigenvalue problem by standard LAPACK (fast)
  Determining occupation numbers for Kohn-Sham eigenstates.
  | Chemical potential (Fermi level) in eV                 : -.29075129E+01
  | Error in electron count due to remaining E_F inaccuracy: 0.00000000E+00
  | Maximum occupation number of highest empty state:  0.00E+00

  Highest occupied state (VBM) at     -7.13378522 eV
  | Occupation number:      2.00000000

  Lowest unoccupied state (CBM) at    -1.79214431 eV
  | Occupation number:      0.00000000

  Overall HOMO-LUMO gap:      5.34164092 eV.

  Total energy components:
  | Sum of eigenvalues            :        -167.36947339 Ha       -4554.35509402 eV
  | XC energy correction          :         -37.05579706 Ha       -1008.33954182 eV
  | XC potential correction       :          47.36112796 Ha        1288.76186335 eV
  | Free-atom electrostatic energy:        -143.32087964 Ha       -3899.95956272 eV
  | Hartree energy correction     :          -5.82430510 Ha        -158.48740541 eV
  | van der Waals energy corr.    :           0.00000000 Ha           0.00000000 eV
  | Entropy correction            :           0.00000000 Ha           0.00000000 eV
  | ---------------------------
  | Total energy                  :        -306.20932723 Ha       -8332.37974062 eV
  | Total energy, T -> 0          :        -306.20932723 Ha       -8332.37974062 eV  <-- do not rely on this value for anything but (periodic) metals
  | Electronic free energy        :        -306.20932723 Ha       -8332.37974062 eV

  Derived energy quantities:
  | Kinetic energy                :         304.97823885 Ha        8298.88012155 eV
  | Electrostatic energy          :        -574.13176902 Ha      -15622.92032035 eV
  | Energy correction for multipole
  | error in Hartree potential    :          -0.00485770 Ha          -0.13218480 eV
  | Sum of eigenvalues per atom                           :        -379.52959117 eV
  | Total energy (T->0) per atom                          :        -694.36497838 eV  <-- do not rely on this value for anything but (periodic) metals
  | Electronic free energy per atom                       :        -694.36497838 eV

  Self-consistency convergence accuracy:
  | Change of charge density      : 0.2266E+00
  | Change of sum of eigenvalues  : -.2838E+01 eV
  | Change of total energy        : 0.1243E+00 eV

  End self-consistency iteration #     3       :  max(cpu_time)    wall_clock(cpu1)
  | Time for this iteration                    :        1.181 s           1.181 s
  | Charge density update                      :        0.371 s           0.371 s
  | Density mixing                             :        0.005 s           0.005 s
  | Hartree multipole update                   :        0.004 s           0.005 s
  | Hartree multipole summation                :        0.209 s           0.209 s
  | Integration                                :        0.560 s           0.560 s
  | Solution of K.-S. eqns.                    :        0.030 s           0.031 s
  | Total energy evaluation                    :        0.000 s           0.000 s
------------------------------------------------------------

------------------------------------------------------------
          Begin self-consistency iteration #    4

  Date     :  20150727, Time     :  123910.399
------------------------------------------------------------
  Evaluating new KS density.
  Integration grid: deviation in total charge (<rho> - N_e) =  -1.421085E-14
  Pulay mixing of updated and previous charge densities.

  Evaluating partitioned Hartree potential by multipole expansion.
  | Analytical far-field extrapolation by fixed multipoles:
  | Hartree multipole sum: apparent total charge =  -0.316266E-05
  Summing up the Hartree potential.
  Time summed over all CPUs for potential: real work        1.654 s, elapsed        1.666 s
  | RMS charge density error from multipole expansion :   0.148338E-01

  Integrating Hamiltonian matrix: batch-based integration.
  Time summed over all CPUs for integration: real work        4.291 s, elapsed        4.464 s

  Updating Kohn-Sham eigenvalues, eigenvectors, occupation numbers, and Fermi level.
  Solving generalized eigenproblem
  Updating Kohn-Sham eigenvalues and eigenfunctions.
  Solving real generalised eigenvalue problem by standard LAPACK (fast)
  Determining occupation numbers for Kohn-Sham eigenstates.
  | Chemical potential (Fermi level) in eV                 : -.24977837E+01
  | Error in electron count due to remaining E_F inaccuracy: 0.00000000E+00
  | Maximum occupation number of highest empty state:  0.00E+00

  Highest occupied state (VBM) at     -6.11019098 eV
  | Occupation number:      2.00000000

  Lowest unoccupied state (CBM) at    -1.64664536 eV
  | Occupation number:      0.00000000

  Overall HOMO-LUMO gap:      4.46354561 eV.

  Total energy components:
  | Sum of eigenvalues            :        -166.07775044 Ha       -4519.20552407 eV
  | XC energy correction          :         -37.21375115 Ha       -1012.63769136 eV
  | XC potential correction       :          47.56725415 Ha        1294.37084226 eV
  | Free-atom electrostatic energy:        -143.32087964 Ha       -3899.95956272 eV
  | Hartree energy correction     :          -7.15578283 Ha        -194.71875806 eV
  | van der Waals energy corr.    :           0.00000000 Ha           0.00000000 eV
  | Entropy correction            :           0.00000000 Ha           0.00000000 eV
  | ---------------------------
  | Total energy                  :        -306.20090991 Ha       -8332.15069395 eV
  | Total energy, T -> 0          :        -306.20090991 Ha       -8332.15069395 eV  <-- do not rely on this value for anything but (periodic) metals
  | Electronic free energy        :        -306.20090991 Ha       -8332.15069395 eV

  Derived energy quantities:
  | Kinetic energy                :         305.14986565 Ha        8303.55032420 eV
  | Electrostatic energy          :        -574.13702441 Ha      -15623.06332679 eV
  | Energy correction for multipole
  | error in Hartree potential    :          -0.00641231 Ha          -0.17448791 eV
  | Sum of eigenvalues per atom                           :        -376.60046034 eV
  | Total energy (T->0) per atom                          :        -694.34589116 eV  <-- do not rely on this value for anything but (periodic) metals
  | Electronic free energy per atom                       :        -694.34589116 eV

  Self-consistency convergence accuracy:
  | Change of charge density      : 0.1199E+00
  | Change of sum of eigenvalues  : 0.3515E+02 eV
  | Change of total energy        : 0.2290E+00 eV

  End self-consistency iteration #     4       :  max(cpu_time)    wall_clock(cpu1)
  | Time for this iteration                    :        1.181 s           1.181 s
  | Charge density update                      :        0.371 s           0.371 s
  | Density mixing                             :        0.007 s           0.007 s
  | Hartree multipole update                   :        0.004 s           0.004 s
  | Hartree multipole summation                :        0.209 s           0.209 s
  | Integration                                :        0.559 s           0.559 s
  | Solution of K.-S. eqns.                    :        0.031 s           0.031 s
  | Total energy evaluation                    :        0.000 s           0.000 s
------------------------------------------------------------

------------------------------------------------------------
          Begin self-consistency iteration #    5

  Date     :  20150727, Time     :  123911.580
------------------------------------------------------------
  Evaluating new KS density.
  Integration grid: deviation in total charge (<rho> - N_e) =   2.131628E-14
  Pulay mixing of updated and previous charge densities.

  Evaluating partitioned Hartree potential by multipole expansion.
  | Analytical far-field extrapolation by fixed multipoles:
  | Hartree multipole sum: apparent total charge =  -0.306569E-05
  Summing up the Hartree potential.
  Time summed over all CPUs for potential: real work        1.654 s, elapsed        1.666 s
  | RMS charge density error from multipole expansion :   0.154355E-01

  Integrating Hamiltonian matrix: batch-based integration.
  Time summed over all CPUs for integration: real work        4.290 s, elapsed        4.465 s

  Updating Kohn-Sham eigenvalues, eigenvectors, occupation numbers, and Fermi level.
  Solving generalized eigenproblem
  Updating Kohn-Sham eigenvalues and eigenfunctions.
  Solving real generalised eigenvalue problem by standard LAPACK (fast)
  Determining occupation numbers for Kohn-Sham eigenstates.
  | Chemical potential (Fermi level) in eV                 : -.24945826E+01
  | Error in electron count due to remaining E_F inaccuracy: 0.00000000E+00
  | Maximum occupation number of highest empty state:  0.00E+00

  Highest occupied state (VBM) at     -6.23587170 eV
  | Occupation number:      2.00000000

  Lowest unoccupied state (CBM) at    -1.64119895 eV
  | Occupation number:      0.00000000

  Overall HOMO-LUMO gap:      4.59467275 eV.

  Total energy components:
  | Sum of eigenvalues            :        -166.04095018 Ha       -4518.20413813 eV
  | XC energy correction          :         -37.22146977 Ha       -1012.84772559 eV
  | XC potential correction       :          47.57690203 Ha        1294.63337444 eV
  | Free-atom electrostatic energy:        -143.32087964 Ha       -3899.95956272 eV
  | Hartree energy correction     :          -7.19414051 Ha        -195.76252355 eV
  | van der Waals energy corr.    :           0.00000000 Ha           0.00000000 eV
  | Entropy correction            :           0.00000000 Ha           0.00000000 eV
  | ---------------------------
  | Total energy                  :        -306.20053807 Ha       -8332.14057555 eV
  | Total energy, T -> 0          :        -306.20053807 Ha       -8332.14057555 eV  <-- do not rely on this value for anything but (periodic) metals
  | Electronic free energy        :        -306.20053807 Ha       -8332.14057555 eV

  Derived energy quantities:
  | Kinetic energy                :         305.12178419 Ha        8302.78618889 eV
  | Electrostatic energy          :        -574.10085249 Ha      -15622.07903885 eV
  | Energy correction for multipole
  | error in Hartree potential    :          -0.00667099 Ha          -0.18152690 eV
  | Sum of eigenvalues per atom                           :        -376.51701151 eV
  | Total energy (T->0) per atom                          :        -694.34504796 eV  <-- do not rely on this value for anything but (periodic) metals
  | Electronic free energy per atom                       :        -694.34504796 eV

  Self-consistency convergence accuracy:
  | Change of charge density      : 0.3386E-01
  | Change of sum of eigenvalues  : 0.1001E+01 eV
  | Change of total energy        : 0.1012E-01 eV

  End self-consistency iteration #     5       :  max(cpu_time)    wall_clock(cpu1)
  | Time for this iteration                    :        1.182 s           1.182 s
  | Charge density update                      :        0.371 s           0.371 s
  | Density mixing                             :        0.008 s           0.008 s
  | Hartree multipole update                   :        0.004 s           0.004 s
  | Hartree multipole summation                :        0.209 s           0.209 s
  | Integration                                :        0.559 s           0.559 s
  | Solution of K.-S. eqns.                    :        0.031 s           0.030 s
  | Total energy evaluation                    :        0.000 s           0.000 s
------------------------------------------------------------

------------------------------------------------------------
          Begin self-consistency iteration #    6

  Date     :  20150727, Time     :  123912.762
------------------------------------------------------------
  Evaluating new KS density.
  Integration grid: deviation in total charge (<rho> - N_e) =   4.263256E-14
  Pulay mixing of updated and previous charge densities.

  Evaluating partitioned Hartree potential by multipole expansion.
  | Analytical far-field extrapolation by fixed multipoles:
  | Hartree multipole sum: apparent total charge =  -0.306135E-05
  Summing up the Hartree potential.
  Time summed over all CPUs for potential: real work        1.654 s, elapsed        1.666 s
  | RMS charge density error from multipole expansion :   0.155993E-01

  Integrating Hamiltonian matrix: batch-based integration.
  Time summed over all CPUs for integration: real work        4.290 s, elapsed        4.468 s

  Updating Kohn-Sham eigenvalues, eigenvectors, occupation numbers, and Fermi level.
  Solving generalized eigenproblem
  Updating Kohn-Sham eigenvalues and eigenfunctions.
  Solving real generalised eigenvalue problem by standard LAPACK (fast)
  Determining occupation numbers for Kohn-Sham eigenstates.
  | Chemical potential (Fermi level) in eV                 : -.24791797E+01
  | Error in electron count due to remaining E_F inaccuracy: 0.00000000E+00
  | Maximum occupation number of highest empty state:  0.00E+00

  Highest occupied state (VBM) at     -6.18549410 eV
  | Occupation number:      2.00000000

  Lowest unoccupied state (CBM) at    -1.63368362 eV
  | Occupation number:      0.00000000

  Overall HOMO-LUMO gap:      4.55181048 eV.

  Total energy components:
  | Sum of eigenvalues            :        -166.00629776 Ha       -4517.26119787 eV
  | XC energy correction          :         -37.22605764 Ha       -1012.97256799 eV
  | XC potential correction       :          47.58282675 Ha        1294.79459441 eV
  | Free-atom electrostatic energy:        -143.32087964 Ha       -3899.95956272 eV
  | Hartree energy correction     :          -7.23016524 Ha        -196.74280621 eV
  | van der Waals energy corr.    :           0.00000000 Ha           0.00000000 eV
  | Entropy correction            :           0.00000000 Ha           0.00000000 eV
  | ---------------------------
  | Total energy                  :        -306.20057353 Ha       -8332.14154038 eV
  | Total energy, T -> 0          :        -306.20057353 Ha       -8332.14154038 eV  <-- do not rely on this value for anything but (periodic) metals
  | Electronic free energy        :        -306.20057353 Ha       -8332.14154038 eV

  Derived energy quantities:
  | Kinetic energy                :         305.11702565 Ha        8302.65670251 eV
  | Electrostatic energy          :        -574.09154153 Ha      -15621.82567490 eV
  | Energy correction for multipole
  | error in Hartree potential    :          -0.00675369 Ha          -0.18377736 eV
  | Sum of eigenvalues per atom                           :        -376.43843316 eV
  | Total energy (T->0) per atom                          :        -694.34512837 eV  <-- do not rely on this value for anything but (periodic) metals
  | Electronic free energy per atom                       :        -694.34512837 eV

  Self-consistency convergence accuracy:
  | Change of charge density      : 0.9788E-02
  | Change of sum of eigenvalues  : 0.9429E+00 eV
  | Change of total energy        : -.9648E-03 eV

  End self-consistency iteration #     6       :  max(cpu_time)    wall_clock(cpu1)
  | Time for this iteration                    :        1.183 s           1.183 s
  | Charge density update                      :        0.371 s           0.370 s
  | Density mixing                             :        0.008 s           0.008 s
  | Hartree multipole update                   :        0.005 s           0.004 s
  | Hartree multipole summation                :        0.209 s           0.209 s
  | Integration                                :        0.559 s           0.560 s
  | Solution of K.-S. eqns.                    :        0.031 s           0.030 s
  | Total energy evaluation                    :        0.000 s           0.000 s
------------------------------------------------------------

------------------------------------------------------------
          Begin self-consistency iteration #    7

  Date     :  20150727, Time     :  123913.945
------------------------------------------------------------
  Evaluating new KS density.
  Integration grid: deviation in total charge (<rho> - N_e) =   1.421085E-14
  Pulay mixing of updated and previous charge densities.

  Evaluating partitioned Hartree potential by multipole expansion.
  | Analytical far-field extrapolation by fixed multipoles:
  | Hartree multipole sum: apparent total charge =  -0.285114E-05
  Summing up the Hartree potential.
  Time summed over all CPUs for potential: real work        1.654 s, elapsed        1.667 s
  | RMS charge density error from multipole expansion :   0.156124E-01

  Integrating Hamiltonian matrix: batch-based integration.
  Time summed over all CPUs for integration: real work        4.290 s, elapsed        4.478 s

  Updating Kohn-Sham eigenvalues, eigenvectors, occupation numbers, and Fermi level.
  Solving generalized eigenproblem
  Updating Kohn-Sham eigenvalues and eigenfunctions.
  Solving real generalised eigenvalue problem by standard LAPACK (fast)
  Determining occupation numbers for Kohn-Sham eigenstates.
  | Chemical potential (Fermi level) in eV                 : -.25256093E+01
  | Error in electron count due to remaining E_F inaccuracy: 0.00000000E+00
  | Maximum occupation number of highest empty state:  0.00E+00

  Highest occupied state (VBM) at     -6.29680824 eV
  | Occupation number:      2.00000000

  Lowest unoccupied state (CBM) at    -1.64754046 eV
  | Occupation number:      0.00000000

  Overall HOMO-LUMO gap:      4.64926778 eV.

  Total energy components:
  | Sum of eigenvalues            :        -166.12596869 Ha       -4520.51760935 eV
  | XC energy correction          :         -37.21319418 Ha       -1012.62253537 eV
  | XC potential correction       :          47.56551076 Ha        1294.32340232 eV
  | Free-atom electrostatic energy:        -143.32087964 Ha       -3899.95956272 eV
  | Hartree energy correction     :          -7.10596098 Ha        -193.36303645 eV
  | van der Waals energy corr.    :           0.00000000 Ha           0.00000000 eV
  | Entropy correction            :           0.00000000 Ha           0.00000000 eV
  | ---------------------------
  | Total energy                  :        -306.20049272 Ha       -8332.13934158 eV
  | Total energy, T -> 0          :        -306.20049272 Ha       -8332.13934158 eV  <-- do not rely on this value for anything but (periodic) metals
  | Electronic free energy        :        -306.20049272 Ha       -8332.13934158 eV

  Derived energy quantities:
  | Kinetic energy                :         305.16122765 Ha        8303.85950017 eV
  | Electrostatic energy          :        -574.14852619 Ha      -15623.37630638 eV
  | Energy correction for multipole
  | error in Hartree potential    :          -0.00665825 Ha          -0.18118008 eV
  | Sum of eigenvalues per atom                           :        -376.70980078 eV
  | Total energy (T->0) per atom                          :        -694.34494513 eV  <-- do not rely on this value for anything but (periodic) metals
  | Electronic free energy per atom                       :        -694.34494513 eV

  Self-consistency convergence accuracy:
  | Change of charge density      : 0.9399E-02
  | Change of sum of eigenvalues  : -.3256E+01 eV
  | Change of total energy        : 0.2199E-02 eV

  End self-consistency iteration #     7       :  max(cpu_time)    wall_clock(cpu1)
  | Time for this iteration                    :        1.186 s           1.185 s
  | Charge density update                      :        0.371 s           0.370 s
  | Density mixing                             :        0.010 s           0.010 s
  | Hartree multipole update                   :        0.004 s           0.004 s
  | Hartree multipole summation                :        0.209 s           0.209 s
  | Integration                                :        0.561 s           0.561 s
  | Solution of K.-S. eqns.                    :        0.030 s           0.031 s
  | Total energy evaluation                    :        0.001 s           0.000 s
------------------------------------------------------------

------------------------------------------------------------
          Begin self-consistency iteration #    8

  Date     :  20150727, Time     :  123915.130
------------------------------------------------------------
  Evaluating new KS density.
  Integration grid: deviation in total charge (<rho> - N_e) =  -7.105427E-15
  Pulay mixing of updated and previous charge densities.

  Evaluating partitioned Hartree potential by multipole expansion.
  | Analytical far-field extrapolation by fixed multipoles:
  | Hartree multipole sum: apparent total charge =  -0.284824E-05
  Summing up the Hartree potential.
  Time summed over all CPUs for potential: real work        1.654 s, elapsed        1.666 s
  | RMS charge density error from multipole expansion :   0.156625E-01

  Integrating Hamiltonian matrix: batch-based integration.
  Time summed over all CPUs for integration: real work        4.283 s, elapsed        4.465 s

  Updating Kohn-Sham eigenvalues, eigenvectors, occupation numbers, and Fermi level.
  Solving generalized eigenproblem
  Updating Kohn-Sham eigenvalues and eigenfunctions.
  Solving real generalised eigenvalue problem by standard LAPACK (fast)
  Determining occupation numbers for Kohn-Sham eigenstates.
  | Chemical potential (Fermi level) in eV                 : -.25212281E+01
  | Error in electron count due to remaining E_F inaccuracy: 0.00000000E+00
  | Maximum occupation number of highest empty state:  0.00E+00

  Highest occupied state (VBM) at     -6.28371900 eV
  | Occupation number:      2.00000000

  Lowest unoccupied state (CBM) at    -1.64631703 eV
  | Occupation number:      0.00000000

  Overall HOMO-LUMO gap:      4.63740197 eV.

  Total energy components:
  | Sum of eigenvalues            :        -166.11352627 Ha       -4520.17903401 eV
  | XC energy correction          :         -37.21472788 Ha       -1012.66426936 eV
  | XC potential correction       :          47.56749805 Ha        1294.37747904 eV
  | Free-atom electrostatic energy:        -143.32087964 Ha       -3899.95956272 eV
  | Hartree energy correction     :          -7.11885794 Ha        -193.71398048 eV
  | van der Waals energy corr.    :           0.00000000 Ha           0.00000000 eV
  | Entropy correction            :           0.00000000 Ha           0.00000000 eV
  | ---------------------------
  | Total energy                  :        -306.20049368 Ha       -8332.13936753 eV
  | Total energy, T -> 0          :        -306.20049368 Ha       -8332.13936753 eV  <-- do not rely on this value for anything but (periodic) metals
  | Electronic free energy        :        -306.20049368 Ha       -8332.13936753 eV

  Derived energy quantities:
  | Kinetic energy                :         305.16129976 Ha        8303.86146235 eV
  | Electrostatic energy          :        -574.14706556 Ha      -15623.33656052 eV
  | Energy correction for multipole
  | error in Hartree potential    :          -0.00668596 Ha          -0.18193415 eV
  | Sum of eigenvalues per atom                           :        -376.68158617 eV
  | Total energy (T->0) per atom                          :        -694.34494729 eV  <-- do not rely on this value for anything but (periodic) metals
  | Electronic free energy per atom                       :        -694.34494729 eV

  Self-consistency convergence accuracy:
  | Change of charge density      : 0.1474E-02
  | Change of sum of eigenvalues  : 0.3386E+00 eV
  | Change of total energy        : -.2595E-04 eV

  End self-consistency iteration #     8       :  max(cpu_time)    wall_clock(cpu1)
  | Time for this iteration                    :        1.185 s           1.185 s
  | Charge density update                      :        0.370 s           0.371 s
  | Density mixing                             :        0.011 s           0.010 s
  | Hartree multipole update                   :        0.004 s           0.005 s
  | Hartree multipole summation                :        0.209 s           0.209 s
  | Integration                                :        0.559 s           0.559 s
  | Solution of K.-S. eqns.                    :        0.031 s           0.030 s
  | Total energy evaluation                    :        0.000 s           0.001 s
------------------------------------------------------------

------------------------------------------------------------
          Begin self-consistency iteration #    9

  Date     :  20150727, Time     :  123916.315
------------------------------------------------------------
  Evaluating new KS density.
  Integration grid: deviation in total charge (<rho> - N_e) =   1.421085E-14
  Pulay mixing of updated and previous charge densities.

  Evaluating partitioned Hartree potential by multipole expansion.
  | Analytical far-field extrapolation by fixed multipoles:
  | Hartree multipole sum: apparent total charge =  -0.284506E-05
  Summing up the Hartree potential.
  Time summed over all CPUs for potential: real work        1.654 s, elapsed        1.666 s
  | RMS charge density error from multipole expansion :   0.156571E-01

  Integrating Hamiltonian matrix: batch-based integration.
  Time summed over all CPUs for integration: real work        4.286 s, elapsed        4.468 s

  Updating Kohn-Sham eigenvalues, eigenvectors, occupation numbers, and Fermi level.
  Solving generalized eigenproblem
  Updating Kohn-Sham eigenvalues and eigenfunctions.
  Solving real generalised eigenvalue problem by standard LAPACK (fast)
  Determining occupation numbers for Kohn-Sham eigenstates.
  | Chemical potential (Fermi level) in eV                 : -.25211226E+01
  | Error in electron count due to remaining E_F inaccuracy: 0.00000000E+00
  | Maximum occupation number of highest empty state:  0.00E+00

  Highest occupied state (VBM) at     -6.27983298 eV
  | Occupation number:      2.00000000

  Lowest unoccupied state (CBM) at    -1.64684786 eV
  | Occupation number:      0.00000000

  Overall HOMO-LUMO gap:      4.63298512 eV.

  Total energy components:
  | Sum of eigenvalues            :        -166.11265397 Ha       -4520.15529760 eV
  | XC energy correction          :         -37.21472794 Ha       -1012.66427116 eV
  | XC potential correction       :          47.56749493 Ha        1294.37739419 eV
  | Free-atom electrostatic energy:        -143.32087964 Ha       -3899.95956272 eV
  | Hartree energy correction     :          -7.11972598 Ha        -193.73760118 eV
  | van der Waals energy corr.    :           0.00000000 Ha           0.00000000 eV
  | Entropy correction            :           0.00000000 Ha           0.00000000 eV
  | ---------------------------
  | Total energy                  :        -306.20049261 Ha       -8332.13933846 eV
  | Total energy, T -> 0          :        -306.20049261 Ha       -8332.13933846 eV  <-- do not rely on this value for anything but (periodic) metals
  | Electronic free energy        :        -306.20049261 Ha       -8332.13933846 eV

  Derived energy quantities:
  | Kinetic energy                :         305.16532075 Ha        8303.97087908 eV
  | Electrostatic energy          :        -574.15108542 Ha      -15623.44594639 eV
  | Energy correction for multipole
  | error in Hartree potential    :          -0.00668249 Ha          -0.18183975 eV
  | Sum of eigenvalues per atom                           :        -376.67960813 eV
  | Total energy (T->0) per atom                          :        -694.34494487 eV  <-- do not rely on this value for anything but (periodic) metals
  | Electronic free energy per atom                       :        -694.34494487 eV

  Self-consistency convergence accuracy:
  | Change of charge density      : 0.8061E-03
  | Change of sum of eigenvalues  : 0.2374E-01 eV
  | Change of total energy        : 0.2907E-04 eV

  End self-consistency iteration #     9       :  max(cpu_time)    wall_clock(cpu1)
  | Time for this iteration                    :        1.187 s           1.187 s
  | Charge density update                      :        0.370 s           0.371 s
  | Density mixing                             :        0.012 s           0.011 s
  | Hartree multipole update                   :        0.004 s           0.005 s
  | Hartree multipole summation                :        0.209 s           0.209 s
  | Integration                                :        0.559 s           0.559 s
  | Solution of K.-S. eqns.                    :        0.031 s           0.031 s
  | Total energy evaluation                    :        0.001 s           0.001 s
------------------------------------------------------------

------------------------------------------------------------
          Begin self-consistency iteration #   10

  Date     :  20150727, Time     :  123917.502
------------------------------------------------------------
  Evaluating new KS density.
  Integration grid: deviation in total charge (<rho> - N_e) =   0.000000E+00
  Pulay mixing of updated and previous charge densities.

  Evaluating partitioned Hartree potential by multipole expansion.
  | Analytical far-field extrapolation by fixed multipoles:
  | Hartree multipole sum: apparent total charge =  -0.283684E-05
  Summing up the Hartree potential.
  Time summed over all CPUs for potential: real work        1.654 s, elapsed        1.666 s
  | RMS charge density error from multipole expansion :   0.156582E-01

  Integrating Hamiltonian matrix: batch-based integration.
  Time summed over all CPUs for integration: real work        4.286 s, elapsed        4.461 s

  Updating Kohn-Sham eigenvalues, eigenvectors, occupation numbers, and Fermi level.
  Solving generalized eigenproblem
[...]
  |                                 -0.00968467       0.13660159       0.00600859
  |                                  0.00073772       0.00600859       0.13033361
  ----------------------------------------------------------------------


  Total energy components:
  | Sum of eigenvalues            :        -166.11672833 Ha       -4520.26616634 eV
  | XC energy correction          :         -37.21425969 Ha       -1012.65152925 eV
  | XC potential correction       :          47.56686243 Ha        1294.36018302 eV
  | Free-atom electrostatic energy:        -143.32087964 Ha       -3899.95956272 eV
  | Hartree energy correction     :          -7.11548679 Ha        -193.62224693 eV
  | van der Waals energy corr.    :          -0.00147651 Ha          -0.04017792 eV
  | Entropy correction            :           0.00000000 Ha           0.00000000 eV
  | ---------------------------
  | Total energy                  :        -306.20196852 Ha       -8332.17950013 eV
  | Total energy, T -> 0          :        -306.20196852 Ha       -8332.17950013 eV  <-- do not rely on this value for anything but (periodic) metals
  | Electronic free energy        :        -306.20196852 Ha       -8332.17950013 eV

  Derived energy quantities:
  | Kinetic energy                :         305.16669853 Ha        8304.00837039 eV
  | Electrostatic energy          :        -574.15293086 Ha      -15623.49616335 eV
  | Energy correction for multipole
  | error in Hartree potential    :          -0.00668086 Ha          -0.18179554 eV
  | Sum of eigenvalues per atom                           :        -376.68884720 eV
  | Total energy (T->0) per atom                          :        -694.34829168 eV  <-- do not rely on this value for anything but (periodic) metals
  | Electronic free energy per atom                       :        -694.34829168 eV

  atomic forces [eV/Ang]:
  -----------------------
  atom #    1
   Hellmann-Feynman + Multipole  : -.733231E+01 -.117955E+02 0.343936E+01
   Pulay + GGA                   : 0.706066E+01 0.154272E+02 -.486024E+01
   Van der Waals               : 0.199231E-02 0.537443E-02 0.566858E-02
   ----------------------------------------------------------------
   Total forces(   1)            : -.269650E+00 0.363707E+01 -.141521E+01
  atom #    2
   Hellmann-Feynman + Multipole  : 0.236293E+01 -.356379E+01 0.159968E+01
   Pulay + GGA                   : -.528326E-01 0.114722E+00 -.544990E-01
   Van der Waals               : 0.116546E-02 0.206453E-02 0.322092E-02
   ----------------------------------------------------------------
   Total forces(   2)            : 0.231126E+01 -.344701E+01 0.154840E+01
  atom #    3
   Hellmann-Feynman + Multipole  : -.217036E+01 -.195211E+00 -.984928E-01
   Pulay + GGA                   : 0.138507E+00 0.270214E-01 -.464091E-02
   Van der Waals               : 0.587498E-03 0.360569E-02 0.403980E-02
   ----------------------------------------------------------------
   Total forces(   3)            : -.203126E+01 -.164584E+00 -.990939E-01
  atom #    4
   Hellmann-Feynman + Multipole  : 0.353547E+01 -.826495E+01 -.846914E+01
   Pulay + GGA                   : -.429357E+01 0.895264E+01 0.107990E+02
   Van der Waals               : 0.328233E-03 -.313379E-02 -.940380E-03
   ----------------------------------------------------------------
   Total forces(   4)            : -.757777E+00 0.684556E+00 0.232893E+01
  atom #    5
   Hellmann-Feynman + Multipole  : -.320912E+00 0.179085E+00 -.236461E+01
   Pulay + GGA                   : 0.431341E-02 0.277350E-02 0.129468E+00
   Van der Waals               : -.630387E-03 0.218538E-02 -.316206E-02
   ----------------------------------------------------------------
   Total forces(   5)            : -.317229E+00 0.184044E+00 -.223831E+01
  atom #    6
   Hellmann-Feynman + Multipole  : 0.123822E+01 -.141987E+01 0.374612E+00
   Pulay + GGA                   : -.539164E-01 0.650591E-01 0.139444E-01
   Van der Waals               : -.148578E-02 -.169144E-02 0.106463E-02
   ----------------------------------------------------------------
   Total forces(   6)            : 0.118281E+01 -.135650E+01 0.389621E+00
  atom #    7
   Hellmann-Feynman + Multipole  : -.199542E+01 -.353438E+01 -.157165E+02
   Pulay + GGA                   : 0.345663E+01 0.435737E+01 0.135126E+02
   Van der Waals               : -.484002E-02 -.201132E-02 -.365907E-02
   ----------------------------------------------------------------
   Total forces(   7)            : 0.145637E+01 0.820977E+00 -.220759E+01
  atom #    8
   Hellmann-Feynman + Multipole  : -.505034E+00 -.339613E+00 0.180000E+00
   Pulay + GGA                   : 0.916709E-01 0.713826E-01 0.561504E-01
   Van der Waals               : -.417298E-02 -.139883E-02 0.110784E-02
   ----------------------------------------------------------------
   Total forces(   8)            : -.417536E+00 -.269629E+00 0.237258E+00
  atom #    9
   Hellmann-Feynman + Multipole  : -.764031E+00 -.473919E+00 0.163309E+01
   Pulay + GGA                   : -.445106E-01 -.105972E-01 0.621270E-01
   Van der Waals               : -.294978E-02 -.620402E-03 -.439929E-02
   ----------------------------------------------------------------
   Total forces(   9)            : -.811491E+00 -.485137E+00 0.169081E+01
  atom #   10
   Hellmann-Feynman + Multipole  : -.152882E+01 -.134498E+02 -.489918E-02
   Pulay + GGA                   : 0.241007E+01 0.140571E+02 -.203313E+01
   Van der Waals               : 0.445762E-02 -.163160E-02 -.158409E-02
   ----------------------------------------------------------------
   Total forces(  10)            : 0.885705E+00 0.605701E+00 -.203961E+01
  atom #   11
   Hellmann-Feynman + Multipole  : -.274676E+00 0.529541E+00 0.298689E+00
   Pulay + GGA                   : -.847433E-01 0.918557E-01 0.716840E-01
   Van der Waals               : 0.233476E-02 -.197117E-02 0.167610E-03
   ----------------------------------------------------------------
   Total forces(  11)            : -.357084E+00 0.619425E+00 0.370540E+00
  atom #   12
   Hellmann-Feynman + Multipole  : -.906888E+00 -.899310E+00 0.154558E+01
   Pulay + GGA                   : 0.370125E-01 0.749727E-01 -.108186E+00
   Van der Waals               : 0.321306E-02 -.771485E-03 -.152448E-02
   ----------------------------------------------------------------
   Total forces(  12)            : -.866662E+00 -.825108E+00 0.143587E+01
  Timings for vdw_correction_hirshfeld (Tkatchenko-Scheffler 2009):
  | CPU time:        3.122 s, Wall clock time:        3.122 s.
  Removing unitary transformations (pure translations, rotations) from forces on atoms.
  Atomic forces before filtering:
  | Net force on center of mass :  0.745812E-02 0.381211E-02 0.162511E-02 eV/A
  | Net torque on center of mass:  -.107958E-01 -.131740E-01 0.796687E-02 eV
  Atomic forces after filtering:
  | Net force on center of mass :  -.356812E-15 -.356812E-15 -.535218E-15 eV/A
  | Net torque on center of mass:  0.151054E-14 0.302107E-14 -.226580E-14 eV
 
  Energy and forces in a compact form:
  | Total energy uncorrected      :         -0.833217950012884E+04 eV
  | Total energy corrected        :         -0.833217950012884E+04 eV  <-- do not rely on this value for anything but (periodic) metals
  | Electronic free energy        :         -0.833217950012884E+04 eV
  Total atomic forces (unitary forces cleaned) [eV/Ang]:
  |   1         -0.270995633419202E+00          0.363721768404568E+01         -0.141577271906617E+01
  |   2          0.230995590071599E+01         -0.344672195790753E+01          0.154811691731914E+01
  |   3         -0.203256599651375E+01         -0.164568038173668E+00         -0.997937091599243E-01
  |   4         -0.758168384559662E+00          0.683948352185550E+00          0.232870713897760E+01
  |   5         -0.317433106057689E+00          0.183223399239566E+00         -0.223857008269464E+01
  |   6          0.118248294084927E+01         -0.135698920814525E+01          0.389678160519938E+00
  |   7          0.145574270258653E+01          0.820483391203846E+00         -0.220800677874839E+01
  |   8         -0.418032560529378E+00         -0.270279618121937E+00          0.236797941421213E+00
  |   9         -0.812015054719733E+00         -0.485699214489831E+00          0.169044804966306E+01
  |  10          0.885367362833971E+00          0.605471456296776E+00         -0.203915357448611E+01
  |  11         -0.357247216701594E+00          0.619159298953782E+00          0.371219614589798E+00
  |  12         -0.867090954484751E+00         -0.825245545086981E+00          0.143632904166448E+01
 
  ------------------------------------ 
  Start decomposition of the XC Energy 
  ------------------------------------ 
  Hartree-Fock part   :          0.000000000 Ha              0.000000000 eV
  ------------------------------------ 
  X Energy            :        -35.911778275 Ha           -977.209206713 eV
  C Energy GGA        :         -1.302481413 Ha            -35.442322534 eV
  Total XC Energy     :        -37.214259688 Ha          -1012.651529247 eV
  LDA X and C from self-consistent density 
  X Energy LDA        :        -32.349014753 Ha           -880.261478640 eV
  C Energy LDA        :         -2.635519866 Ha            -71.716144428 eV
  ------------------------------------ 
  End decomposition of the XC Energy 
  ------------------------------------ 
  Performing Hirshfeld analysis of fragment charges and moments.
  ----------------------------------------------------------------------
  | Atom     1: O
  |   Hirshfeld charge        :     -0.29333908
  |   Free atom volume        :     23.95238533
  |   Hirshfeld volume        :     22.77330653
  |   Hirshfeld dipole vector :      0.03234610       0.04794964      -0.00290049
  |   Hirshfeld dipole moment :      0.05791245
  |   Hirshfeld second moments:      0.04902574      -0.02623119       0.02634662
  |                                 -0.02623119      -0.01036712      -0.02864088
  |                                  0.02634662      -0.02864088      -0.06546937
  ----------------------------------------------------------------------
  | Atom     2: H
  |   Hirshfeld charge        :      0.14564160
  |   Free atom volume        :     10.44207651
  |   Hirshfeld volume        :      6.72798214
  |   Hirshfeld dipole vector :     -0.06382468       0.09556328      -0.03991099
  |   Hirshfeld dipole moment :      0.12165039
  |   Hirshfeld second moments:      0.12555395       0.00324475       0.00319899
  |                                  0.00324475       0.09404175      -0.00386396
  |                                  0.00319899      -0.00386396       0.09205390
  ----------------------------------------------------------------------
  | Atom     3: H
  |   Hirshfeld charge        :      0.13834274
  |   Free atom volume        :     10.44207651
  |   Hirshfeld volume        :      7.11649355
  |   Hirshfeld dipole vector :      0.11653836       0.01658192       0.00733037
  |   Hirshfeld dipole moment :      0.11794017
  |   Hirshfeld second moments:      0.10017508      -0.02080793      -0.00063102
  |                                 -0.02080793       0.10139251      -0.01699818
  |                                 -0.00063102      -0.01699818       0.08752896
  ----------------------------------------------------------------------
  | Atom     4: O
  |   Hirshfeld charge        :     -0.25704940
  |   Free atom volume        :     23.95238533
  |   Hirshfeld volume        :     21.53933101
  |   Hirshfeld dipole vector :      0.01227429       0.03555731       0.00385141
  |   Hirshfeld dipole moment :      0.03781288
  |   Hirshfeld second moments:      0.03012955      -0.02727831       0.00404797
  |                                 -0.02727831      -0.00450581      -0.02251048
  |                                  0.00404797      -0.02251048       0.06888838
  ----------------------------------------------------------------------
  | Atom     5: H
  |   Hirshfeld charge        :      0.14372921
  |   Free atom volume        :     10.44207651
  |   Hirshfeld volume        :      6.22182956
  |   Hirshfeld dipole vector :      0.02146659      -0.01066242       0.11732020
  |   Hirshfeld dipole moment :      0.11974360
  |   Hirshfeld second moments:      0.12034056      -0.01284921      -0.00228778
  |                                 -0.01284921       0.11193613      -0.00606093
  |                                 -0.00228778      -0.00606093       0.11166576
  ----------------------------------------------------------------------
  | Atom     6: H
  |   Hirshfeld charge        :      0.09009861
  |   Free atom volume        :     10.44207651
  |   Hirshfeld volume        :      7.64859275
  |   Hirshfeld dipole vector :     -0.02736305       0.03225890       0.00290910
  |   Hirshfeld dipole moment :      0.04240090
  |   Hirshfeld second moments:      0.06031071       0.02077768      -0.01742494
  |                                  0.02077768       0.05265009       0.01067617
  |                                 -0.01742494       0.01067617       0.10451065
  ----------------------------------------------------------------------
  | Atom     7: O
  |   Hirshfeld charge        :     -0.33563004
  |   Free atom volume        :     23.95238533
  |   Hirshfeld volume        :     22.49932488
  |   Hirshfeld dipole vector :      0.00687296       0.00228595       0.06726930
  |   Hirshfeld dipole moment :      0.06765813
  |   Hirshfeld second moments:      0.03136654       0.05352246      -0.00521685
  |                                  0.05352246      -0.01838130       0.00379735
  |                                 -0.00521685       0.00379735      -0.01899317
  ----------------------------------------------------------------------
  | Atom     8: H
  |   Hirshfeld charge        :      0.13007623
  |   Free atom volume        :     10.44207651
  |   Hirshfeld volume        :      6.66817800
  |   Hirshfeld dipole vector :      0.09928810       0.06503649       0.04069089
  |   Hirshfeld dipole moment :      0.12547358
  |   Hirshfeld second moments:      0.10863715       0.01252719      -0.01112831
  |                                  0.01252719       0.09518992      -0.00505089
  |                                 -0.01112831      -0.00505089       0.10686333
  ----------------------------------------------------------------------
  | Atom     9: H
  |   Hirshfeld charge        :      0.07596813
  |   Free atom volume        :     10.44207651
  |   Hirshfeld volume        :      8.07356937
  |   Hirshfeld dipole vector :     -0.02319045      -0.01511600       0.03763037
  |   Hirshfeld dipole moment :      0.04671548
  |   Hirshfeld second moments:      0.06305446      -0.00361246       0.03534937
  |                                 -0.00361246       0.06871366       0.01485555
  |                                  0.03534937       0.01485555       0.05484083
  ----------------------------------------------------------------------
  | Atom    10: O
  |   Hirshfeld charge        :     -0.19162645
  |   Free atom volume        :     23.95238533
  |   Hirshfeld volume        :     20.09320266
  |   Hirshfeld dipole vector :      0.02440903       0.01498818       0.01283221
  |   Hirshfeld dipole moment :      0.03138649
  |   Hirshfeld second moments:      0.05956054      -0.02266569      -0.04132143
  |                                 -0.02266569       0.07229900      -0.00664522
  |                                 -0.04132143      -0.00664522       0.09511650
  ----------------------------------------------------------------------
  | Atom    11: H
  |   Hirshfeld charge        :      0.17087655
  |   Free atom volume        :     10.44207651
  |   Hirshfeld volume        :      5.49380048
  |   Hirshfeld dipole vector :     -0.06002509       0.08317635       0.06764318
  |   Hirshfeld dipole moment :      0.12286951
  |   Hirshfeld second moments:      0.13009993       0.00026051      -0.00988617
  |                                  0.00026051       0.13183565      -0.01217965
  |                                 -0.00988617      -0.01217965       0.14071008
  ----------------------------------------------------------------------
  | Atom    12: H
  |   Hirshfeld charge        :      0.18281306
  |   Free atom volume        :     10.44207651
  |   Hirshfeld volume        :      6.01384324
  |   Hirshfeld dipole vector :      0.05060558       0.05195146      -0.08964862
  |   Hirshfeld dipole moment :      0.11531155
  |   Hirshfeld second moments:      0.10918638      -0.00968467       0.00073772
  |                                 -0.00968467       0.13660159       0.00600859
  |                                  0.00073772       0.00600859       0.13033361
  ----------------------------------------------------------------------


------------------------------------------------------------------------------
  Final output of selected total energy values:

  The following output summarizes some interesting total energy values
  at the end of a run (AFTER all relaxation, molecular dynamics, etc.).

  | Total energy of the DFT / Hartree-Fock s.c.f. calculation      :          -8332.179500129 eV
  | Final zero-broadening corrected energy (caution - metals only) :          -8332.179500129 eV
  | For reference only, the value of 1 Hartree used in FHI-aims is :             27.211384500 eV

  Before relying on these values, please be sure to understand exactly which
  total energy value is referred to by a given number. Different objects may
  all carry the same name 'total energy'. Definitions:

  Total energy of the DFT / Hartree-Fock s.c.f. calculation:
  | Note that this energy does not include ANY quantities calculated after the
  | s.c.f. cycle, in particular not ANY RPA, MP2, etc. many-body perturbation terms.

  Final zero-broadening corrected energy:
  | For metallic systems only, a broadening of the occupation numbers at the Fermi
  | level can be extrapolated back to zero broadening by an electron-gas inspired
  | formula. For all systems that are not real metals, this value can be
  | meaningless and should be avoided.

------------------------------------------------------------------------------

------------------------------------------------------------
          Leaving FHI-aims.
          Date     :  20150727, Time     :  123928.186

          Computational steps:
          | Number of self-consistency cycles          :           16

          Detailed time accounting                     :  max(cpu_time)    wall_clock(cpu1)
          | Total time                                 :       23.242 s          23.261 s
          | Preparation time                           :        0.173 s           0.656 s
          | Grid partitioning                          :        0.120 s           0.120 s
          | Preloading free-atom quantities on grid    :        0.013 s           0.013 s
          | Free-atom superposition energy             :        0.046 s           0.045 s
          | Total time for integrations                :        9.806 s           9.805 s
          | Total time for solution of K.-S. equations :        0.606 s           0.605 s
          | Total time for density & force components  :        7.525 s           7.526 s
          | Total time for mixing                      :        0.164 s           0.159 s
          | Total time for Hartree multipole update    :        0.066 s           0.069 s
          | Total time for Hartree multipole sum       :        4.038 s           4.039 s
          | Total time for total energy evaluation     :        0.005 s           0.004 s
          | Total time for scaled ZORA corrections     :        0.000 s           0.000 s
          | Total time for TS (2009) vdW correction    :        0.035 s           0.034 s

          Have a nice day.
------------------------------------------------------------
