  MPI-parallelism will be employed.
------------------------------------------------------------
          Invoking FHI-aims ...
          Version 081213
          Compiled on 2013/08/29 at 17:41:06 on host generoso.

          When using FHI-aims, please cite the following reference:

          Volker Blum, Ralf Gehrke, Felix Hanke, Paula Havu,
          Ville Havu, Xinguo Ren, Karsten Reuter, and Matthias Scheffler,
          'Ab Initio Molecular Simulations with Numeric Atom-Centered Orbitals: FHI-aims',
          Computer Physics Communications 180, 2175-2196 (2009)

          For any questions about FHI-aims, please visit the aimsclub website
          with its forums and wiki. Contributions to both the forums and the
          wiki are warmly encouraged - they are for you, and everyone is welcome there.

------------------------------------------------------------

  Date     :  20150727, Time     :  123631.062
  Time zero on CPU 1             :   0.509910000000000E-01  s.
  Internal wall clock time zero  :           207232591.062  s.

  Using        8 parallel tasks.
  Task        0 on host gen60 reporting.
  Task        1 on host gen60 reporting.
  Task        2 on host gen60 reporting.
  Task        3 on host gen60 reporting.
  Task        4 on host gen60 reporting.
  Task        5 on host gen60 reporting.
  Task        6 on host gen60 reporting.
  Task        7 on host gen60 reporting.

  Performing system and environment tests:
  | Environment variable OMP_NUM_THREADS correctly set to 1.
  | Checking for scalapack...
  | No scalapack compiled in.

  Obtaining array dimensions for all initial allocations:
  
  -----------------------------------------------------------------------
  Parsing control.in (first pass over file, find array dimensions only).
  The contents of control.in will be repeated verbatim below
  unless switched off by setting 'verbatim_writeout .false.' .
  in the first line of control.in .
  -----------------------------------------------------------------------
  
  #########################################################################################
  #
  #  Volker Blum, FHI 2008 : Test run input file control.in
  #
  #########################################################################################
  #
  #  Physical model
  #
    xc                 rpbe
    spin               none
    relativistic       atomic_zora scalar
    charge             0.
   vdw_correction_hirshfeld
  #
  #  SCF convergence
  #
    occupation_type    gaussian 0.01
    mixer              pulay
      n_max_pulay        10
      charge_mix_param   0.1
    sc_accuracy_rho    5E-5
    sc_accuracy_eev    5E-3
    sc_accuracy_etot   5E-6
    sc_iter_limit      3000
  #
  #  Eigenvalue solver
  #
    KS_method          lapack
      empty_states       8
      basis_threshold    0.e-5
  #
  #  Efficiency
  #
  #   all previous settings are now default, except stratmann still
  #   undecided. Continue to handle stratmann with care, if at all.
  #
  #  partition_type stratmann
    partition_type rho_r2
  #  hartree_partition_type stratmann
  #
  #  Oprions for large clusters (100's of atoms: memory saving / better scaling)
  #
  # for periodic systems:
  #
    density_update_method orbital
    packed_matrix_format none
  #  k_grid 6 6 6
  #  output k_eigenvalue 1
  #  distributed_spline_storage .true.
  #
  #  Relaxation
  #
  #  relax_geometry   bfgs 5.e-3
    sc_accuracy_forces 5.E-4
    final_forces_cleaned .true.
  #
  #  Output options
  #
  #  output mulliken
    output Hirshfeld
  #  output dipole
  
  #harmonic_length_scale 0.001
  
  ################################################################################
  #
  #  FHI-aims code project
  #  VB, Fritz-Haber Institut, 2007
  #
  #  Suggested "safe" defaults for H atom (to be pasted into control.in file)
  #  Basis constructed for a non-relativistic H2 molecule using the
  #  PW-LDA functional.
  #
  ################################################################################
    species        H
  #     global species definitions
      nucleus             1
      cut_pot             4.0  2.0  1.0
      cut_free_atom       finite 8.0
      logarithmic         0.00010000 100.00  1.0123
      basis_dep_cutoff    1d-4  # 1d-4 is safe default - please check 5d-4 if you wish!
      radial_base         24 7.0
      radial_multiplier   2
      angular_grids       specified
        division   0.2783  110
        division   0.3822  194
        division   0.5626  302
  #      division   0.5922  434
  #      division   0.6227  590
  #      division   0.7206  770
        outer_grid  302
      l_hartree           4
  ################################################################################
  #
  #  Definition of "minimal" basis
  #
  ################################################################################
  #     valence basis states
      valence      1  s   1.
  #     ion occupancy
      ion_occ      1  s   0.5
  ################################################################################
  #
  #  Suggested additional basis functions. For production calculations,
  #  uncomment them one after another (the most important basis functions are
  #  listed first).
  #
  ################################################################################
  #  "First tier" - improvements: -1014.90 meV to -62.69 meV
       hydro 2 s 2.1
       hydro 2 p 3.5
  #  "Second tier" - improvements: -12.89 meV to -1.83 meV
       hydro 1 s 0.85
       hydro 2 p 3.7
       hydro 2 s 1.2
       hydro 3 d 7
  #  "Third tier" - improvements: -0.25 meV to -0.12 meV
  #     hydro 4 f 11.2
  #     hydro 3 p 4.8
  #     hydro 4 d 9
  #     hydro 3 s 3.2
  
  ################################################################################
  #
  #  FHI-aims code project
  #  VB, Fritz-Haber Institut, 2007
  #
  #  Suggested "safe" defaults for O atom (to be pasted into control.in file)
  #  All values have been tested for a non-relativistic, non-spinpolarized O2
  #  molecule using the PW-LDA functional. Validity for PBE is expected.
  #
  #  Constructed for dimers: 1.0 A, 1.208 A, 1.5 A, 2.0 A, 3.0 A
  #
  ################################################################################
    species        O
  #     global species definitions
      nucleus             8
      mass                15.9994
      l_hartree           4
      cut_pot             4.0  2.0  1.0
      cut_free_atom       finite 8.0
      basis_dep_cutoff    1d-4  # 1d-4 is safe default - please check 5d-4 if you wish!
      logarithmic         0.00010000 100.00  1.0123
      radial_base         36 7.0
      radial_multiplier   2
       angular_grids specified
        division   0.4087  110
        division   0.5181  194
        division   0.6184  302
  #      division   0.7315  434
  #      division   0.7934  590
  #      division   0.9656  770
  #      division   1.4041  974
  #      outer_grid 974
        outer_grid 302
  ################################################################################
  #
  #  Definition of "minimal" basis
  #
  ################################################################################
  #     valence basis states
      valence      2  s   2.
      valence      2  p   4.
  #     ion occupancy
      ion_occ      2  s   1.
      ion_occ      2  p   3.
  ################################################################################
  #
  #  Suggested additional basis functions. For production calculations,
  #  uncomment them one after another (the most important basis functions are
  #  listed first).
  #
  ################################################################################
  #  "First tier" - improvements: -699.05 meV to -159.38 meV
       hydro 2 p 1.8
       hydro 3 d 7.6
       hydro 3 s 6.4
  #  "Second tier" - improvements: -49.91 meV to -5.39 meV
       hydro 4 f 11.6
       hydro 3 p 6.2
       hydro 3 d 5.6
       hydro 5 g 17.6
       hydro 1 s 0.75
  #  "Third tier" - improvements: -2.83 meV to -0.50 meV
  #     ionic 2 p auto
  #     hydro 4 f 10.8
  #     hydro 4 d 4.7
  #     hydro 2 s 6.8
  #  "Fourth tier" - improvements: -0.40 meV to -0.12 meV
  #     hydro 3 p 5
  #     hydro 3 s 3.3
  #     hydro 5 g 15.6
  #     hydro 4 f 17.6
  #     hydro 4 d 14
  # Further basis functions - -0.08 meV and below
  #     hydro 3 s 2.1
  #     hydro 4 d 11.6
  #     hydro 3 p 16
  #     hydro 2 s 17.2
  
  
  -----------------------------------------------------------------------
  Completed first pass over input file control.in .
  -----------------------------------------------------------------------
  
  
  -----------------------------------------------------------------------
  Parsing geometry.in (first pass over file, find array dimensions only).
  The contents of geometry.in will be repeated verbatim below
  unless switched off by setting 'verbatim_writeout .false.' .
  in the first line of geometry.in .
  -----------------------------------------------------------------------
  
  atom      -4.053030000      0.065001000     -1.525160000  O
  atom      -4.566710000      0.974813000     -1.912820000  H
  atom      -3.067820000      0.330172000     -1.477310000  H
  atom      -1.645860000      0.870179000     -1.502250000  O
  atom      -1.568890000      1.501730000     -0.721051000  H
  atom      -0.824432000      0.282220000     -1.377720000  H
  atom      -1.975360000      2.858040000      0.453140000  O
  atom      -1.223550000      3.375850000      0.786238000  H
  atom      -2.537520000      2.567960000      1.156120000  H
  atom      -5.628340000      3.730740000      1.385610000  O
  atom      -6.090650000      4.418470000      1.860350000  H
  atom      -5.158540000      4.200260000      0.615875000  H
  
  -----------------------------------------------------------------------
  Completed first pass over input file geometry.in .
  -----------------------------------------------------------------------
  
 
  Basic array size parameters: 
  | Number of species                 :        2
  | Number of atoms                   :       12
  | Max. basis fn. angular momentum   :        4
  | Max. atomic/ionic basis occupied n:        2
  | Max. number of basis fn. types    :        2
  | Max. radial fns per species/type  :        8
  | Max. logarithmic grid size        :     1301
  | Max. radial integration grid size :       73
  | Max. angular integration grid size:      302
  | Max. angular grid division number :        8
  | Radial grid for Hartree potential :     1301
  | Number of spin channels           :        1

------------------------------------------------------------
          Reading file control.in.
------------------------------------------------------------
  XC: Using RPBE gradient-corrected functionals.
  Spin treatment: No spin polarisation.
  Scalar relativistic treatment of kinetic energy: on-site free-atom approximation to ZORA.
  Charge =   0.000000E+00: Neutral system requested explicitly.
  Using non-empirical van der Waals correction (Hirshfeld partitioning):
  Occupation type: Gaussian broadening, width =   0.100000E-01 eV.
  Using pulay charge density mixing.
  Pulay mixing - number of memorized iterations:   10
  Charge density mixing - mixing parameter:     0.1000
  Convergence accuracy of self-consistent charge density: 0.5000E-04
  Convergence accuracy of sum of eigenvalues: 0.5000E-02
  Convergence accuracy of total energy: 0.5000E-05
  Maximum number of s.-c. iterations  :  3000
  Kohn-Sham eigenvalues and eigenfunctions calculated by lapack diagonalisation (D&C).
  Number of empty states per atom:        8
  Threshold for basis singularities: 0.0000E+00
  Partition function in integrals calculations: rho / r^2
 Using packed matrix format           0
  Convergence accuracy of forces: 0.5000E-03
  Cleaning forces before final output.
  Hirshfeld charge analysis will be performed.
 
  Reading configuration options for species H                   .
  | Found nuclear charge :   1.0000
  | Found cutoff potl. onset [A], width [A], scale factor :    4.00000    2.00000    1.00000
  | Found cutoff specification for free atom: Cutoff potential begins at    8.00000 A.
  | Found logarithmic grid data [bohr] : 0.1000E-03 0.1000E+03 0.1012E+01
  | Threshold for basis-dependent cutoff potential is   0.100000E-03
  | Found data for basic radial integration grid :    24 points, outermost radius =    7.000 A
  | Found multiplier for basic radial grid :   2
  | Found angular grid specification: user-specified.
  | Specified grid contains     4 separate shells.
  | Check grid settings after all constraints further below.
  | Found l_max for Hartree potential  :   4
  | Found free-atom valence shell :  1 s   1.000
  | No ionic wave fns used. Skipping ion_occ.
  | Found hydrogenic basis function :  2 s   2.100
  | Found hydrogenic basis function :  2 p   3.500
  | Found hydrogenic basis function :  1 s   0.850
  | Found hydrogenic basis function :  2 p   3.700
  | Found hydrogenic basis function :  2 s   1.200
  | Found hydrogenic basis function :  3 d   7.000
  Species H                   : Missing cutoff potential type.
  Defaulting to exp(1/x)/(1-x)^2 type cutoff potential.
  Species H : On-site basis accuracy parameter (for Gram-Schmidt orthonormalisation) not specified.
  Using default value basis_acc =  0.1000000E-03.
  Species H                   : Using default innermost maximum threshold i_radial=  2 for radial functions.
  Species H                   : Basic radial grid will be enhanced according to radial_multiplier =   2, to contain    49 grid points.
 
  Reading configuration options for species O                   .
  | Found nuclear charge :   8.0000
  | Found atomic mass :    15.9994000000000      amu
  | Found l_max for Hartree potential  :   4
  | Found cutoff potl. onset [A], width [A], scale factor :    4.00000    2.00000    1.00000
  | Found cutoff specification for free atom: Cutoff potential begins at    8.00000 A.
  | Threshold for basis-dependent cutoff potential is   0.100000E-03
  | Found logarithmic grid data [bohr] : 0.1000E-03 0.1000E+03 0.1012E+01
  | Found data for basic radial integration grid :    36 points, outermost radius =    7.000 A
  | Found multiplier for basic radial grid :   2
  | Found angular grid specification: user-specified.
  | Specified grid contains     4 separate shells.
  | Check grid settings after all constraints further below.
  | Found free-atom valence shell :  2 s   2.000
  | Found free-atom valence shell :  2 p   4.000
  | No ionic wave fns used. Skipping ion_occ.
  | No ionic wave fns used. Skipping ion_occ.
  | Found hydrogenic basis function :  2 p   1.800
  | Found hydrogenic basis function :  3 d   7.600
  | Found hydrogenic basis function :  3 s   6.400
  | Found hydrogenic basis function :  4 f  11.600
  | Found hydrogenic basis function :  3 p   6.200
  | Found hydrogenic basis function :  3 d   5.600
  | Found hydrogenic basis function :  5 g  17.600
  | Found hydrogenic basis function :  1 s   0.750
  Species O                   : Missing cutoff potential type.
  Defaulting to exp(1/x)/(1-x)^2 type cutoff potential.
  Species O : On-site basis accuracy parameter (for Gram-Schmidt orthonormalisation) not specified.
  Using default value basis_acc =  0.1000000E-03.
  Species O                   : Using default innermost maximum threshold i_radial=  2 for radial functions.
  Species O                   : Basic radial grid will be enhanced according to radial_multiplier =   2, to contain    73 grid points.
 
  Finished reading input file 'control.in'. Consistency checks are next.
 
  Target number of points in a grid batch is not set. Defaulting to  100
  Method for grid partitioning is not set. Defaulting to parallel hash+maxmin partitioning.
  Batch size limit is not set. Defaulting to    200
  By default, will store active basis functions for each batch.
  If in need of memory, prune_basis_once .false. can be used to disable this option.
  communication_type for Hartree potential was not specified.
  Defaulting to calc_hartree .
  Pulay mixer: Number of initial linear mixing iterations not set.
  Defaulting to    0 iterations.
  Work space size for distributed Hartree potential not set.
  Defaulting to   0.200000E+03 MB.
  Algorithm-dependent basis array size parameters:
  | n_max_pulay                         :       10
  Geometry relaxation not requested: no relaxation will be performed.
  Handling of forces: Unphysical translation and rotation will be removed from forces.
  No accuracy limit for integral partition fn. given. Defaulting to 0.1000E-14.
  No threshold value for u(r) in integrations given. Defaulting to 0.1000E-05.
  No accuracy for occupation numbers given. Defaulting to 0.1000E-07.
  No threshold value for occupation numbers given. Defaulting to 0.0000E+00.
  No accuracy for fermi level given. Defaulting to 0.1000E-19.
  Maximum # of iterations to find E_F not set. Defaulting to  200.
  Will not use alltoall communication since running on < 1024 CPUs.
  Partitioning for Hartree potential was not defined. Using partition_type for integrals.
  | Reporting present value of keyword multip_moments_threshold  :       0.10000000E-09
  | This value may affect high angular momentum components of the Hartree potential in periodic systems.
  No q(lm)/r^(l+1) cutoff set for long-range Hartree potential.
  | Using default value of  0.100000E-09 .
  | Verify using the multipole_threshold keyword.
  Defaulting to new monopole extrapolation.
  Density update method: Loop over occupied states selected for charge density update.
------------------------------------------------------------


------------------------------------------------------------
          Reading geometry description geometry.in.
------------------------------------------------------------
  Input structure read successfully.
  The structure contains       12 atoms,  and a total of         40.000 electrons.

  Input geometry:
  | No unit cell requested.
  | Atomic structure:
  |       Atom                x [A]            y [A]            z [A]
  |    1: Species O             -4.053030         0.065001        -1.525160
  |    2: Species H             -4.566710         0.974813        -1.912820
  |    3: Species H             -3.067820         0.330172        -1.477310
  |    4: Species O             -1.645860         0.870179        -1.502250
  |    5: Species H             -1.568890         1.501730        -0.721051
  |    6: Species H             -0.824432         0.282220        -1.377720
  |    7: Species O             -1.975360         2.858040         0.453140
  |    8: Species H             -1.223550         3.375850         0.786238
  |    9: Species H             -2.537520         2.567960         1.156120
  |   10: Species O             -5.628340         3.730740         1.385610
  |   11: Species H             -6.090650         4.418470         1.860350
  |   12: Species H             -5.158540         4.200260         0.615875
  |

  | The smallest distance between any two atoms is         0.94570141 AA.
  |
  | The first atom of this pair is atom number                      7 .
  | The second atom of this pair is atom number                     9 .

  Structure-dependent array size parameters: 
  | Maximum number of distinct radial functions  :       18
  | Maximum number of basis functions            :      276
  | Number of Kohn-Sham states (occupied + empty):       68
------------------------------------------------------------

------------------------------------------------------------
          Preparing all fixed parts of the calculation.
------------------------------------------------------------
  Determining machine precision:
    2.225073858507201E-308
  Setting up grids for atomic and cluster calculations.

  Creating wave function, potential, and density for free atoms.

  Species: H

  List of occupied orbitals and eigenvalues:
    n    l              occ      energy [Ha]    energy [eV]
    1    0           1.0000        -0.241408        -6.5691


  Species: O

  List of occupied orbitals and eigenvalues:
    n    l              occ      energy [Ha]    energy [eV]
    1    0           2.0000       -18.944147      -515.4965
    2    0           2.0000        -0.883529       -24.0421
    2    1           4.0000        -0.330176        -8.9845

  Creating fixed part of basis set: Ionic, confined, hydrogenic.
 
  H                    hydrogenic:
 
  List of hydrogenic basis orbitals: 
    n    l      effective z      eigenvalue [eV]  inner max. [A]     outer max. [A]     outer radius [A]   
    2    0         2.100000       -14.9965           0.193241           1.317192           5.372934
    2    1         3.500000       -41.6672           0.602363           0.602363           4.056010
    1    0         0.850000        -9.8292           0.624864           0.624864           5.372934
    2    1         3.700000       -46.5653           0.573616           0.573616           3.909951
    2    0         1.200000        -4.5995           0.334977           2.228160           5.505921
    3    2         7.000000       -74.0753           0.680692           0.680692           3.769152
 
 
  O                    hydrogenic:
 
  List of hydrogenic basis orbitals: 
    n    l      effective z      eigenvalue [eV]  inner max. [A]     outer max. [A]     outer radius [A]   
    2    1         1.800000       -11.0118           1.178546           1.178546           5.432516
    3    2         7.600000       -87.3182           0.624117           0.624117           3.541422
    3    0         6.400000       -61.9209           0.061166           1.081887           4.306510
    4    3        11.600000      -114.4238           0.731621           0.731621           3.584982
    3    1         6.200000       -58.1113           0.255677           1.030255           4.306510
    3    2         5.600000       -47.4081           0.847222           0.847222           4.413102
    5    4        17.600000      -168.5799           0.749730           0.749730           3.372413
    1    0         0.750000        -7.6499           0.705275           0.705275           5.366508
 

  Adding cutoff potential to free-atom effective potential.
  Creating atomic-like basis functions for current effective potential.

  Species H                   :

  List of atomic basis orbitals and eigenvalues:
    n    l      energy [Ha]    energy [eV]    outer radius [A]
    1    0        -0.241374        -6.5681       5.372934


  Species O                   :

  List of atomic basis orbitals and eigenvalues:
    n    l      energy [Ha]    energy [eV]    outer radius [A]
    1    0       -18.944147      -515.4965       1.415745
    2    0        -0.883529       -24.0421       5.048305
    2    1        -0.330173        -8.9845       5.301302

  Assembling full basis from fixed parts.
  | Species H :   atomic orbital   1 s accepted.
  | Species H :    hydro orbital   2 s accepted.
  | Species H :    hydro orbital   1 s accepted.
  | Species H :    hydro orbital   2 s accepted.
  | Species H :    hydro orbital   2 p accepted.
  | Species H :    hydro orbital   2 p accepted.
  | Species H :    hydro orbital   3 d accepted.
  | Species O :   atomic orbital   1 s accepted.
  | Species O :    hydro orbital   3 s accepted.
  | Species O :   atomic orbital   2 s accepted.
  | Species O :    hydro orbital   1 s accepted.
  | Species O :    hydro orbital   3 p accepted.
  | Species O :   atomic orbital   2 p accepted.
  | Species O :    hydro orbital   2 p accepted.
  | Species O :    hydro orbital   3 d accepted.
  | Species O :    hydro orbital   3 d accepted.
  | Species O :    hydro orbital   4 f accepted.
  | Species O :    hydro orbital   5 g accepted.
 
  Basis size parameters after reduction:
  | Total number of radial functions:       18
  | Total number of basis functions :      276
 
  Testing on-site integration grid accuracy.
  |  Species  Function  <phi|h_atom|phi> (log., in eV)  <phi|h_atom|phi> (rad., in eV)
           1        1                 -6.5683835025                 -6.5684759159
           1        2                 13.3711789951                 13.3708738703
           1        3                 23.6590910787                 23.6532055418
           1        4                 16.2963827186                 16.1870710655 ***
           1        5                 28.7627214838                 28.7627215090
           1        6                 59.5965249172                 59.5965950857
           1        7                 60.2220506392                 60.2220503827
           2        8               -515.4964576505               -515.4964530710
           2        9                 15.3030791347                 15.3030722972
           2       10                -21.7296094581                -21.7296135470
           2       11                 14.2969371730                 14.2969701621
           2       12                 21.0679693190                 21.0679697493
           2       13                 -2.3833606469                 -2.3833613176
           2       14                 13.7067136422                 13.7066766629
           2       15                 45.8013116808                 45.8013116965
           2       16                 52.2309815402                 52.2309831494
           2       17                 85.4120732416                 85.4120732763
           2       18                142.1019167745                142.1019167817
 * Note: Onsite integrals marked "***" above are less accurate than
 * onsite_accuracy_threshold =    0.03000 eV. Usually, this is harmless.
 * When in doubt, tighten the "radial" and/or "radial_multiplier" flags to check.

  Preparing densities etc. for the partition functions (integrals / Hartree potential).

  Preparations completed.
  max(cpu_time)          :      0.171 s.
  Wall clock time (cpu1) :      0.459 s.
------------------------------------------------------------

------------------------------------------------------------
          Begin self-consistency loop: Initialization.

          Date     :  20150727, Time     :  123631.606
------------------------------------------------------------

  Initializing index lists of integration centers etc. from given atomic structure:
  | Number of centers in hartree potential         :        12
  | Number of centers in hartree multipole         :        12
  | Number of centers in electron density summation:        12
  | Number of centers in basis integrals           :        12
  | Number of centers in integrals                 :        12
  Partitioning the integration grid into batches with parallel hashing+maxmin method.
  | Number of batches:     1546
  | Maximal batch size:     200
  | Minimal batch size:      49
  | Average batch size:     101.790
  | Standard deviation of batch sizes:      27.518

  Integration load balanced across     8 MPI tasks.
  Work distribution over tasks is as follows:
  Task     0 has      19645 integration points.
  Task     1 has      19638 integration points.
  Task     2 has      19621 integration points.
  Task     3 has      19698 integration points.
  Task     4 has      19723 integration points.
  Task     5 has      19673 integration points.
  Task     6 has      19697 integration points.
  Task     7 has      19673 integration points.
  Initializing partition tables, free-atom densities, potentials, etc. across the integration grid (initialize_grid_storage).
  | Net number of integration points:   157368
  | of which are non-zero points    :   156811
  Obtaining max. number of non-zero basis functions in each batch (get_n_compute_maxes).
  | Maximal number of non-zero basis functions:      273 in task     0
  | Maximal number of non-zero basis functions:      273 in task     1
  | Maximal number of non-zero basis functions:      273 in task     2
  | Maximal number of non-zero basis functions:      273 in task     3
  | Maximal number of non-zero basis functions:      273 in task     4
  | Maximal number of non-zero basis functions:      273 in task     5
  | Maximal number of non-zero basis functions:      273 in task     6
  | Maximal number of non-zero basis functions:      273 in task     7
  Integrating Hamiltonian matrix: batch-based integration.
  Time summed over all CPUs for integration: real work        4.021 s, elapsed        4.104 s
  Integrating overlap matrix.
  Time summed over all CPUs for integration: real work        2.132 s, elapsed        2.172 s

  Updating Kohn-Sham eigenvalues, eigenvectors, occupation numbers, and Fermi level.
  Solving generalized eigenproblem
  Updating Kohn-Sham eigenvalues and eigenfunctions.
  Transforming overlap matrix and checking for singularities.
  Overlap matrix is nonsingular:
  | Lowest eigenvalue:  0.307282E-03
  Solving real generalised eigenvalue problem by standard LAPACK (fast)
  Determining occupation numbers for Kohn-Sham eigenstates.
  | Chemical potential (Fermi level) in eV                 : -.45467777E+01
  | Error in electron count due to remaining E_F inaccuracy: 0.00000000E+00
  | Maximum occupation number of highest empty state:  0.00E+00

  Writing Kohn-Sham eigenvalues.

  State    Occupation    Eigenvalue [Ha]    Eigenvalue [eV]
      1       2.00000         -19.057203         -518.57287
      2       2.00000         -19.044507         -518.22739
      3       2.00000         -19.042514         -518.17318
      4       2.00000         -19.019450         -517.54558
      5       2.00000          -1.107907          -30.14768
      6       2.00000          -1.089090          -29.63564
      7       2.00000          -1.086441          -29.56357
      8       2.00000          -1.041687          -28.34574
      9       2.00000          -0.649269          -17.66752
     10       2.00000          -0.618251          -16.82345
     11       2.00000          -0.608895          -16.56887
     12       2.00000          -0.590280          -16.06233
     13       2.00000          -0.520759          -14.17057
     14       2.00000          -0.503157          -13.69161
     15       2.00000          -0.501506          -13.64668
     16       2.00000          -0.471743          -12.83678
     17       2.00000          -0.443006          -12.05479
     18       2.00000          -0.431677          -11.74652
     19       2.00000          -0.430150          -11.70496
     20       2.00000          -0.409341          -11.13875
     21       0.00000          -0.093461           -2.54319
     22       0.00000          -0.067489           -1.83646
     23       0.00000          -0.063847           -1.73737
     24       0.00000          -0.042146           -1.14684
     25       0.00000          -0.006271           -0.17065
     26       0.00000          -0.000510           -0.01387
     27       0.00000           0.039026            1.06196
     28       0.00000           0.043750            1.19049
     29       0.00000           0.074400            2.02453
     30       0.00000           0.076905            2.09269
     31       0.00000           0.083103            2.26134
     32       0.00000           0.099613            2.71060
     33       0.00000           0.104154            2.83418
     34       0.00000           0.107125            2.91501
     35       0.00000           0.110671            3.01152
     36       0.00000           0.129444            3.52234
     37       0.00000           0.132409            3.60303
     38       0.00000           0.147231            4.00635
     39       0.00000           0.149284            4.06223
     40       0.00000           0.170372            4.63607
     41       0.00000           0.179081            4.87304
     42       0.00000           0.200389            5.45286
     43       0.00000           0.224979            6.12198
     44       0.00000           0.230371            6.26871
     45       0.00000           0.241672            6.57624
     46       0.00000           0.266593            7.25437
     47       0.00000           0.286147            7.78644
     48       0.00000           0.309064            8.41005
     49       0.00000           0.328515            8.93934
     50       0.00000           0.352240            9.58494
     51       0.00000           0.355953            9.68598
     52       0.00000           0.377580           10.27447
     53       0.00000           0.385152           10.48051
     54       0.00000           0.394434           10.73310
     55       0.00000           0.405523           11.03485
     56       0.00000           0.414797           11.28719
     57       0.00000           0.428255           11.65341
     58       0.00000           0.444750           12.10226
     59       0.00000           0.453852           12.34995
     60       0.00000           0.461459           12.55695
     61       0.00000           0.484789           13.19179
     62       0.00000           0.498410           13.56243
     63       0.00000           0.530614           14.43874
     64       0.00000           0.549065           14.94081
     65       0.00000           0.579588           15.77138
     66       0.00000           0.624295           16.98794
     67       0.00000           0.684567           18.62801
     68       0.00000           0.708732           19.28557

  Highest occupied state (VBM) at    -11.13874799 eV
  | Occupation number:      2.00000000

  Lowest unoccupied state (CBM) at    -2.54319394 eV
  | Occupation number:      0.00000000

  Overall HOMO-LUMO gap:      8.59555405 eV.
  Calculating total energy contributions from superposition of free atom densities.

  Total energy components:
  | Sum of eigenvalues            :        -173.33366525 Ha       -4716.64901179 eV
  | XC energy correction          :         -36.42355201 Ha        -991.13527855 eV
  | XC potential correction       :          46.53692223 Ha        1266.33408425 eV
  | Free-atom electrostatic energy:        -143.24268514 Ha       -3897.83178211 eV
  | Hartree energy correction     :           0.00000000 Ha           0.00000000 eV
  | van der Waals energy corr.    :           0.00000000 Ha           0.00000000 eV
  | Entropy correction            :           0.00000000 Ha           0.00000000 eV
  | ---------------------------
  | Total energy                  :        -306.46298016 Ha       -8339.28198820 eV
  | Total energy, T -> 0          :        -306.46298016 Ha       -8339.28198820 eV  <-- do not rely on this value for anything but (periodic) metals
  | Electronic free energy        :        -306.46298016 Ha       -8339.28198820 eV

  Derived energy quantities:
  | Kinetic energy                :         303.26462727 Ha        8252.25037789 eV
  | Electrostatic energy          :        -573.30405542 Ha      -15600.39708754 eV
  | Energy correction for multipole
  | error in Hartree potential    :           0.00000000 Ha           0.00000000 eV
  | Sum of eigenvalues per atom                           :        -393.05408432 eV
  | Total energy (T->0) per atom                          :        -694.94016568 eV  <-- do not rely on this value for anything but (periodic) metals
  | Electronic free energy per atom                       :        -694.94016568 eV
  Initialize hartree_potential_storage
  Max. number of atoms included in rho_multipole:           12

  End scf initialization - timings             :  max(cpu_time)    wall_clock(cpu1)
  | Time for scf. initialization               :        1.186 s           1.185 s
  | Boundary condition initialization          :        0.000 s           0.000 s
  | Integration                                :        0.787 s           0.787 s
  | Solution of K.-S. eqns.                    :        0.118 s           0.119 s
  | Grid partitioning                          :        0.134 s           0.134 s
  | Preloading free-atom quantities on grid    :        0.014 s           0.013 s
  | Free-atom superposition energy             :        0.045 s           0.046 s
  | Total energy evaluation                    :        0.001 s           0.000 s
------------------------------------------------------------

------------------------------------------------------------
          Begin self-consistency iteration #    1

  Date     :  20150727, Time     :  123632.791
------------------------------------------------------------
  Evaluating new KS density.
  Integration grid: deviation in total charge (<rho> - N_e) =   1.421085E-14
  Pulay mixing of updated and previous charge densities.

  Evaluating partitioned Hartree potential by multipole expansion.
  | Analytical far-field extrapolation by fixed multipoles:
  | Hartree multipole sum: apparent total charge =  -0.148652E-05
  Summing up the Hartree potential.
  Time summed over all CPUs for potential: real work        1.651 s, elapsed        1.659 s
  | RMS charge density error from multipole expansion :   0.143284E-02

  Integrating Hamiltonian matrix: batch-based integration.
  Time summed over all CPUs for integration: real work        4.001 s, elapsed        4.076 s

  Updating Kohn-Sham eigenvalues, eigenvectors, occupation numbers, and Fermi level.
  Solving generalized eigenproblem
  Updating Kohn-Sham eigenvalues and eigenfunctions.
  Solving real generalised eigenvalue problem by standard LAPACK (fast)
  Determining occupation numbers for Kohn-Sham eigenstates.
  | Chemical potential (Fermi level) in eV                 : -.41510285E+01
  | Error in electron count due to remaining E_F inaccuracy: 0.00000000E+00
  | Maximum occupation number of highest empty state:  0.00E+00

  Writing Kohn-Sham eigenvalues.

  State    Occupation    Eigenvalue [Ha]    Eigenvalue [eV]
      1       2.00000         -18.985619         -516.62497
      2       2.00000         -18.973016         -516.28204
      3       2.00000         -18.967678         -516.13678
      4       2.00000         -18.933858         -515.21648
      5       2.00000          -1.074672          -29.24330
      6       2.00000          -1.051558          -28.61435
      7       2.00000          -1.051196          -28.60451
      8       2.00000          -0.995110          -27.07833
      9       2.00000          -0.621068          -16.90011
     10       2.00000          -0.586378          -15.95616
     11       2.00000          -0.579209          -15.76107
     12       2.00000          -0.552842          -15.04358
     13       2.00000          -0.484749          -13.19070
     14       2.00000          -0.467807          -12.72966
     15       2.00000          -0.463673          -12.61719
     16       2.00000          -0.429278          -11.68124
     17       2.00000          -0.407760          -11.09571
     18       2.00000          -0.392288          -10.67470
     19       2.00000          -0.390660          -10.63041
     20       2.00000          -0.361298           -9.83143
     21       0.00000          -0.085010           -2.31325
     22       0.00000          -0.059362           -1.61531
     23       0.00000          -0.054292           -1.47736
     24       0.00000          -0.035047           -0.95368
     25       0.00000          -0.000382           -0.01040
     26       0.00000           0.005814            0.15820
     27       0.00000           0.048491            1.31951
     28       0.00000           0.054233            1.47577
     29       0.00000           0.083646            2.27614
     30       0.00000           0.086450            2.35242
     31       0.00000           0.091424            2.48778
     32       0.00000           0.108015            2.93923
     33       0.00000           0.111262            3.02760
     34       0.00000           0.113504            3.08860
     35       0.00000           0.119548            3.25306
     36       0.00000           0.136804            3.72264
     37       0.00000           0.141711            3.85616
     38       0.00000           0.154923            4.21566
     39       0.00000           0.168196            4.57686
     40       0.00000           0.179232            4.87714
     41       0.00000           0.193502            5.26545
     42       0.00000           0.207863            5.65624
     43       0.00000           0.233196            6.34558
     44       0.00000           0.240433            6.54251
     45       0.00000           0.248428            6.76006
     46       0.00000           0.276045            7.51157
     47       0.00000           0.295139            8.03113
     48       0.00000           0.316912            8.62363
     49       0.00000           0.335909            9.14056
     50       0.00000           0.360400            9.80697
     51       0.00000           0.366917            9.98432
     52       0.00000           0.388959           10.58412
     53       0.00000           0.393484           10.70724
     54       0.00000           0.402993           10.96601
     55       0.00000           0.413074           11.24031
     56       0.00000           0.422935           11.50864
     57       0.00000           0.437296           11.89943
     58       0.00000           0.454697           12.37294
     59       0.00000           0.462686           12.59032
     60       0.00000           0.471642           12.83404
     61       0.00000           0.497012           13.52440
     62       0.00000           0.509140           13.85440
     63       0.00000           0.540076           14.69621
     64       0.00000           0.560052           15.23980
     65       0.00000           0.589042           16.02864
     66       0.00000           0.637468           17.34638
     67       0.00000           0.697852           18.98951
     68       0.00000           0.720631           19.60935

  Highest occupied state (VBM) at     -9.83142868 eV
  | Occupation number:      2.00000000

  Lowest unoccupied state (CBM) at    -2.31325265 eV
  | Occupation number:      0.00000000

  Overall HOMO-LUMO gap:      7.51817603 eV.

  Total energy components:
  | Sum of eigenvalues            :        -171.53943150 Ha       -4667.82542751 eV
  | XC energy correction          :         -36.61737478 Ha        -996.40946443 eV
  | XC potential correction       :          46.79089287 Ha        1273.24497699 eV
  | Free-atom electrostatic energy:        -143.24268514 Ha       -3897.83178211 eV
  | Hartree energy correction     :          -1.73800365 Ha         -47.29348564 eV
  | van der Waals energy corr.    :           0.00000000 Ha           0.00000000 eV
  | Entropy correction            :           0.00000000 Ha           0.00000000 eV
  | ---------------------------
  | Total energy                  :        -306.34660220 Ha       -8336.11518269 eV
  | Total energy, T -> 0          :        -306.34660220 Ha       -8336.11518269 eV  <-- do not rely on this value for anything but (periodic) metals
  | Electronic free energy        :        -306.34660220 Ha       -8336.11518269 eV

  Derived energy quantities:
  | Kinetic energy                :         304.40979861 Ha        8283.41207544 eV
  | Electrostatic energy          :        -574.13902603 Ha      -15623.11779370 eV
  | Energy correction for multipole
  | error in Hartree potential    :          -0.00009677 Ha          -0.00263330 eV
  | Sum of eigenvalues per atom                           :        -388.98545229 eV
  | Total energy (T->0) per atom                          :        -694.67626522 eV  <-- do not rely on this value for anything but (periodic) metals
  | Electronic free energy per atom                       :        -694.67626522 eV

  Self-consistency convergence accuracy:
  | Change of charge density      : 0.5933E+00
  | Change of sum of eigenvalues  : 0.4882E+02 eV
  | Change of total energy        : 0.3167E+01 eV

  End self-consistency iteration #     1       :  max(cpu_time)    wall_clock(cpu1)
  | Time for this iteration                    :        1.110 s           1.111 s
  | Charge density update                      :        0.354 s           0.354 s
  | Density mixing                             :        0.002 s           0.003 s
  | Hartree multipole update                   :        0.004 s           0.004 s
  | Hartree multipole summation                :        0.208 s           0.208 s
  | Integration                                :        0.510 s           0.511 s
  | Solution of K.-S. eqns.                    :        0.031 s           0.030 s
  | Total energy evaluation                    :        0.000 s           0.001 s
------------------------------------------------------------

------------------------------------------------------------
          Begin self-consistency iteration #    2

  Date     :  20150727, Time     :  123633.902
------------------------------------------------------------
  Evaluating new KS density.
  Integration grid: deviation in total charge (<rho> - N_e) =  -1.421085E-14
  Pulay mixing of updated and previous charge densities.

  Evaluating partitioned Hartree potential by multipole expansion.
  | Analytical far-field extrapolation by fixed multipoles:
  | Hartree multipole sum: apparent total charge =  -0.419807E-05
  Summing up the Hartree potential.
  Time summed over all CPUs for potential: real work        1.651 s, elapsed        1.658 s
  | RMS charge density error from multipole expansion :   0.568331E-02

  Integrating Hamiltonian matrix: batch-based integration.
  Time summed over all CPUs for integration: real work        3.995 s, elapsed        4.077 s

  Updating Kohn-Sham eigenvalues, eigenvectors, occupation numbers, and Fermi level.
  Solving generalized eigenproblem
  Updating Kohn-Sham eigenvalues and eigenfunctions.
  Solving real generalised eigenvalue problem by standard LAPACK (fast)
  Determining occupation numbers for Kohn-Sham eigenstates.
  | Chemical potential (Fermi level) in eV                 : -.31275971E+01
  | Error in electron count due to remaining E_F inaccuracy: 0.00000000E+00
  | Maximum occupation number of highest empty state:  0.00E+00

  Highest occupied state (VBM) at     -6.77873977 eV
  | Occupation number:      2.00000000

  Lowest unoccupied state (CBM) at    -1.84387092 eV
  | Occupation number:      0.00000000

  Overall HOMO-LUMO gap:      4.93486886 eV.

  Total energy components:
  | Sum of eigenvalues            :        -167.38350180 Ha       -4554.73682636 eV
  | XC energy correction          :         -37.08666478 Ha       -1009.17949517 eV
  | XC potential correction       :          47.40531414 Ha        1289.96423038 eV
  | Free-atom electrostatic energy:        -143.24268514 Ha       -3897.83178211 eV
  | Hartree energy correction     :          -5.90712122 Ha        -160.74094693 eV
  | van der Waals energy corr.    :           0.00000000 Ha           0.00000000 eV
  | Entropy correction            :           0.00000000 Ha           0.00000000 eV
  | ---------------------------
  | Total energy                  :        -306.21465880 Ha       -8332.52482018 eV
  | Total energy, T -> 0          :        -306.21465880 Ha       -8332.52482018 eV  <-- do not rely on this value for anything but (periodic) metals
  | Electronic free energy        :        -306.21465880 Ha       -8332.52482018 eV

  Derived energy quantities:
  | Kinetic energy                :         306.66467006 Ha        8344.77024953 eV
  | Electrostatic energy          :        -575.79266408 Ha      -15668.11557454 eV
  | Energy correction for multipole
  | error in Hartree potential    :          -0.00098580 Ha          -0.02682487 eV
  | Sum of eigenvalues per atom                           :        -379.56140220 eV
  | Total energy (T->0) per atom                          :        -694.37706835 eV  <-- do not rely on this value for anything but (periodic) metals
  | Electronic free energy per atom                       :        -694.37706835 eV

  Self-consistency convergence accuracy:
  | Change of charge density      : 0.4477E+00
  | Change of sum of eigenvalues  : 0.1131E+03 eV
  | Change of total energy        : 0.3590E+01 eV

  End self-consistency iteration #     2       :  max(cpu_time)    wall_clock(cpu1)
  | Time for this iteration                    :        1.110 s           1.110 s
  | Charge density update                      :        0.352 s           0.352 s
  | Density mixing                             :        0.004 s           0.004 s
  | Hartree multipole update                   :        0.004 s           0.004 s
  | Hartree multipole summation                :        0.208 s           0.208 s
  | Integration                                :        0.511 s           0.511 s
  | Solution of K.-S. eqns.                    :        0.030 s           0.030 s
  | Total energy evaluation                    :        0.000 s           0.000 s
------------------------------------------------------------

------------------------------------------------------------
          Begin self-consistency iteration #    3

  Date     :  20150727, Time     :  123635.012
------------------------------------------------------------
  Evaluating new KS density.
  Integration grid: deviation in total charge (<rho> - N_e) =   0.000000E+00
  Pulay mixing of updated and previous charge densities.

  Evaluating partitioned Hartree potential by multipole expansion.
  | Analytical far-field extrapolation by fixed multipoles:
  | Hartree multipole sum: apparent total charge =  -0.379612E-05
  Summing up the Hartree potential.
  Time summed over all CPUs for potential: real work        1.651 s, elapsed        1.658 s
  | RMS charge density error from multipole expansion :   0.118374E-01

  Integrating Hamiltonian matrix: batch-based integration.
  Time summed over all CPUs for integration: real work        3.993 s, elapsed        4.079 s

  Updating Kohn-Sham eigenvalues, eigenvectors, occupation numbers, and Fermi level.
  Solving generalized eigenproblem
  Updating Kohn-Sham eigenvalues and eigenfunctions.
  Solving real generalised eigenvalue problem by standard LAPACK (fast)
  Determining occupation numbers for Kohn-Sham eigenstates.
  | Chemical potential (Fermi level) in eV                 : -.28965356E+01
  | Error in electron count due to remaining E_F inaccuracy: 0.00000000E+00
  | Maximum occupation number of highest empty state:  0.00E+00

  Highest occupied state (VBM) at     -6.59174612 eV
  | Occupation number:      2.00000000

  Lowest unoccupied state (CBM) at    -1.76415462 eV
  | Occupation number:      0.00000000

  Overall HOMO-LUMO gap:      4.82759150 eV.

  Total energy components:
  | Sum of eigenvalues            :        -167.57452961 Ha       -4559.93495768 eV
  | XC energy correction          :         -37.06656128 Ha       -1008.63245113 eV
  | XC potential correction       :          47.37518028 Ha        1289.14424625 eV
  | Free-atom electrostatic energy:        -143.24268514 Ha       -3897.83178211 eV
  | Hartree energy correction     :          -5.70217768 Ha        -155.16414933 eV
  | van der Waals energy corr.    :           0.00000000 Ha           0.00000000 eV
  | Entropy correction            :           0.00000000 Ha           0.00000000 eV
  | ---------------------------
  | Total energy                  :        -306.21077344 Ha       -8332.41909401 eV
  | Total energy, T -> 0          :        -306.21077344 Ha       -8332.41909401 eV  <-- do not rely on this value for anything but (periodic) metals
  | Electronic free energy        :        -306.21077344 Ha       -8332.41909401 eV

  Derived energy quantities:
  | Kinetic energy                :         304.96855553 Ha        8298.61662483 eV
  | Electrostatic energy          :        -574.11276768 Ha      -15622.40326770 eV
  | Energy correction for multipole
  | error in Hartree potential    :          -0.00489064 Ha          -0.13308105 eV
  | Sum of eigenvalues per atom                           :        -379.99457981 eV
  | Total energy (T->0) per atom                          :        -694.36825783 eV  <-- do not rely on this value for anything but (periodic) metals
  | Electronic free energy per atom                       :        -694.36825783 eV

  Self-consistency convergence accuracy:
  | Change of charge density      : 0.2272E+00
  | Change of sum of eigenvalues  : -.5198E+01 eV
  | Change of total energy        : 0.1057E+00 eV

  End self-consistency iteration #     3       :  max(cpu_time)    wall_clock(cpu1)
  | Time for this iteration                    :        1.109 s           1.109 s
  | Charge density update                      :        0.349 s           0.349 s
  | Density mixing                             :        0.006 s           0.005 s
  | Hartree multipole update                   :        0.004 s           0.004 s
  | Hartree multipole summation                :        0.208 s           0.208 s
  | Integration                                :        0.511 s           0.511 s
  | Solution of K.-S. eqns.                    :        0.031 s           0.031 s
  | Total energy evaluation                    :        0.000 s           0.000 s
------------------------------------------------------------

------------------------------------------------------------
          Begin self-consistency iteration #    4

  Date     :  20150727, Time     :  123636.121
------------------------------------------------------------
  Evaluating new KS density.
  Integration grid: deviation in total charge (<rho> - N_e) =   1.421085E-14
  Pulay mixing of updated and previous charge densities.

  Evaluating partitioned Hartree potential by multipole expansion.
  | Analytical far-field extrapolation by fixed multipoles:
  | Hartree multipole sum: apparent total charge =  -0.447476E-05
  Summing up the Hartree potential.
  Time summed over all CPUs for potential: real work        1.651 s, elapsed        1.658 s
  | RMS charge density error from multipole expansion :   0.149219E-01

  Integrating Hamiltonian matrix: batch-based integration.
  Time summed over all CPUs for integration: real work        3.978 s, elapsed        4.050 s

  Updating Kohn-Sham eigenvalues, eigenvectors, occupation numbers, and Fermi level.
  Solving generalized eigenproblem
  Updating Kohn-Sham eigenvalues and eigenfunctions.
  Solving real generalised eigenvalue problem by standard LAPACK (fast)
  Determining occupation numbers for Kohn-Sham eigenstates.
  | Chemical potential (Fermi level) in eV                 : -.25045853E+01
  | Error in electron count due to remaining E_F inaccuracy: 0.00000000E+00
  | Maximum occupation number of highest empty state:  0.00E+00

  Highest occupied state (VBM) at     -5.56759027 eV
  | Occupation number:      2.00000000

  Lowest unoccupied state (CBM) at    -1.62417024 eV
  | Occupation number:      0.00000000

  Overall HOMO-LUMO gap:      3.94342003 eV.

  Total energy components:
  | Sum of eigenvalues            :        -166.36756594 Ha       -4527.09180517 eV
  | XC energy correction          :         -37.21799818 Ha       -1012.75325882 eV
  | XC potential correction       :          47.57287625 Ha        1294.52382742 eV
  | Free-atom electrostatic energy:        -143.24268514 Ha       -3897.83178211 eV
  | Hartree energy correction     :          -6.94594544 Ha        -189.00879219 eV
  | van der Waals energy corr.    :           0.00000000 Ha           0.00000000 eV
  | Entropy correction            :           0.00000000 Ha           0.00000000 eV
  | ---------------------------
  | Total energy                  :        -306.20131845 Ha       -8332.16181086 eV
  | Total energy, T -> 0          :        -306.20131845 Ha       -8332.16181086 eV  <-- do not rely on this value for anything but (periodic) metals
  | Electronic free energy        :        -306.20131845 Ha       -8332.16181086 eV

  Derived energy quantities:
  | Kinetic energy                :         305.14425372 Ha        8303.39761590 eV
  | Electrostatic energy          :        -574.12757399 Ha      -15622.80616795 eV
  | Energy correction for multipole
  | error in Hartree potential    :          -0.00634905 Ha          -0.17276656 eV
  | Sum of eigenvalues per atom                           :        -377.25765043 eV
  | Total energy (T->0) per atom                          :        -694.34681757 eV  <-- do not rely on this value for anything but (periodic) metals
  | Electronic free energy per atom                       :        -694.34681757 eV

  Self-consistency convergence accuracy:
  | Change of charge density      : 0.1232E+00
  | Change of sum of eigenvalues  : 0.3284E+02 eV
  | Change of total energy        : 0.2573E+00 eV

  End self-consistency iteration #     4       :  max(cpu_time)    wall_clock(cpu1)
  | Time for this iteration                    :        1.107 s           1.107 s
  | Charge density update                      :        0.350 s           0.350 s
  | Density mixing                             :        0.006 s           0.006 s
  | Hartree multipole update                   :        0.005 s           0.004 s
  | Hartree multipole summation                :        0.207 s           0.208 s
  | Integration                                :        0.507 s           0.508 s
  | Solution of K.-S. eqns.                    :        0.030 s           0.030 s
  | Total energy evaluation                    :        0.000 s           0.000 s
------------------------------------------------------------

------------------------------------------------------------
          Begin self-consistency iteration #    5

  Date     :  20150727, Time     :  123637.228
------------------------------------------------------------
  Evaluating new KS density.
  Integration grid: deviation in total charge (<rho> - N_e) =   0.000000E+00
  Pulay mixing of updated and previous charge densities.

  Evaluating partitioned Hartree potential by multipole expansion.
  | Analytical far-field extrapolation by fixed multipoles:
  | Hartree multipole sum: apparent total charge =  -0.446931E-05
  Summing up the Hartree potential.
  Time summed over all CPUs for potential: real work        1.650 s, elapsed        1.658 s
  | RMS charge density error from multipole expansion :   0.155234E-01

  Integrating Hamiltonian matrix: batch-based integration.
  Time summed over all CPUs for integration: real work        3.981 s, elapsed        4.058 s

  Updating Kohn-Sham eigenvalues, eigenvectors, occupation numbers, and Fermi level.
  Solving generalized eigenproblem
  Updating Kohn-Sham eigenvalues and eigenfunctions.
  Solving real generalised eigenvalue problem by standard LAPACK (fast)
  Determining occupation numbers for Kohn-Sham eigenstates.
  | Chemical potential (Fermi level) in eV                 : -.24780306E+01
  | Error in electron count due to remaining E_F inaccuracy: 0.00000000E+00
  | Maximum occupation number of highest empty state:  0.00E+00

  Highest occupied state (VBM) at     -5.32179010 eV
  | Occupation number:      2.00000000

  Lowest unoccupied state (CBM) at    -1.61563010 eV
  | Occupation number:      0.00000000

  Overall HOMO-LUMO gap:      3.70615999 eV.

  Total energy components:
  | Sum of eigenvalues            :        -166.24155188 Ha       -4523.66278812 eV
  | XC energy correction          :         -37.23644159 Ha       -1013.25512950 eV
  | XC potential correction       :          47.59666927 Ha        1295.17126851 eV
  | Free-atom electrostatic energy:        -143.24268514 Ha       -3897.83178211 eV
  | Hartree energy correction     :          -7.07709432 Ha        -192.57753468 eV
  | van der Waals energy corr.    :           0.00000000 Ha           0.00000000 eV
  | Entropy correction            :           0.00000000 Ha           0.00000000 eV
  | ---------------------------
  | Total energy                  :        -306.20110366 Ha       -8332.15596590 eV
  | Total energy, T -> 0          :        -306.20110366 Ha       -8332.15596590 eV  <-- do not rely on this value for anything but (periodic) metals
  | Electronic free energy        :        -306.20110366 Ha       -8332.15596590 eV

  Derived energy quantities:
  | Kinetic energy                :         305.18026782 Ha        8304.37760956 eV
  | Electrostatic energy          :        -574.14492989 Ha      -15623.27844596 eV
  | Energy correction for multipole
  | error in Hartree potential    :          -0.00661203 Ha          -0.17992250 eV
  | Sum of eigenvalues per atom                           :        -376.97189901 eV
  | Total energy (T->0) per atom                          :        -694.34633049 eV  <-- do not rely on this value for anything but (periodic) metals
  | Electronic free energy per atom                       :        -694.34633049 eV

  Self-consistency convergence accuracy:
  | Change of charge density      : 0.2829E-01
  | Change of sum of eigenvalues  : 0.3429E+01 eV
  | Change of total energy        : 0.5845E-02 eV

  End self-consistency iteration #     5       :  max(cpu_time)    wall_clock(cpu1)
  | Time for this iteration                    :        1.108 s           1.108 s
  | Charge density update                      :        0.349 s           0.349 s
  | Density mixing                             :        0.008 s           0.007 s
  | Hartree multipole update                   :        0.004 s           0.004 s
  | Hartree multipole summation                :        0.208 s           0.208 s
  | Integration                                :        0.508 s           0.508 s
  | Solution of K.-S. eqns.                    :        0.031 s           0.030 s
  | Total energy evaluation                    :        0.000 s           0.000 s
------------------------------------------------------------

------------------------------------------------------------
          Begin self-consistency iteration #    6

  Date     :  20150727, Time     :  123638.336
------------------------------------------------------------
  Evaluating new KS density.
  Integration grid: deviation in total charge (<rho> - N_e) =   7.105427E-15
  Pulay mixing of updated and previous charge densities.

  Evaluating partitioned Hartree potential by multipole expansion.
  | Analytical far-field extrapolation by fixed multipoles:
  | Hartree multipole sum: apparent total charge =  -0.448364E-05
  Summing up the Hartree potential.
  Time summed over all CPUs for potential: real work        1.651 s, elapsed        1.658 s
  | RMS charge density error from multipole expansion :   0.158796E-01

  Integrating Hamiltonian matrix: batch-based integration.
  Time summed over all CPUs for integration: real work        3.983 s, elapsed        4.055 s

  Updating Kohn-Sham eigenvalues, eigenvectors, occupation numbers, and Fermi level.
  Solving generalized eigenproblem
  Updating Kohn-Sham eigenvalues and eigenfunctions.
  Solving real generalised eigenvalue problem by standard LAPACK (fast)
  Determining occupation numbers for Kohn-Sham eigenstates.
  | Chemical potential (Fermi level) in eV                 : -.24509497E+01
  | Error in electron count due to remaining E_F inaccuracy: 0.00000000E+00
  | Maximum occupation number of highest empty state:  0.00E+00

  Highest occupied state (VBM) at     -5.24834647 eV
  | Occupation number:      2.00000000

  Lowest unoccupied state (CBM) at    -1.60313830 eV
  | Occupation number:      0.00000000

  Overall HOMO-LUMO gap:      3.64520817 eV.

  Total energy components:
  | Sum of eigenvalues            :        -166.16073165 Ha       -4521.46355767 eV
  | XC energy correction          :         -37.24772690 Ha       -1013.56221837 eV
  | XC potential correction       :          47.61126904 Ha        1295.56854828 eV
  | Free-atom electrostatic energy:        -143.24268514 Ha       -3897.83178211 eV
  | Hartree energy correction     :          -7.16134654 Ha        -194.87015417 eV
  | van der Waals energy corr.    :           0.00000000 Ha           0.00000000 eV
  | Entropy correction            :           0.00000000 Ha           0.00000000 eV
  | ---------------------------
  | Total energy                  :        -306.20122119 Ha       -8332.15916404 eV
  | Total energy, T -> 0          :        -306.20122119 Ha       -8332.15916404 eV  <-- do not rely on this value for anything but (periodic) metals
  | Electronic free energy        :        -306.20122119 Ha       -8332.15916404 eV

  Derived energy quantities:
  | Kinetic energy                :         305.19154059 Ha        8304.68435720 eV
  | Electrostatic energy          :        -574.14503488 Ha      -15623.28130287 eV
  | Energy correction for multipole
  | error in Hartree potential    :          -0.00676619 Ha          -0.18411734 eV
  | Sum of eigenvalues per atom                           :        -376.78862981 eV
  | Total energy (T->0) per atom                          :        -694.34659700 eV  <-- do not rely on this value for anything but (periodic) metals
  | Electronic free energy per atom                       :        -694.34659700 eV

  Self-consistency convergence accuracy:
  | Change of charge density      : 0.8264E-02
  | Change of sum of eigenvalues  : 0.2199E+01 eV
  | Change of total energy        : -.3198E-02 eV

  End self-consistency iteration #     6       :  max(cpu_time)    wall_clock(cpu1)
  | Time for this iteration                    :        1.110 s           1.109 s
  | Charge density update                      :        0.350 s           0.350 s
  | Density mixing                             :        0.009 s           0.008 s
  | Hartree multipole update                   :        0.004 s           0.005 s
  | Hartree multipole summation                :        0.208 s           0.208 s
  | Integration                                :        0.508 s           0.507 s
  | Solution of K.-S. eqns.                    :        0.030 s           0.031 s
  | Total energy evaluation                    :        0.000 s           0.000 s
------------------------------------------------------------

------------------------------------------------------------
          Begin self-consistency iteration #    7

  Date     :  20150727, Time     :  123639.445
------------------------------------------------------------
  Evaluating new KS density.
  Integration grid: deviation in total charge (<rho> - N_e) =   7.105427E-15
  Pulay mixing of updated and previous charge densities.

  Evaluating partitioned Hartree potential by multipole expansion.
  | Analytical far-field extrapolation by fixed multipoles:
  | Hartree multipole sum: apparent total charge =  -0.432520E-05
  Summing up the Hartree potential.
  Time summed over all CPUs for potential: real work        1.650 s, elapsed        1.658 s
  | RMS charge density error from multipole expansion :   0.157820E-01

  Integrating Hamiltonian matrix: batch-based integration.
  Time summed over all CPUs for integration: real work        3.978 s, elapsed        4.051 s

  Updating Kohn-Sham eigenvalues, eigenvectors, occupation numbers, and Fermi level.
  Solving generalized eigenproblem
  Updating Kohn-Sham eigenvalues and eigenfunctions.
  Solving real generalised eigenvalue problem by standard LAPACK (fast)
  Determining occupation numbers for Kohn-Sham eigenstates.
  | Chemical potential (Fermi level) in eV                 : -.24972792E+01
  | Error in electron count due to remaining E_F inaccuracy: 0.00000000E+00
  | Maximum occupation number of highest empty state:  0.00E+00

  Highest occupied state (VBM) at     -5.39156782 eV
  | Occupation number:      2.00000000

  Lowest unoccupied state (CBM) at    -1.62201979 eV
  | Occupation number:      0.00000000

  Overall HOMO-LUMO gap:      3.76954803 eV.

  Total energy components:
  | Sum of eigenvalues            :        -166.29095449 Ha       -4525.00710160 eV
  | XC energy correction          :         -37.23228562 Ha       -1013.14203975 eV
  | XC potential correction       :          47.59070068 Ha        1295.00885487 eV
  | Free-atom electrostatic energy:        -143.24268514 Ha       -3897.83178211 eV
  | Hartree energy correction     :          -7.02586215 Ha        -191.18343634 eV
  | van der Waals energy corr.    :           0.00000000 Ha           0.00000000 eV
  | Entropy correction            :           0.00000000 Ha           0.00000000 eV
  | ---------------------------
  | Total energy                  :        -306.20108672 Ha       -8332.15550493 eV
  | Total energy, T -> 0          :        -306.20108672 Ha       -8332.15550493 eV  <-- do not rely on this value for anything but (periodic) metals
  | Electronic free energy        :        -306.20108672 Ha       -8332.15550493 eV

  Derived energy quantities:
  | Kinetic energy                :         305.22245021 Ha        8305.52545081 eV
  | Electrostatic energy          :        -574.19125131 Ha      -15624.53891598 eV
  | Energy correction for multipole
  | error in Hartree potential    :          -0.00663442 Ha          -0.18053181 eV
  | Sum of eigenvalues per atom                           :        -377.08392513 eV
  | Total energy (T->0) per atom                          :        -694.34629208 eV  <-- do not rely on this value for anything but (periodic) metals
  | Electronic free energy per atom                       :        -694.34629208 eV

  Self-consistency convergence accuracy:
  | Change of charge density      : 0.1144E-01
  | Change of sum of eigenvalues  : -.3544E+01 eV
  | Change of total energy        : 0.3659E-02 eV

  End self-consistency iteration #     7       :  max(cpu_time)    wall_clock(cpu1)
  | Time for this iteration                    :        1.110 s           1.110 s
  | Charge density update                      :        0.350 s           0.350 s
  | Density mixing                             :        0.009 s           0.010 s
  | Hartree multipole update                   :        0.004 s           0.004 s
  | Hartree multipole summation                :        0.208 s           0.208 s
  | Integration                                :        0.508 s           0.507 s
  | Solution of K.-S. eqns.                    :        0.030 s           0.031 s
  | Total energy evaluation                    :        0.000 s           0.000 s
------------------------------------------------------------

------------------------------------------------------------
          Begin self-consistency iteration #    8

  Date     :  20150727, Time     :  123640.555
------------------------------------------------------------
  Evaluating new KS density.
  Integration grid: deviation in total charge (<rho> - N_e) =   7.105427E-15
  Pulay mixing of updated and previous charge densities.

  Evaluating partitioned Hartree potential by multipole expansion.
  | Analytical far-field extrapolation by fixed multipoles:
  | Hartree multipole sum: apparent total charge =  -0.431154E-05
  Summing up the Hartree potential.
  Time summed over all CPUs for potential: real work        1.651 s, elapsed        1.658 s
  | RMS charge density error from multipole expansion :   0.157879E-01

  Integrating Hamiltonian matrix: batch-based integration.
  Time summed over all CPUs for integration: real work        3.982 s, elapsed        4.054 s

  Updating Kohn-Sham eigenvalues, eigenvectors, occupation numbers, and Fermi level.
  Solving generalized eigenproblem
  Updating Kohn-Sham eigenvalues and eigenfunctions.
  Solving real generalised eigenvalue problem by standard LAPACK (fast)
  Determining occupation numbers for Kohn-Sham eigenstates.
  | Chemical potential (Fermi level) in eV                 : -.24988686E+01
  | Error in electron count due to remaining E_F inaccuracy: 0.00000000E+00
  | Maximum occupation number of highest empty state:  0.00E+00

  Highest occupied state (VBM) at     -5.39043882 eV
  | Occupation number:      2.00000000

  Lowest unoccupied state (CBM) at    -1.62283425 eV
  | Occupation number:      0.00000000

  Overall HOMO-LUMO gap:      3.76760457 eV.

  Total energy components:
  | Sum of eigenvalues            :        -166.29699779 Ha       -4525.17154814 eV
  | XC energy correction          :         -37.23151944 Ha       -1013.12119103 eV
  | XC potential correction       :          47.58966537 Ha        1294.98068268 eV
  | Free-atom electrostatic energy:        -143.24268514 Ha       -3897.83178211 eV
  | Hartree energy correction     :          -7.01954788 Ha        -191.01161639 eV
  | van der Waals energy corr.    :           0.00000000 Ha           0.00000000 eV
  | Entropy correction            :           0.00000000 Ha           0.00000000 eV
  | ---------------------------
  | Total energy                  :        -306.20108488 Ha       -8332.15545499 eV
  | Total energy, T -> 0          :        -306.20108488 Ha       -8332.15545499 eV  <-- do not rely on this value for anything but (periodic) metals
  | Electronic free energy        :        -306.20108488 Ha       -8332.15545499 eV

  Derived energy quantities:
  | Kinetic energy                :         305.22478418 Ha        8305.58896125 eV
  | Electrostatic energy          :        -574.19434962 Ha      -15624.62322521 eV
  | Energy correction for multipole
  | error in Hartree potential    :          -0.00663403 Ha          -0.18052119 eV
  | Sum of eigenvalues per atom                           :        -377.09762901 eV
  | Total energy (T->0) per atom                          :        -694.34628792 eV  <-- do not rely on this value for anything but (periodic) metals
  | Electronic free energy per atom                       :        -694.34628792 eV

  Self-consistency convergence accuracy:
  | Change of charge density      : 0.1578E-02
  | Change of sum of eigenvalues  : -.1644E+00 eV
  | Change of total energy        : 0.4994E-04 eV

  End self-consistency iteration #     8       :  max(cpu_time)    wall_clock(cpu1)
  | Time for this iteration                    :        1.111 s           1.111 s
  | Charge density update                      :        0.349 s           0.349 s
  | Density mixing                             :        0.011 s           0.011 s
  | Hartree multipole update                   :        0.004 s           0.004 s
  | Hartree multipole summation                :        0.208 s           0.208 s
  | Integration                                :        0.508 s           0.508 s
  | Solution of K.-S. eqns.                    :        0.031 s           0.031 s
  | Total energy evaluation                    :        0.000 s           0.000 s
------------------------------------------------------------

------------------------------------------------------------
          Begin self-consistency iteration #    9

  Date     :  20150727, Time     :  123641.666
------------------------------------------------------------
  Evaluating new KS density.
  Integration grid: deviation in total charge (<rho> - N_e) =   0.000000E+00
  Pulay mixing of updated and previous charge densities.

  Evaluating partitioned Hartree potential by multipole expansion.
  | Analytical far-field extrapolation by fixed multipoles:
  | Hartree multipole sum: apparent total charge =  -0.430083E-05
  Summing up the Hartree potential.
  Time summed over all CPUs for potential: real work        1.651 s, elapsed        1.658 s
  | RMS charge density error from multipole expansion :   0.157875E-01

  Integrating Hamiltonian matrix: batch-based integration.
  Time summed over all CPUs for integration: real work        3.978 s, elapsed        4.053 s

  Updating Kohn-Sham eigenvalues, eigenvectors, occupation numbers, and Fermi level.
  Solving generalized eigenproblem
  Updating Kohn-Sham eigenvalues and eigenfunctions.
  Solving real generalised eigenvalue problem by standard LAPACK (fast)
  Determining occupation numbers for Kohn-Sham eigenstates.
  | Chemical potential (Fermi level) in eV                 : -.25000545E+01
  | Error in electron count due to remaining E_F inaccuracy: 0.00000000E+00
  | Maximum occupation number of highest empty state:  0.00E+00

  Highest occupied state (VBM) at     -5.39917813 eV
  | Occupation number:      2.00000000

  Lowest unoccupied state (CBM) at    -1.62329603 eV
  | Occupation number:      0.00000000

  Overall HOMO-LUMO gap:      3.77588211 eV.

  Total energy components:
  | Sum of eigenvalues            :        -166.30145426 Ha       -4525.29281485 eV
  | XC energy correction          :         -37.23093775 Ha       -1013.10536247 eV
  | XC potential correction       :          47.58887854 Ha        1294.95927186 eV
  | Free-atom electrostatic energy:        -143.24268514 Ha       -3897.83178211 eV
  | Hartree energy correction     :          -7.01488539 Ha        -190.88474369 eV
  | van der Waals energy corr.    :           0.00000000 Ha           0.00000000 eV
  | Entropy correction            :           0.00000000 Ha           0.00000000 eV
  | ---------------------------
  | Total energy                  :        -306.20108401 Ha       -8332.15543126 eV
  | Total energy, T -> 0          :        -306.20108401 Ha       -8332.15543126 eV  <-- do not rely on this value for anything but (periodic) metals
  | Electronic free energy        :        -306.20108401 Ha       -8332.15543126 eV

  Derived energy quantities:
  | Kinetic energy                :         305.22891001 Ha        8305.70123089 eV
  | Electrostatic energy          :        -574.19905627 Ha      -15624.75129967 eV
  | Energy correction for multipole
  | error in Hartree potential    :          -0.00662763 Ha          -0.18034702 eV
  | Sum of eigenvalues per atom                           :        -377.10773457 eV
  | Total energy (T->0) per atom                          :        -694.34628594 eV  <-- do not rely on this value for anything but (periodic) metals
  | Electronic free energy per atom                       :        -694.34628594 eV

  Self-consistency convergence accuracy:
  | Change of charge density      : 0.9105E-03
  | Change of sum of eigenvalues  : -.1213E+00 eV
  | Change of total energy        : 0.2373E-04 eV

  End self-consistency iteration #     9       :  max(cpu_time)    wall_clock(cpu1)
  | Time for this iteration                    :        1.112 s           1.111 s
  | Charge density update                      :        0.349 s           0.349 s
  | Density mixing                             :        0.012 s           0.012 s
  | Hartree multipole update                   :        0.004 s           0.004 s
  | Hartree multipole summation                :        0.208 s           0.208 s
  | Integration                                :        0.508 s           0.508 s
  | Solution of K.-S. eqns.                    :        0.030 s           0.030 s
  | Total energy evaluation                    :        0.000 s           0.000 s
------------------------------------------------------------

------------------------------------------------------------
          Begin self-consistency iteration #   10

  Date     :  20150727, Time     :  123642.778
------------------------------------------------------------
  Evaluating new KS density.
  Integration grid: deviation in total charge (<rho> - N_e) =  -7.105427E-15
  Pulay mixing of updated and previous charge densities.

  Evaluating partitioned Hartree potential by multipole expansion.
  | Analytical far-field extrapolation by fixed multipoles:
  | Hartree multipole sum: apparent total charge =  -0.429814E-05
  Summing up the Hartree potential.
  Time summed over all CPUs for potential: real work        1.650 s, elapsed        1.658 s
  | RMS charge density error from multipole expansion :   0.157994E-01

  Integrating Hamiltonian matrix: batch-based integration.
  Time summed over all CPUs for integration: real work        3.972 s, elapsed        4.046 s

  Updating Kohn-Sham eigenvalues, eigenvectors, occupation numbers, and Fermi level.
  Solving generalized eigenproblem
[...]
  |                                 -0.01082001       0.11906615       0.00754322
  |                                 -0.00635288       0.00754322       0.11384662
  ----------------------------------------------------------------------


  Total energy components:
  | Sum of eigenvalues            :        -166.29881780 Ha       -4525.22107311 eV
  | XC energy correction          :         -37.23125327 Ha       -1013.11394828 eV
  | XC potential correction       :          47.58927888 Ha        1294.97016566 eV
  | Free-atom electrostatic energy:        -143.24268514 Ha       -3897.83178211 eV
  | Hartree energy correction     :          -7.01760646 Ha        -190.95878765 eV
  | van der Waals energy corr.    :          -0.00132687 Ha          -0.03610603 eV
  | Entropy correction            :           0.00000000 Ha           0.00000000 eV
  | ---------------------------
  | Total energy                  :        -306.20241067 Ha       -8332.19153151 eV
  | Total energy, T -> 0          :        -306.20241067 Ha       -8332.19153151 eV  <-- do not rely on this value for anything but (periodic) metals
  | Electronic free energy        :        -306.20241067 Ha       -8332.19153151 eV

  Derived energy quantities:
  | Kinetic energy                :         305.23054268 Ha        8305.74565793 eV
  | Electrostatic energy          :        -574.20037320 Ha      -15624.78713514 eV
  | Energy correction for multipole
  | error in Hartree potential    :          -0.00663476 Ha          -0.18054093 eV
  | Sum of eigenvalues per atom                           :        -377.10175609 eV
  | Total energy (T->0) per atom                          :        -694.34929429 eV  <-- do not rely on this value for anything but (periodic) metals
  | Electronic free energy per atom                       :        -694.34929429 eV

  atomic forces [eV/Ang]:
  -----------------------
  atom #    1
   Hellmann-Feynman + Multipole  : -.677885E+01 -.110421E+02 0.269726E+01
   Pulay + GGA                   : 0.496940E+01 0.144232E+02 -.401574E+01
   Van der Waals               : -.186677E-02 0.158350E-02 0.193711E-02
   ----------------------------------------------------------------
   Total forces(   1)            : -.181132E+01 0.338268E+01 -.131654E+01
  atom #    2
   Hellmann-Feynman + Multipole  : 0.223094E+01 -.367402E+01 0.155429E+01
   Pulay + GGA                   : -.366088E-01 0.109107E+00 -.362308E-01
   Van der Waals               : -.770834E-03 0.209330E-02 0.233384E-02
   ----------------------------------------------------------------
   Total forces(   2)            : 0.219356E+01 -.356282E+01 0.152040E+01
  atom #    3
   Hellmann-Feynman + Multipole  : -.145325E+01 -.198117E+00 -.302589E+00
   Pulay + GGA                   : 0.659602E-01 0.122639E-01 0.302315E-01
   Van der Waals               : -.128366E-03 0.262812E-02 0.242367E-02
   ----------------------------------------------------------------
   Total forces(   3)            : -.138742E+01 -.183225E+00 -.269934E+00
  atom #    4
   Hellmann-Feynman + Multipole  : -.568495E+01 0.135504E+01 -.978119E+01
   Pulay + GGA                   : 0.856321E+01 -.159805E+01 0.109151E+02
   Van der Waals               : 0.504924E-02 0.524113E-03 0.134387E-02
   ----------------------------------------------------------------
   Total forces(   4)            : 0.288332E+01 -.242489E+00 0.113522E+01
  atom #    5
   Hellmann-Feynman + Multipole  : -.345419E+00 -.429393E+00 -.859225E+00
   Pulay + GGA                   : 0.488098E-01 0.440536E-01 0.740023E-01
   Van der Waals               : 0.173308E-02 -.211679E-03 -.170102E-02
   ----------------------------------------------------------------
   Total forces(   5)            : -.294876E+00 -.385551E+00 -.786924E+00
  atom #    6
   Hellmann-Feynman + Multipole  : -.173670E+01 0.100794E+01 -.404914E+00
   Pulay + GGA                   : 0.119635E+00 -.536410E-01 0.232325E-01
   Van der Waals               : -.213933E-02 0.290685E-02 0.206615E-02
   ----------------------------------------------------------------
   Total forces(   6)            : -.161921E+01 0.957208E+00 -.379615E+00
  atom #    7
   Hellmann-Feynman + Multipole  : -.295960E+01 -.103551E+01 -.151927E+02
   Pulay + GGA                   : 0.384814E+01 0.142252E+01 0.137456E+02
   Van der Waals               : -.775440E-02 -.900352E-03 -.567633E-03
   ----------------------------------------------------------------
   Total forces(   7)            : 0.880783E+00 0.386110E+00 -.144761E+01
  atom #    8
   Hellmann-Feynman + Multipole  : -.486319E+00 -.245418E+00 0.306848E+00
   Pulay + GGA                   : 0.976953E-01 0.704839E-01 0.549229E-01
   Van der Waals               : -.130584E-02 -.106142E-02 -.107733E-02
   ----------------------------------------------------------------
   Total forces(   8)            : -.389929E+00 -.175996E+00 0.360693E+00
  atom #    9
   Hellmann-Feynman + Multipole  : -.451643E+00 -.128245E+00 0.109628E+01
   Pulay + GGA                   : -.711280E-01 -.347622E-01 0.946449E-01
   Van der Waals               : -.474779E-02 -.106103E-02 -.369647E-02
   ----------------------------------------------------------------
   Total forces(   9)            : -.527519E+00 -.164069E+00 0.118723E+01
  atom #   10
   Hellmann-Feynman + Multipole  : 0.808569E+00 -.162538E+02 0.193654E+01
   Pulay + GGA                   : 0.580207E+00 0.163994E+02 -.374315E+01
   Van der Waals               : 0.612602E-02 -.281598E-02 -.224616E-02
   ----------------------------------------------------------------
   Total forces(  10)            : 0.139490E+01 0.142790E+00 -.180885E+01
  atom #   11
   Hellmann-Feynman + Multipole  : -.246275E+00 0.545765E+00 0.188141E+00
   Pulay + GGA                   : -.765354E-01 0.995742E-01 0.865850E-01
   Van der Waals               : 0.908274E-03 -.522091E-03 -.330486E-03
   ----------------------------------------------------------------
   Total forces(  11)            : -.321902E+00 0.644817E+00 0.274395E+00
  atom #   12
   Hellmann-Feynman + Multipole  : -.106252E+01 -.865268E+00 0.162704E+01
   Pulay + GGA                   : 0.576905E-01 0.749347E-01 -.106055E+00
   Van der Waals               : 0.489670E-02 -.316333E-02 -.485524E-03
   ----------------------------------------------------------------
   Total forces(  12)            : -.999931E+00 -.793497E+00 0.152050E+01
  Timings for vdw_correction_hirshfeld (Tkatchenko-Scheffler 2009):
  | CPU time:        2.942 s, Wall clock time:        2.941 s.
  Removing unitary transformations (pure translations, rotations) from forces on atoms.
  Atomic forces before filtering:
  | Net force on center of mass :  0.456243E-03 0.595178E-02 -.110440E-01 eV/A
  | Net torque on center of mass:  0.227845E-02 -.723487E-02 -.113221E-01 eV
  Atomic forces after filtering:
  | Net force on center of mass :  -.356812E-15 0.178406E-15 0.142725E-14 eV/A
  | Net torque on center of mass:  0.000000E+00 0.000000E+00 -.453161E-14 eV
 
  Energy and forces in a compact form:
  | Total energy uncorrected      :         -0.833219153151408E+04 eV
  | Total energy corrected        :         -0.833219153151408E+04 eV  <-- do not rely on this value for anything but (periodic) metals
  | Electronic free energy        :         -0.833219153151408E+04 eV
  Total atomic forces (unitary forces cleaned) [eV/Ang]:
  |   1         -0.181113479200377E+01          0.338164883239206E+01         -0.131495981472825E+01
  |   2          0.219335253985128E+01         -0.356408316447228E+01          0.152195048803762E+01
  |   3         -0.138730486699399E+01         -0.183942489815830E+00         -0.268694643567547E+00
  |   4          0.288326089150102E+01         -0.242778956215133E+00          0.113592993431218E+01
  |   5         -0.294891485350711E+00         -0.385659783767575E+00         -0.786366269561630E+00
  |   6         -0.161904887203566E+01          0.957192684494360E+00         -0.379032892883613E+00
  |   7          0.880704568178818E+00          0.386114225683529E+00         -0.144720953756920E+01
  |   8         -0.390066393659307E+00         -0.175696031669177E+00          0.360770532516049E+00
  |   9         -0.527300606562240E+00         -0.164093528027112E+00          0.118786142678766E+01
  |  10          0.139483544222623E+01          0.141871901802249E+00         -0.180753826698548E+01
  |  11         -0.322036903960625E+00          0.643853634450330E+00          0.275707560270124E+00
  |  12         -0.100036952119106E+01         -0.794427324855425E+00          0.152158148337209E+01
 
  ------------------------------------ 
  Start decomposition of the XC Energy 
  ------------------------------------ 
  Hartree-Fock part   :          0.000000000 Ha              0.000000000 eV
  ------------------------------------ 
  X Energy            :        -35.927928261 Ha           -977.648670190 eV
  C Energy GGA        :         -1.303325014 Ha            -35.465278090 eV
  Total XC Energy     :        -37.231253275 Ha          -1013.113948280 eV
  LDA X and C from self-consistent density 
  X Energy LDA        :        -32.364614054 Ha           -880.685957228 eV
  C Energy LDA        :         -2.636324366 Ha            -71.738035992 eV
  ------------------------------------ 
  End decomposition of the XC Energy 
  ------------------------------------ 
  Performing Hirshfeld analysis of fragment charges and moments.
  ----------------------------------------------------------------------
  | Atom     1: O
  |   Hirshfeld charge        :     -0.35830259
  |   Free atom volume        :     23.95238533
  |   Hirshfeld volume        :     24.13080288
  |   Hirshfeld dipole vector :      0.04551766       0.05704665      -0.01656633
  |   Hirshfeld dipole moment :      0.07483730
  |   Hirshfeld second moments:     -0.00177176      -0.03630483       0.02958819
  |                                 -0.03630483      -0.04053860      -0.02832184
  |                                  0.02958819      -0.02832184      -0.09921709
  ----------------------------------------------------------------------
  | Atom     2: H
  |   Hirshfeld charge        :      0.11779560
  |   Free atom volume        :     10.44207651
  |   Hirshfeld volume        :      7.41739015
  |   Hirshfeld dipole vector :     -0.05664423       0.09710072      -0.04246488
  |   Hirshfeld dipole moment :      0.12016815
  |   Hirshfeld second moments:      0.10668505       0.00141707       0.00714619
  |                                  0.00141707       0.07887998      -0.00291727
  |                                  0.00714619      -0.00291727       0.07386301
  ----------------------------------------------------------------------
  | Atom     3: H
  |   Hirshfeld charge        :      0.05868918
  |   Free atom volume        :     10.44207651
  |   Hirshfeld volume        :      8.55700106
  |   Hirshfeld dipole vector :      0.04562907       0.00739528       0.00651245
  |   Hirshfeld dipole moment :      0.04668098
  |   Hirshfeld second moments:      0.01805423      -0.03050951       0.00539352
  |                                 -0.03050951       0.07536386      -0.00570737
  |                                  0.00539352      -0.00570737       0.05717090
  ----------------------------------------------------------------------
  | Atom     4: O
  |   Hirshfeld charge        :     -0.21088492
  |   Free atom volume        :     23.95238533
  |   Hirshfeld volume        :     20.96217913
  |   Hirshfeld dipole vector :     -0.01749334      -0.02412271       0.02975193
  |   Hirshfeld dipole moment :      0.04210819
  |   Hirshfeld second moments:      0.06783578      -0.02507946       0.00823822
  |                                 -0.02507946       0.06310793       0.02936714
  |                                  0.00823822       0.02936714       0.02804969
  ----------------------------------------------------------------------
  | Atom     5: H
  |   Hirshfeld charge        :      0.10937113
  |   Free atom volume        :     10.44207651
  |   Hirshfeld volume        :      7.37160245
  |   Hirshfeld dipole vector :      0.01296911       0.02339521       0.04537745
  |   Hirshfeld dipole moment :      0.05267491
  |   Hirshfeld second moments:      0.10952712       0.00054143       0.00801414
  |                                  0.00054143       0.07316158      -0.02634073
  |                                  0.00801414      -0.02634073       0.06285623
  ----------------------------------------------------------------------
  | Atom     6: H
  |   Hirshfeld charge        :      0.16112039
  |   Free atom volume        :     10.44207651
  |   Hirshfeld volume        :      5.95928319
  |   Hirshfeld dipole vector :      0.09159139      -0.07648081       0.01261686
  |   Hirshfeld dipole moment :      0.11998951
  |   Hirshfeld second moments:      0.12180133       0.00247445       0.00100532
  |                                  0.00247445       0.12414818       0.01347563
  |                                  0.00100532       0.01347563       0.12421657
  ----------------------------------------------------------------------
  | Atom     7: O
  |   Hirshfeld charge        :     -0.22328081
  |   Free atom volume        :     23.95238533
  |   Hirshfeld volume        :     20.15377788
  |   Hirshfeld dipole vector :      0.00970819      -0.01736191       0.02555634
  |   Hirshfeld dipole moment :      0.03238536
  |   Hirshfeld second moments:      0.08847278       0.04148529      -0.01879868
  |                                  0.04148529       0.05596655       0.01064327
  |                                 -0.01879868       0.01064327       0.06730511
  ----------------------------------------------------------------------
  | Atom     8: H
  |   Hirshfeld charge        :      0.17203334
  |   Free atom volume        :     10.44207651
  |   Hirshfeld volume        :      5.57702073
  |   Hirshfeld dipole vector :      0.09939472       0.06504772       0.03421033
  |   Hirshfeld dipole moment :      0.12361579
  |   Hirshfeld second moments:      0.13082810       0.00730587      -0.01272815
  |                                  0.00730587       0.12709145      -0.00203159
  |                                 -0.01272815      -0.00203159       0.13846421
  ----------------------------------------------------------------------
  | Atom     9: H
  |   Hirshfeld charge        :      0.16929675
  |   Free atom volume        :     10.44207651
  |   Hirshfeld volume        :      6.27964028
  |   Hirshfeld dipole vector :     -0.06485628      -0.04347473       0.08201425
  |   Hirshfeld dipole moment :      0.11323748
  |   Hirshfeld second moments:      0.11318603       0.01041651       0.01061968
  |                                  0.01041651       0.12062642       0.00285056
  |                                  0.01061968       0.00285056       0.12303989
  ----------------------------------------------------------------------
  | Atom    10: O
  |   Hirshfeld charge        :     -0.28858375
  |   Free atom volume        :     23.95238533
  |   Hirshfeld volume        :     21.81583208
  |   Hirshfeld dipole vector :     -0.00448480       0.05308654      -0.01017802
  |   Hirshfeld dipole moment :      0.05423916
  |   Hirshfeld second moments:      0.00474135      -0.01735407      -0.06142126
  |                                 -0.01735407       0.00790154       0.00445339
  |                                 -0.06142126       0.00445339       0.03967584
  ----------------------------------------------------------------------
  | Atom    11: H
  |   Hirshfeld charge        :      0.14328406
  |   Free atom volume        :     10.44207651
  |   Hirshfeld volume        :      6.17627253
  |   Hirshfeld dipole vector :     -0.06454771       0.08674164       0.06606558
  |   Hirshfeld dipole moment :      0.12670903
  |   Hirshfeld second moments:      0.11056274       0.00246055      -0.01708023
  |                                  0.00246055       0.11236852      -0.00847205
  |                                 -0.01708023      -0.00847205       0.12407255
  ----------------------------------------------------------------------
  | Atom    12: H
  |   Hirshfeld charge        :      0.14943139
  |   Free atom volume        :     10.44207651
  |   Hirshfeld volume        :      6.46399143
  |   Hirshfeld dipole vector :      0.05186588       0.05365215      -0.09298725
  |   Hirshfeld dipole moment :      0.11922773
  |   Hirshfeld second moments:      0.09850101      -0.01082001      -0.00635288
  |                                 -0.01082001       0.11906615       0.00754322
  |                                 -0.00635288       0.00754322       0.11384662
  ----------------------------------------------------------------------


------------------------------------------------------------------------------
  Final output of selected total energy values:

  The following output summarizes some interesting total energy values
  at the end of a run (AFTER all relaxation, molecular dynamics, etc.).

  | Total energy of the DFT / Hartree-Fock s.c.f. calculation      :          -8332.191531514 eV
  | Final zero-broadening corrected energy (caution - metals only) :          -8332.191531514 eV
  | For reference only, the value of 1 Hartree used in FHI-aims is :             27.211384500 eV

  Before relying on these values, please be sure to understand exactly which
  total energy value is referred to by a given number. Different objects may
  all carry the same name 'total energy'. Definitions:

  Total energy of the DFT / Hartree-Fock s.c.f. calculation:
  | Note that this energy does not include ANY quantities calculated after the
  | s.c.f. cycle, in particular not ANY RPA, MP2, etc. many-body perturbation terms.

  Final zero-broadening corrected energy:
  | For metallic systems only, a broadening of the occupation numbers at the Fermi
  | level can be extrapolated back to zero broadening by an electron-gas inspired
  | formula. For all systems that are not real metals, this value can be
  | meaningless and should be avoided.

------------------------------------------------------------------------------

------------------------------------------------------------
          Leaving FHI-aims.
          Date     :  20150727, Time     :  123651.725

          Computational steps:
          | Number of self-consistency cycles          :           15

          Detailed time accounting                     :  max(cpu_time)    wall_clock(cpu1)
          | Total time                                 :       20.620 s          20.663 s
          | Preparation time                           :        0.171 s           0.459 s
          | Grid partitioning                          :        0.134 s           0.134 s
          | Preloading free-atom quantities on grid    :        0.014 s           0.013 s
          | Free-atom superposition energy             :        0.045 s           0.046 s
          | Total time for integrations                :        8.411 s           8.413 s
          | Total time for solution of K.-S. equations :        0.575 s           0.577 s
          | Total time for density & force components  :        6.724 s           6.725 s
          | Total time for mixing                      :        0.149 s           0.146 s
          | Total time for Hartree multipole update    :        0.062 s           0.063 s
          | Total time for Hartree multipole sum       :        3.807 s           3.806 s
          | Total time for total energy evaluation     :        0.002 s           0.002 s
          | Total time for scaled ZORA corrections     :        0.000 s           0.000 s
          | Total time for TS (2009) vdW correction    :        0.034 s           0.035 s

          Have a nice day.
------------------------------------------------------------
