  MPI-parallelism will be employed.
------------------------------------------------------------
          Invoking FHI-aims ...
          Version 081213
          Compiled on 2013/08/29 at 17:41:06 on host generoso.

          When using FHI-aims, please cite the following reference:

          Volker Blum, Ralf Gehrke, Felix Hanke, Paula Havu,
          Ville Havu, Xinguo Ren, Karsten Reuter, and Matthias Scheffler,
          'Ab Initio Molecular Simulations with Numeric Atom-Centered Orbitals: FHI-aims',
          Computer Physics Communications 180, 2175-2196 (2009)

          For any questions about FHI-aims, please visit the aimsclub website
          with its forums and wiki. Contributions to both the forums and the
          wiki are warmly encouraged - they are for you, and everyone is welcome there.

------------------------------------------------------------

  Date     :  20150727, Time     :  114411.103
  Time zero on CPU 1             :   0.499920000000000E-01  s.
  Internal wall clock time zero  :           207229451.103  s.

  Using        8 parallel tasks.
  Task        0 on host gen60 reporting.
  Task        1 on host gen60 reporting.
  Task        2 on host gen60 reporting.
  Task        3 on host gen60 reporting.
  Task        4 on host gen60 reporting.
  Task        5 on host gen60 reporting.
  Task        6 on host gen60 reporting.
  Task        7 on host gen60 reporting.

  Performing system and environment tests:
  | Environment variable OMP_NUM_THREADS correctly set to 1.
  | Checking for scalapack...
  | No scalapack compiled in.

  Obtaining array dimensions for all initial allocations:
  
  -----------------------------------------------------------------------
  Parsing control.in (first pass over file, find array dimensions only).
  The contents of control.in will be repeated verbatim below
  unless switched off by setting 'verbatim_writeout .false.' .
  in the first line of control.in .
  -----------------------------------------------------------------------
  
  #########################################################################################
  #
  #  Volker Blum, FHI 2008 : Test run input file control.in
  #
  #########################################################################################
  #
  #  Physical model
  #
    xc                 rpbe
    spin               none
    relativistic       atomic_zora scalar
    charge             0.
   vdw_correction_hirshfeld
  #
  #  SCF convergence
  #
    occupation_type    gaussian 0.01
    mixer              pulay
      n_max_pulay        10
      charge_mix_param   0.1
    sc_accuracy_rho    5E-5
    sc_accuracy_eev    5E-3
    sc_accuracy_etot   5E-6
    sc_iter_limit      3000
  #
  #  Eigenvalue solver
  #
    KS_method          lapack
      empty_states       8
      basis_threshold    0.e-5
  #
  #  Efficiency
  #
  #   all previous settings are now default, except stratmann still
  #   undecided. Continue to handle stratmann with care, if at all.
  #
  #  partition_type stratmann
    partition_type rho_r2
  #  hartree_partition_type stratmann
  #
  #  Oprions for large clusters (100's of atoms: memory saving / better scaling)
  #
  # for periodic systems:
  #
    density_update_method orbital
    packed_matrix_format none
  #  k_grid 6 6 6
  #  output k_eigenvalue 1
  #  distributed_spline_storage .true.
  #
  #  Relaxation
  #
  #  relax_geometry   bfgs 5.e-3
    sc_accuracy_forces 5.E-4
    final_forces_cleaned .true.
  #
  #  Output options
  #
  #  output mulliken
    output Hirshfeld
  #  output dipole
  
  #harmonic_length_scale 0.001
  
  ################################################################################
  #
  #  FHI-aims code project
  #  VB, Fritz-Haber Institut, 2007
  #
  #  Suggested "safe" defaults for H atom (to be pasted into control.in file)
  #  Basis constructed for a non-relativistic H2 molecule using the
  #  PW-LDA functional.
  #
  ################################################################################
    species        H
  #     global species definitions
      nucleus             1
      cut_pot             4.0  2.0  1.0
      cut_free_atom       finite 8.0
      logarithmic         0.00010000 100.00  1.0123
      basis_dep_cutoff    1d-4  # 1d-4 is safe default - please check 5d-4 if you wish!
      radial_base         24 7.0
      radial_multiplier   2
      angular_grids       specified
        division   0.2783  110
        division   0.3822  194
        division   0.5626  302
  #      division   0.5922  434
  #      division   0.6227  590
  #      division   0.7206  770
        outer_grid  302
      l_hartree           4
  ################################################################################
  #
  #  Definition of "minimal" basis
  #
  ################################################################################
  #     valence basis states
      valence      1  s   1.
  #     ion occupancy
      ion_occ      1  s   0.5
  ################################################################################
  #
  #  Suggested additional basis functions. For production calculations,
  #  uncomment them one after another (the most important basis functions are
  #  listed first).
  #
  ################################################################################
  #  "First tier" - improvements: -1014.90 meV to -62.69 meV
       hydro 2 s 2.1
       hydro 2 p 3.5
  #  "Second tier" - improvements: -12.89 meV to -1.83 meV
       hydro 1 s 0.85
       hydro 2 p 3.7
       hydro 2 s 1.2
       hydro 3 d 7
  #  "Third tier" - improvements: -0.25 meV to -0.12 meV
  #     hydro 4 f 11.2
  #     hydro 3 p 4.8
  #     hydro 4 d 9
  #     hydro 3 s 3.2
  
  ################################################################################
  #
  #  FHI-aims code project
  #  VB, Fritz-Haber Institut, 2007
  #
  #  Suggested "safe" defaults for O atom (to be pasted into control.in file)
  #  All values have been tested for a non-relativistic, non-spinpolarized O2
  #  molecule using the PW-LDA functional. Validity for PBE is expected.
  #
  #  Constructed for dimers: 1.0 A, 1.208 A, 1.5 A, 2.0 A, 3.0 A
  #
  ################################################################################
    species        O
  #     global species definitions
      nucleus             8
      mass                15.9994
      l_hartree           4
      cut_pot             4.0  2.0  1.0
      cut_free_atom       finite 8.0
      basis_dep_cutoff    1d-4  # 1d-4 is safe default - please check 5d-4 if you wish!
      logarithmic         0.00010000 100.00  1.0123
      radial_base         36 7.0
      radial_multiplier   2
       angular_grids specified
        division   0.4087  110
        division   0.5181  194
        division   0.6184  302
  #      division   0.7315  434
  #      division   0.7934  590
  #      division   0.9656  770
  #      division   1.4041  974
  #      outer_grid 974
        outer_grid 302
  ################################################################################
  #
  #  Definition of "minimal" basis
  #
  ################################################################################
  #     valence basis states
      valence      2  s   2.
      valence      2  p   4.
  #     ion occupancy
      ion_occ      2  s   1.
      ion_occ      2  p   3.
  ################################################################################
  #
  #  Suggested additional basis functions. For production calculations,
  #  uncomment them one after another (the most important basis functions are
  #  listed first).
  #
  ################################################################################
  #  "First tier" - improvements: -699.05 meV to -159.38 meV
       hydro 2 p 1.8
       hydro 3 d 7.6
       hydro 3 s 6.4
  #  "Second tier" - improvements: -49.91 meV to -5.39 meV
       hydro 4 f 11.6
       hydro 3 p 6.2
       hydro 3 d 5.6
       hydro 5 g 17.6
       hydro 1 s 0.75
  #  "Third tier" - improvements: -2.83 meV to -0.50 meV
  #     ionic 2 p auto
  #     hydro 4 f 10.8
  #     hydro 4 d 4.7
  #     hydro 2 s 6.8
  #  "Fourth tier" - improvements: -0.40 meV to -0.12 meV
  #     hydro 3 p 5
  #     hydro 3 s 3.3
  #     hydro 5 g 15.6
  #     hydro 4 f 17.6
  #     hydro 4 d 14
  # Further basis functions - -0.08 meV and below
  #     hydro 3 s 2.1
  #     hydro 4 d 11.6
  #     hydro 3 p 16
  #     hydro 2 s 17.2
  
  
  -----------------------------------------------------------------------
  Completed first pass over input file control.in .
  -----------------------------------------------------------------------
  
  
  -----------------------------------------------------------------------
  Parsing geometry.in (first pass over file, find array dimensions only).
  The contents of geometry.in will be repeated verbatim below
  unless switched off by setting 'verbatim_writeout .false.' .
  in the first line of geometry.in .
  -----------------------------------------------------------------------
  
  atom      -4.053030000      0.065001000     -1.525160000  O
  atom      -4.566710000      0.974813000     -1.912820000  H
  atom      -3.067820000      0.330172000     -1.477310000  H
  atom      -4.581760000     -0.256435000      0.939478000  O
  atom      -4.349860000      0.471090000      1.504340000  H
  atom      -5.393870000     -0.726611000      1.228070000  H
  atom      -5.293160000      2.192130000     -2.328800000  O
  atom      -4.829300000      2.988660000     -1.973850000  H
  atom      -5.428570000      2.328640000     -3.235170000  H
  atom      -1.645860000      0.870179000     -1.502250000  O
  atom      -1.568890000      1.501730000     -0.721051000  H
  atom      -0.824432000      0.282220000     -1.377720000  H
  atom      -4.066610000      4.258280000     -0.900064000  O
  atom      -3.224110000      3.876870000     -0.569443000  H
  atom      -3.737450000      5.116530000     -1.322720000  H
  
  -----------------------------------------------------------------------
  Completed first pass over input file geometry.in .
  -----------------------------------------------------------------------
  
 
  Basic array size parameters: 
  | Number of species                 :        2
  | Number of atoms                   :       15
  | Max. basis fn. angular momentum   :        4
  | Max. atomic/ionic basis occupied n:        2
  | Max. number of basis fn. types    :        2
  | Max. radial fns per species/type  :        8
  | Max. logarithmic grid size        :     1301
  | Max. radial integration grid size :       73
  | Max. angular integration grid size:      302
  | Max. angular grid division number :        8
  | Radial grid for Hartree potential :     1301
  | Number of spin channels           :        1

------------------------------------------------------------
          Reading file control.in.
------------------------------------------------------------
  XC: Using RPBE gradient-corrected functionals.
  Spin treatment: No spin polarisation.
  Scalar relativistic treatment of kinetic energy: on-site free-atom approximation to ZORA.
  Charge =   0.000000E+00: Neutral system requested explicitly.
  Using non-empirical van der Waals correction (Hirshfeld partitioning):
  Occupation type: Gaussian broadening, width =   0.100000E-01 eV.
  Using pulay charge density mixing.
  Pulay mixing - number of memorized iterations:   10
  Charge density mixing - mixing parameter:     0.1000
  Convergence accuracy of self-consistent charge density: 0.5000E-04
  Convergence accuracy of sum of eigenvalues: 0.5000E-02
  Convergence accuracy of total energy: 0.5000E-05
  Maximum number of s.-c. iterations  :  3000
  Kohn-Sham eigenvalues and eigenfunctions calculated by lapack diagonalisation (D&C).
  Number of empty states per atom:        8
  Threshold for basis singularities: 0.0000E+00
  Partition function in integrals calculations: rho / r^2
 Using packed matrix format           0
  Convergence accuracy of forces: 0.5000E-03
  Cleaning forces before final output.
  Hirshfeld charge analysis will be performed.
 
  Reading configuration options for species H                   .
  | Found nuclear charge :   1.0000
  | Found cutoff potl. onset [A], width [A], scale factor :    4.00000    2.00000    1.00000
  | Found cutoff specification for free atom: Cutoff potential begins at    8.00000 A.
  | Found logarithmic grid data [bohr] : 0.1000E-03 0.1000E+03 0.1012E+01
  | Threshold for basis-dependent cutoff potential is   0.100000E-03
  | Found data for basic radial integration grid :    24 points, outermost radius =    7.000 A
  | Found multiplier for basic radial grid :   2
  | Found angular grid specification: user-specified.
  | Specified grid contains     4 separate shells.
  | Check grid settings after all constraints further below.
  | Found l_max for Hartree potential  :   4
  | Found free-atom valence shell :  1 s   1.000
  | No ionic wave fns used. Skipping ion_occ.
  | Found hydrogenic basis function :  2 s   2.100
  | Found hydrogenic basis function :  2 p   3.500
  | Found hydrogenic basis function :  1 s   0.850
  | Found hydrogenic basis function :  2 p   3.700
  | Found hydrogenic basis function :  2 s   1.200
  | Found hydrogenic basis function :  3 d   7.000
  Species H                   : Missing cutoff potential type.
  Defaulting to exp(1/x)/(1-x)^2 type cutoff potential.
  Species H : On-site basis accuracy parameter (for Gram-Schmidt orthonormalisation) not specified.
  Using default value basis_acc =  0.1000000E-03.
  Species H                   : Using default innermost maximum threshold i_radial=  2 for radial functions.
  Species H                   : Basic radial grid will be enhanced according to radial_multiplier =   2, to contain    49 grid points.
 
  Reading configuration options for species O                   .
  | Found nuclear charge :   8.0000
  | Found atomic mass :    15.9994000000000      amu
  | Found l_max for Hartree potential  :   4
  | Found cutoff potl. onset [A], width [A], scale factor :    4.00000    2.00000    1.00000
  | Found cutoff specification for free atom: Cutoff potential begins at    8.00000 A.
  | Threshold for basis-dependent cutoff potential is   0.100000E-03
  | Found logarithmic grid data [bohr] : 0.1000E-03 0.1000E+03 0.1012E+01
  | Found data for basic radial integration grid :    36 points, outermost radius =    7.000 A
  | Found multiplier for basic radial grid :   2
  | Found angular grid specification: user-specified.
  | Specified grid contains     4 separate shells.
  | Check grid settings after all constraints further below.
  | Found free-atom valence shell :  2 s   2.000
  | Found free-atom valence shell :  2 p   4.000
  | No ionic wave fns used. Skipping ion_occ.
  | No ionic wave fns used. Skipping ion_occ.
  | Found hydrogenic basis function :  2 p   1.800
  | Found hydrogenic basis function :  3 d   7.600
  | Found hydrogenic basis function :  3 s   6.400
  | Found hydrogenic basis function :  4 f  11.600
  | Found hydrogenic basis function :  3 p   6.200
  | Found hydrogenic basis function :  3 d   5.600
  | Found hydrogenic basis function :  5 g  17.600
  | Found hydrogenic basis function :  1 s   0.750
  Species O                   : Missing cutoff potential type.
  Defaulting to exp(1/x)/(1-x)^2 type cutoff potential.
  Species O : On-site basis accuracy parameter (for Gram-Schmidt orthonormalisation) not specified.
  Using default value basis_acc =  0.1000000E-03.
  Species O                   : Using default innermost maximum threshold i_radial=  2 for radial functions.
  Species O                   : Basic radial grid will be enhanced according to radial_multiplier =   2, to contain    73 grid points.
 
  Finished reading input file 'control.in'. Consistency checks are next.
 
  Target number of points in a grid batch is not set. Defaulting to  100
  Method for grid partitioning is not set. Defaulting to parallel hash+maxmin partitioning.
  Batch size limit is not set. Defaulting to    200
  By default, will store active basis functions for each batch.
  If in need of memory, prune_basis_once .false. can be used to disable this option.
  communication_type for Hartree potential was not specified.
  Defaulting to calc_hartree .
  Pulay mixer: Number of initial linear mixing iterations not set.
  Defaulting to    0 iterations.
  Work space size for distributed Hartree potential not set.
  Defaulting to   0.200000E+03 MB.
  Algorithm-dependent basis array size parameters:
  | n_max_pulay                         :       10
  Geometry relaxation not requested: no relaxation will be performed.
  Handling of forces: Unphysical translation and rotation will be removed from forces.
  No accuracy limit for integral partition fn. given. Defaulting to 0.1000E-14.
  No threshold value for u(r) in integrations given. Defaulting to 0.1000E-05.
  No accuracy for occupation numbers given. Defaulting to 0.1000E-07.
  No threshold value for occupation numbers given. Defaulting to 0.0000E+00.
  No accuracy for fermi level given. Defaulting to 0.1000E-19.
  Maximum # of iterations to find E_F not set. Defaulting to  200.
  Will not use alltoall communication since running on < 1024 CPUs.
  Partitioning for Hartree potential was not defined. Using partition_type for integrals.
  | Reporting present value of keyword multip_moments_threshold  :       0.10000000E-09
  | This value may affect high angular momentum components of the Hartree potential in periodic systems.
  No q(lm)/r^(l+1) cutoff set for long-range Hartree potential.
  | Using default value of  0.100000E-09 .
  | Verify using the multipole_threshold keyword.
  Defaulting to new monopole extrapolation.
  Density update method: Loop over occupied states selected for charge density update.
------------------------------------------------------------


------------------------------------------------------------
          Reading geometry description geometry.in.
------------------------------------------------------------
  Input structure read successfully.
  The structure contains       15 atoms,  and a total of         50.000 electrons.

  Input geometry:
  | No unit cell requested.
  | Atomic structure:
  |       Atom                x [A]            y [A]            z [A]
  |    1: Species O             -4.053030         0.065001        -1.525160
  |    2: Species H             -4.566710         0.974813        -1.912820
  |    3: Species H             -3.067820         0.330172        -1.477310
  |    4: Species O             -4.581760        -0.256435         0.939478
  |    5: Species H             -4.349860         0.471090         1.504340
  |    6: Species H             -5.393870        -0.726611         1.228070
  |    7: Species O             -5.293160         2.192130        -2.328800
  |    8: Species H             -4.829300         2.988660        -1.973850
  |    9: Species H             -5.428570         2.328640        -3.235170
  |   10: Species O             -1.645860         0.870179        -1.502250
  |   11: Species H             -1.568890         1.501730        -0.721051
  |   12: Species H             -0.824432         0.282220        -1.377720
  |   13: Species O             -4.066610         4.258280        -0.900064
  |   14: Species H             -3.224110         3.876870        -0.569443
  |   15: Species H             -3.737450         5.116530        -1.322720
  |

  | The smallest distance between any two atoms is         0.92654057 AA.
  |
  | The first atom of this pair is atom number                      7 .
  | The second atom of this pair is atom number                     9 .

  Structure-dependent array size parameters: 
  | Maximum number of distinct radial functions  :       18
  | Maximum number of basis functions            :      345
  | Number of Kohn-Sham states (occupied + empty):       85
------------------------------------------------------------

------------------------------------------------------------
          Preparing all fixed parts of the calculation.
------------------------------------------------------------
  Determining machine precision:
    2.225073858507201E-308
  Setting up grids for atomic and cluster calculations.

  Creating wave function, potential, and density for free atoms.

  Species: H

  List of occupied orbitals and eigenvalues:
    n    l              occ      energy [Ha]    energy [eV]
    1    0           1.0000        -0.241408        -6.5691


  Species: O

  List of occupied orbitals and eigenvalues:
    n    l              occ      energy [Ha]    energy [eV]
    1    0           2.0000       -18.944147      -515.4965
    2    0           2.0000        -0.883529       -24.0421
    2    1           4.0000        -0.330176        -8.9845

  Creating fixed part of basis set: Ionic, confined, hydrogenic.
 
  H                    hydrogenic:
 
  List of hydrogenic basis orbitals: 
    n    l      effective z      eigenvalue [eV]  inner max. [A]     outer max. [A]     outer radius [A]   
    2    0         2.100000       -14.9965           0.193241           1.317192           5.372934
    2    1         3.500000       -41.6672           0.602363           0.602363           4.056010
    1    0         0.850000        -9.8292           0.624864           0.624864           5.372934
    2    1         3.700000       -46.5653           0.573616           0.573616           3.909951
    2    0         1.200000        -4.5995           0.334977           2.228160           5.505921
    3    2         7.000000       -74.0753           0.680692           0.680692           3.769152
 
 
  O                    hydrogenic:
 
  List of hydrogenic basis orbitals: 
    n    l      effective z      eigenvalue [eV]  inner max. [A]     outer max. [A]     outer radius [A]   
    2    1         1.800000       -11.0118           1.178546           1.178546           5.432516
    3    2         7.600000       -87.3182           0.624117           0.624117           3.541422
    3    0         6.400000       -61.9209           0.061166           1.081887           4.306510
    4    3        11.600000      -114.4238           0.731621           0.731621           3.584982
    3    1         6.200000       -58.1113           0.255677           1.030255           4.306510
    3    2         5.600000       -47.4081           0.847222           0.847222           4.413102
    5    4        17.600000      -168.5799           0.749730           0.749730           3.372413
    1    0         0.750000        -7.6499           0.705275           0.705275           5.366508
 

  Adding cutoff potential to free-atom effective potential.
  Creating atomic-like basis functions for current effective potential.

  Species H                   :

  List of atomic basis orbitals and eigenvalues:
    n    l      energy [Ha]    energy [eV]    outer radius [A]
    1    0        -0.241374        -6.5681       5.372934


  Species O                   :

  List of atomic basis orbitals and eigenvalues:
    n    l      energy [Ha]    energy [eV]    outer radius [A]
    1    0       -18.944147      -515.4965       1.415745
    2    0        -0.883529       -24.0421       5.048305
    2    1        -0.330173        -8.9845       5.301302

  Assembling full basis from fixed parts.
  | Species H :   atomic orbital   1 s accepted.
  | Species H :    hydro orbital   2 s accepted.
  | Species H :    hydro orbital   1 s accepted.
  | Species H :    hydro orbital   2 s accepted.
  | Species H :    hydro orbital   2 p accepted.
  | Species H :    hydro orbital   2 p accepted.
  | Species H :    hydro orbital   3 d accepted.
  | Species O :   atomic orbital   1 s accepted.
  | Species O :    hydro orbital   3 s accepted.
  | Species O :   atomic orbital   2 s accepted.
  | Species O :    hydro orbital   1 s accepted.
  | Species O :    hydro orbital   3 p accepted.
  | Species O :   atomic orbital   2 p accepted.
  | Species O :    hydro orbital   2 p accepted.
  | Species O :    hydro orbital   3 d accepted.
  | Species O :    hydro orbital   3 d accepted.
  | Species O :    hydro orbital   4 f accepted.
  | Species O :    hydro orbital   5 g accepted.
 
  Basis size parameters after reduction:
  | Total number of radial functions:       18
  | Total number of basis functions :      345
 
  Testing on-site integration grid accuracy.
  |  Species  Function  <phi|h_atom|phi> (log., in eV)  <phi|h_atom|phi> (rad., in eV)
           1        1                 -6.5683835025                 -6.5684759159
           1        2                 13.3711789951                 13.3708738703
           1        3                 23.6590910787                 23.6532055418
           1        4                 16.2963827186                 16.1870710655 ***
           1        5                 28.7627214838                 28.7627215090
           1        6                 59.5965249172                 59.5965950857
           1        7                 60.2220506392                 60.2220503827
           2        8               -515.4964576505               -515.4964530710
           2        9                 15.3030791347                 15.3030722972
           2       10                -21.7296094581                -21.7296135470
           2       11                 14.2969371730                 14.2969701621
           2       12                 21.0679693190                 21.0679697493
           2       13                 -2.3833606469                 -2.3833613176
           2       14                 13.7067136422                 13.7066766629
           2       15                 45.8013116808                 45.8013116965
           2       16                 52.2309815402                 52.2309831494
           2       17                 85.4120732416                 85.4120732763
           2       18                142.1019167745                142.1019167817
 * Note: Onsite integrals marked "***" above are less accurate than
 * onsite_accuracy_threshold =    0.03000 eV. Usually, this is harmless.
 * When in doubt, tighten the "radial" and/or "radial_multiplier" flags to check.

  Preparing densities etc. for the partition functions (integrals / Hartree potential).

  Preparations completed.
  max(cpu_time)          :      0.170 s.
  Wall clock time (cpu1) :      0.444 s.
------------------------------------------------------------

------------------------------------------------------------
          Begin self-consistency loop: Initialization.

          Date     :  20150727, Time     :  114411.583
------------------------------------------------------------

  Initializing index lists of integration centers etc. from given atomic structure:
  | Number of centers in hartree potential         :        15
  | Number of centers in hartree multipole         :        15
  | Number of centers in electron density summation:        15
  | Number of centers in basis integrals           :        15
  | Number of centers in integrals                 :        15
  Partitioning the integration grid into batches with parallel hashing+maxmin method.
  | Number of batches:     2063
  | Maximal batch size:     157
  | Minimal batch size:      57
  | Average batch size:      95.351
  | Standard deviation of batch sizes:      31.498

  Integration load balanced across     8 MPI tasks.
  Work distribution over tasks is as follows:
  Task     0 has      24571 integration points.
  Task     1 has      24545 integration points.
  Task     2 has      24559 integration points.
  Task     3 has      24571 integration points.
  Task     4 has      24557 integration points.
  Task     5 has      24637 integration points.
  Task     6 has      24606 integration points.
  Task     7 has      24664 integration points.
  Initializing partition tables, free-atom densities, potentials, etc. across the integration grid (initialize_grid_storage).
  | Net number of integration points:   196710
  | of which are non-zero points    :   196155
  Obtaining max. number of non-zero basis functions in each batch (get_n_compute_maxes).
  | Maximal number of non-zero basis functions:      342 in task     0
  | Maximal number of non-zero basis functions:      342 in task     1
  | Maximal number of non-zero basis functions:      342 in task     2
  | Maximal number of non-zero basis functions:      342 in task     3
  | Maximal number of non-zero basis functions:      342 in task     4
  | Maximal number of non-zero basis functions:      342 in task     5
  | Maximal number of non-zero basis functions:      342 in task     6
  | Maximal number of non-zero basis functions:      342 in task     7
  Integrating Hamiltonian matrix: batch-based integration.
  Time summed over all CPUs for integration: real work        7.288 s, elapsed        7.464 s
  Integrating overlap matrix.
  Time summed over all CPUs for integration: real work        3.961 s, elapsed        4.056 s

  Updating Kohn-Sham eigenvalues, eigenvectors, occupation numbers, and Fermi level.
  Solving generalized eigenproblem
  Updating Kohn-Sham eigenvalues and eigenfunctions.
  Transforming overlap matrix and checking for singularities.
  Overlap matrix is nonsingular:
  | Lowest eigenvalue:  0.227377E-03
  Solving real generalised eigenvalue problem by standard LAPACK (fast)
  Determining occupation numbers for Kohn-Sham eigenstates.
  | Chemical potential (Fermi level) in eV                 : -.33310790E+01
  | Error in electron count due to remaining E_F inaccuracy: 0.00000000E+00
  | Maximum occupation number of highest empty state:  0.00E+00

  Writing Kohn-Sham eigenvalues.

  State    Occupation    Eigenvalue [Ha]    Eigenvalue [eV]
      1       2.00000         -19.064899         -518.78229
      2       2.00000         -19.051941         -518.42968
      3       2.00000         -19.042848         -518.18226
      4       2.00000         -19.042433         -518.17098
      5       2.00000         -19.019931         -517.55865
      6       2.00000          -1.122156          -30.53541
      7       2.00000          -1.098557          -29.89326
      8       2.00000          -1.086827          -29.57407
      9       2.00000          -1.086526          -29.56589
     10       2.00000          -1.042354          -28.36390
     11       2.00000          -0.653312          -17.77752
     12       2.00000          -0.644519          -17.53826
     13       2.00000          -0.609355          -16.58138
     14       2.00000          -0.606037          -16.49111
     15       2.00000          -0.600800          -16.34860
     16       2.00000          -0.550485          -14.97946
     17       2.00000          -0.512830          -13.95483
     18       2.00000          -0.503263          -13.69448
     19       2.00000          -0.498158          -13.55556
     20       2.00000          -0.475516          -12.93945
     21       2.00000          -0.441224          -12.00632
     22       2.00000          -0.439598          -11.96207
     23       2.00000          -0.433496          -11.79603
     24       2.00000          -0.430347          -11.71035
     25       2.00000          -0.402841          -10.96186
     26       0.00000          -0.098096           -2.66933
     27       0.00000          -0.065854           -1.79197
     28       0.00000          -0.061052           -1.66132
     29       0.00000          -0.046197           -1.25710
     30       0.00000          -0.021151           -0.57555
     31       0.00000           0.000233            0.00635
     32       0.00000           0.019407            0.52810
     33       0.00000           0.025906            0.70495
     34       0.00000           0.042083            1.14515
     35       0.00000           0.057117            1.55425
     36       0.00000           0.072401            1.97013
     37       0.00000           0.080672            2.19520
     38       0.00000           0.089486            2.43504
     39       0.00000           0.097050            2.64087
     40       0.00000           0.098970            2.69312
     41       0.00000           0.109223            2.97212
     42       0.00000           0.115104            3.13215
     43       0.00000           0.119585            3.25408
     44       0.00000           0.127469            3.46861
     45       0.00000           0.138136            3.75886
     46       0.00000           0.146773            3.99390
     47       0.00000           0.152910            4.16089
     48       0.00000           0.163750            4.45586
     49       0.00000           0.180466            4.91074
     50       0.00000           0.183347            4.98911
     51       0.00000           0.201478            5.48250
     52       0.00000           0.227742            6.19717
     53       0.00000           0.245621            6.68368
     54       0.00000           0.250437            6.81474
     55       0.00000           0.257474            7.00622
     56       0.00000           0.267365            7.27538
     57       0.00000           0.271041            7.37540
     58       0.00000           0.305600            8.31579
     59       0.00000           0.313638            8.53452
     60       0.00000           0.323403            8.80025
     61       0.00000           0.339756            9.24522
     62       0.00000           0.357265            9.72169
     63       0.00000           0.367530           10.00101
     64       0.00000           0.384638           10.46654
     65       0.00000           0.397252           10.80977
     66       0.00000           0.409355           11.13912
     67       0.00000           0.409606           11.14594
     68       0.00000           0.417707           11.36638
     69       0.00000           0.437135           11.89504
     70       0.00000           0.442059           12.02903
     71       0.00000           0.451931           12.29766
     72       0.00000           0.467816           12.72992
     73       0.00000           0.475395           12.93616
     74       0.00000           0.509484           13.86376
     75       0.00000           0.524250           14.26558
     76       0.00000           0.528979           14.39426
     77       0.00000           0.546731           14.87731
     78       0.00000           0.560676           15.25678
     79       0.00000           0.591745           16.10221
     80       0.00000           0.639492           17.40146
     81       0.00000           0.646505           17.59231
     82       0.00000           0.674401           18.35138
     83       0.00000           0.702981           19.12910
     84       0.00000           0.720852           19.61538
     85       0.00000           0.755030           20.54541

  Highest occupied state (VBM) at    -10.96186364 eV
  | Occupation number:      2.00000000

  Lowest unoccupied state (CBM) at    -2.66932692 eV
  | Occupation number:      0.00000000

  Overall HOMO-LUMO gap:      8.29253672 eV.
  Calculating total energy contributions from superposition of free atom densities.

  Total energy components:
  | Sum of eigenvalues            :        -216.92050783 Ha       -5902.70734451 eV
  | XC energy correction          :         -45.57853001 Ha       -1240.25490506 eV
  | XC potential correction       :          58.24247878 Ha        1584.85848427 eV
  | Free-atom electrostatic energy:        -178.82514958 Ha       -4866.07990348 eV
  | Hartree energy correction     :           0.00000000 Ha           0.00000000 eV
  | van der Waals energy corr.    :           0.00000000 Ha           0.00000000 eV
  | Entropy correction            :           0.00000000 Ha           0.00000000 eV
  | ---------------------------
  | Total energy                  :        -383.08170864 Ha      -10424.18366878 eV
  | Total energy, T -> 0          :        -383.08170864 Ha      -10424.18366878 eV  <-- do not rely on this value for anything but (periodic) metals
  | Electronic free energy        :        -383.08170864 Ha      -10424.18366878 eV

  Derived energy quantities:
  | Kinetic energy                :         379.17777218 Ha       10317.95215258 eV
  | Electrostatic energy          :        -716.68095081 Ha      -19501.88091631 eV
  | Energy correction for multipole
  | error in Hartree potential    :           0.00000000 Ha           0.00000000 eV
  | Sum of eigenvalues per atom                           :        -393.51382297 eV
  | Total energy (T->0) per atom                          :        -694.94557792 eV  <-- do not rely on this value for anything but (periodic) metals
  | Electronic free energy per atom                       :        -694.94557792 eV
  Initialize hartree_potential_storage
  Max. number of atoms included in rho_multipole:           15

  End scf initialization - timings             :  max(cpu_time)    wall_clock(cpu1)
  | Time for scf. initialization               :        2.003 s           2.003 s
  | Boundary condition initialization          :        0.000 s           0.001 s
  | Integration                                :        1.445 s           1.444 s
  | Solution of K.-S. eqns.                    :        0.196 s           0.196 s
  | Grid partitioning                          :        0.146 s           0.145 s
  | Preloading free-atom quantities on grid    :        0.013 s           0.013 s
  | Free-atom superposition energy             :        0.067 s           0.067 s
  | Total energy evaluation                    :        0.000 s           0.000 s
------------------------------------------------------------

------------------------------------------------------------
          Begin self-consistency iteration #    1

  Date     :  20150727, Time     :  114413.586
------------------------------------------------------------
  Evaluating new KS density.
  Integration grid: deviation in total charge (<rho> - N_e) =   2.131628E-14
  Pulay mixing of updated and previous charge densities.

  Evaluating partitioned Hartree potential by multipole expansion.
  | Analytical far-field extrapolation by fixed multipoles:
  | Hartree multipole sum: apparent total charge =  -0.228610E-05
  Summing up the Hartree potential.
  Time summed over all CPUs for potential: real work        2.569 s, elapsed        2.577 s
  | RMS charge density error from multipole expansion :   0.163057E-02

  Integrating Hamiltonian matrix: batch-based integration.
  Time summed over all CPUs for integration: real work        7.284 s, elapsed        7.466 s

  Updating Kohn-Sham eigenvalues, eigenvectors, occupation numbers, and Fermi level.
  Solving generalized eigenproblem
  Updating Kohn-Sham eigenvalues and eigenfunctions.
  Solving real generalised eigenvalue problem by standard LAPACK (fast)
  Determining occupation numbers for Kohn-Sham eigenstates.
  | Chemical potential (Fermi level) in eV                 : -.29167663E+01
  | Error in electron count due to remaining E_F inaccuracy: 0.00000000E+00
  | Maximum occupation number of highest empty state:  0.00E+00

  Writing Kohn-Sham eigenvalues.

  State    Occupation    Eigenvalue [Ha]    Eigenvalue [eV]
      1       2.00000         -18.990783         -516.76551
      2       2.00000         -18.976730         -516.38310
      3       2.00000         -18.976472         -516.37607
      4       2.00000         -18.963987         -516.03634
      5       2.00000         -18.918269         -514.79228
      6       2.00000          -1.084897          -29.52155
      7       2.00000          -1.056145          -28.73916
      8       2.00000          -1.054345          -28.69019
      9       2.00000          -1.052162          -28.63080
     10       2.00000          -0.984877          -26.79987
     11       2.00000          -0.620655          -16.88888
     12       2.00000          -0.604422          -16.44715
     13       2.00000          -0.580934          -15.80801
     14       2.00000          -0.577761          -15.72167
     15       2.00000          -0.562908          -15.31751
     16       2.00000          -0.512390          -13.94283
     17       2.00000          -0.480384          -13.07191
     18       2.00000          -0.460195          -12.52256
     19       2.00000          -0.453501          -12.34038
     20       2.00000          -0.432022          -11.75591
     21       2.00000          -0.400716          -10.90402
     22       2.00000          -0.397768          -10.82382
     23       2.00000          -0.391395          -10.65040
     24       2.00000          -0.384431          -10.46091
     25       2.00000          -0.343443           -9.34555
     26       0.00000          -0.091670           -2.49448
     27       0.00000          -0.059635           -1.62276
     28       0.00000          -0.050999           -1.38775
     29       0.00000          -0.037639           -1.02421
     30       0.00000          -0.015560           -0.42340
     31       0.00000           0.008851            0.24085
     32       0.00000           0.029435            0.80097
     33       0.00000           0.037280            1.01443
     34       0.00000           0.050630            1.37771
     35       0.00000           0.066877            1.81982
     36       0.00000           0.082029            2.23214
     37       0.00000           0.089053            2.42327
     38       0.00000           0.100924            2.74628
     39       0.00000           0.105082            2.85942
     40       0.00000           0.111208            3.02613
     41       0.00000           0.122719            3.33934
     42       0.00000           0.124191            3.37941
     43       0.00000           0.131890            3.58890
     44       0.00000           0.137656            3.74580
     45       0.00000           0.151809            4.13092
     46       0.00000           0.156965            4.27123
     47       0.00000           0.173836            4.73032
     48       0.00000           0.179462            4.88341
     49       0.00000           0.191911            5.22216
     50       0.00000           0.195499            5.31980
     51       0.00000           0.213969            5.82238
     52       0.00000           0.240037            6.53175
     53       0.00000           0.257946            7.01906
     54       0.00000           0.260020            7.07551
     55       0.00000           0.266592            7.25433
     56       0.00000           0.276536            7.52493
     57       0.00000           0.281588            7.66241
     58       0.00000           0.315829            8.59415
     59       0.00000           0.323969            8.81563
     60       0.00000           0.338642            9.21492
     61       0.00000           0.346898            9.43957
     62       0.00000           0.370110           10.07120
     63       0.00000           0.377527           10.27303
     64       0.00000           0.393000           10.69407
     65       0.00000           0.410260           11.16374
     66       0.00000           0.418479           11.38739
     67       0.00000           0.422639           11.50059
     68       0.00000           0.426721           11.61168
     69       0.00000           0.449656           12.23576
     70       0.00000           0.450257           12.25211
     71       0.00000           0.459874           12.51380
     72       0.00000           0.477101           12.98258
     73       0.00000           0.488297           13.28724
     74       0.00000           0.520849           14.17302
     75       0.00000           0.536552           14.60031
     76       0.00000           0.544430           14.81468
     77       0.00000           0.560275           15.24585
     78       0.00000           0.576991           15.70072
     79       0.00000           0.605401           16.47379
     80       0.00000           0.653144           17.77294
     81       0.00000           0.662280           18.02155
     82       0.00000           0.690915           18.80076
     83       0.00000           0.718824           19.56019
     84       0.00000           0.735981           20.02707
     85       0.00000           0.767528           20.88549

  Highest occupied state (VBM) at     -9.34554919 eV
  | Occupation number:      2.00000000

  Lowest unoccupied state (CBM) at    -2.49448033 eV
  | Occupation number:      0.00000000

  Overall HOMO-LUMO gap:      6.85106886 eV.

  Total energy components:
  | Sum of eigenvalues            :        -214.52318003 Ha       -5837.47273602 eV
  | XC energy correction          :         -45.82125637 Ha       -1246.85982540 eV
  | XC potential correction       :          58.56005121 Ha        1593.50006994 eV
  | Free-atom electrostatic energy:        -178.82514958 Ha       -4866.07990348 eV
  | Hartree energy correction     :          -2.31805643 Ha         -63.07752480 eV
  | van der Waals energy corr.    :           0.00000000 Ha           0.00000000 eV
  | Entropy correction            :           0.00000000 Ha           0.00000000 eV
  | ---------------------------
  | Total energy                  :        -382.92759120 Ha      -10419.98991976 eV
  | Total energy, T -> 0          :        -382.92759120 Ha      -10419.98991976 eV  <-- do not rely on this value for anything but (periodic) metals
  | Electronic free energy        :        -382.92759120 Ha      -10419.98991976 eV

  Derived energy quantities:
  | Kinetic energy                :         380.62938359 Ha       10357.45250880 eV
  | Electrostatic energy          :        -717.73571841 Ha      -19530.58260315 eV
  | Energy correction for multipole
  | error in Hartree potential    :          -0.00012981 Ha          -0.00353244 eV
  | Sum of eigenvalues per atom                           :        -389.16484907 eV
  | Total energy (T->0) per atom                          :        -694.66599465 eV  <-- do not rely on this value for anything but (periodic) metals
  | Electronic free energy per atom                       :        -694.66599465 eV

  Self-consistency convergence accuracy:
  | Change of charge density      : 0.6655E+00
  | Change of sum of eigenvalues  : 0.6523E+02 eV
  | Change of total energy        : 0.4194E+01 eV

  End self-consistency iteration #     1       :  max(cpu_time)    wall_clock(cpu1)
  | Time for this iteration                    :        1.960 s           1.959 s
  | Charge density update                      :        0.639 s           0.638 s
  | Density mixing                             :        0.003 s           0.004 s
  | Hartree multipole update                   :        0.005 s           0.005 s
  | Hartree multipole summation                :        0.323 s           0.323 s
  | Integration                                :        0.935 s           0.935 s
  | Solution of K.-S. eqns.                    :        0.054 s           0.054 s
  | Total energy evaluation                    :        0.000 s           0.000 s
------------------------------------------------------------

------------------------------------------------------------
          Begin self-consistency iteration #    2

  Date     :  20150727, Time     :  114415.546
------------------------------------------------------------
  Evaluating new KS density.
  Integration grid: deviation in total charge (<rho> - N_e) =   7.105427E-15
  Pulay mixing of updated and previous charge densities.

  Evaluating partitioned Hartree potential by multipole expansion.
  | Analytical far-field extrapolation by fixed multipoles:
  | Hartree multipole sum: apparent total charge =  -0.689474E-05
  Summing up the Hartree potential.
  Time summed over all CPUs for potential: real work        2.568 s, elapsed        2.576 s
  | RMS charge density error from multipole expansion :   0.654447E-02

  Integrating Hamiltonian matrix: batch-based integration.
  Time summed over all CPUs for integration: real work        7.275 s, elapsed        7.437 s

  Updating Kohn-Sham eigenvalues, eigenvectors, occupation numbers, and Fermi level.
  Solving generalized eigenproblem
  Updating Kohn-Sham eigenvalues and eigenfunctions.
  Solving real generalised eigenvalue problem by standard LAPACK (fast)
  Determining occupation numbers for Kohn-Sham eigenstates.
  | Chemical potential (Fermi level) in eV                 : -.32733097E+01
  | Error in electron count due to remaining E_F inaccuracy: 0.00000000E+00
  | Maximum occupation number of highest empty state:  0.00E+00

  Highest occupied state (VBM) at     -5.40993183 eV
  | Occupation number:      2.00000000

  Lowest unoccupied state (CBM) at    -2.14019321 eV
  | Occupation number:      0.00000000

  Overall HOMO-LUMO gap:      3.26973862 eV.

  Total energy components:
  | Sum of eigenvalues            :        -208.79396921 Ha       -5681.57297740 eV
  | XC energy correction          :         -46.42350131 Ha       -1263.24774398 eV
  | XC potential correction       :          59.34734416 Ha        1614.92340099 eV
  | Free-atom electrostatic energy:        -178.82514958 Ha       -4866.07990348 eV
  | Hartree energy correction     :          -8.04847979 Ha        -219.01027827 eV
  | van der Waals energy corr.    :           0.00000000 Ha           0.00000000 eV
  | Entropy correction            :           0.00000000 Ha           0.00000000 eV
  | ---------------------------
  | Total energy                  :        -382.74375573 Ha      -10414.98750214 eV
  | Total energy, T -> 0          :        -382.74375573 Ha      -10414.98750214 eV  <-- do not rely on this value for anything but (periodic) metals
  | Electronic free energy        :        -382.74375573 Ha      -10414.98750214 eV

  Derived energy quantities:
  | Kinetic energy                :         383.55950841 Ha       10437.18526191 eV
  | Electrostatic energy          :        -719.87976283 Ha      -19588.92502008 eV
  | Energy correction for multipole
  | error in Hartree potential    :          -0.00127468 Ha          -0.03468578 eV
  | Sum of eigenvalues per atom                           :        -378.77153183 eV
  | Total energy (T->0) per atom                          :        -694.33250014 eV  <-- do not rely on this value for anything but (periodic) metals
  | Electronic free energy per atom                       :        -694.33250014 eV

  Self-consistency convergence accuracy:
  | Change of charge density      : 0.5034E+00
  | Change of sum of eigenvalues  : 0.1559E+03 eV
  | Change of total energy        : 0.5002E+01 eV

  End self-consistency iteration #     2       :  max(cpu_time)    wall_clock(cpu1)
  | Time for this iteration                    :        1.955 s           1.955 s
  | Charge density update                      :        0.636 s           0.636 s
  | Density mixing                             :        0.006 s           0.005 s
  | Hartree multipole update                   :        0.005 s           0.005 s
  | Hartree multipole summation                :        0.323 s           0.323 s
  | Integration                                :        0.931 s           0.932 s
  | Solution of K.-S. eqns.                    :        0.054 s           0.053 s
  | Total energy evaluation                    :        0.000 s           0.000 s
------------------------------------------------------------

------------------------------------------------------------
          Begin self-consistency iteration #    3

  Date     :  20150727, Time     :  114417.501
------------------------------------------------------------
  Evaluating new KS density.
  Integration grid: deviation in total charge (<rho> - N_e) =   7.105427E-15
  Pulay mixing of updated and previous charge densities.

  Evaluating partitioned Hartree potential by multipole expansion.
  | Analytical far-field extrapolation by fixed multipoles:
  | Hartree multipole sum: apparent total charge =  -0.756687E-05
  Summing up the Hartree potential.
  Time summed over all CPUs for potential: real work        2.568 s, elapsed        2.576 s
  | RMS charge density error from multipole expansion :   0.128664E-01

  Integrating Hamiltonian matrix: batch-based integration.
  Time summed over all CPUs for integration: real work        7.261 s, elapsed        7.414 s

  Updating Kohn-Sham eigenvalues, eigenvectors, occupation numbers, and Fermi level.
  Solving generalized eigenproblem
  Updating Kohn-Sham eigenvalues and eigenfunctions.
  Solving real generalised eigenvalue problem by standard LAPACK (fast)
  Determining occupation numbers for Kohn-Sham eigenstates.
  | Chemical potential (Fermi level) in eV                 : -.30543140E+01
  | Error in electron count due to remaining E_F inaccuracy: 0.00000000E+00
  | Maximum occupation number of highest empty state:  0.00E+00

  Highest occupied state (VBM) at     -5.11946403 eV
  | Occupation number:      2.00000000

  Lowest unoccupied state (CBM) at    -2.15908765 eV
  | Occupation number:      0.00000000

  Overall HOMO-LUMO gap:      2.96037638 eV.

  Total energy components:
  | Sum of eigenvalues            :        -208.98877802 Ha       -5686.87399479 eV
  | XC energy correction          :         -46.38215308 Ha       -1262.12260145 eV
  | XC potential correction       :          59.28855893 Ha        1613.32377359 eV
  | Free-atom electrostatic energy:        -178.82514958 Ha       -4866.07990348 eV
  | Hartree energy correction     :          -7.82996934 Ha        -213.06430621 eV
  | van der Waals energy corr.    :           0.00000000 Ha           0.00000000 eV
  | Entropy correction            :           0.00000000 Ha           0.00000000 eV
  | ---------------------------
  | Total energy                  :        -382.73749108 Ha      -10414.81703235 eV
  | Total energy, T -> 0          :        -382.73749108 Ha      -10414.81703235 eV  <-- do not rely on this value for anything but (periodic) metals
  | Electronic free energy        :        -382.73749108 Ha      -10414.81703235 eV

  Derived energy quantities:
  | Kinetic energy                :         381.51360535 Ha       10381.51340710 eV
  | Electrostatic energy          :        -717.86894335 Ha      -19534.20783800 eV
  | Energy correction for multipole
  | error in Hartree potential    :          -0.00556136 Ha          -0.15133235 eV
  | Sum of eigenvalues per atom                           :        -379.12493299 eV
  | Total energy (T->0) per atom                          :        -694.32113549 eV  <-- do not rely on this value for anything but (periodic) metals
  | Electronic free energy per atom                       :        -694.32113549 eV

  Self-consistency convergence accuracy:
  | Change of charge density      : 0.2508E+00
  | Change of sum of eigenvalues  : -.5301E+01 eV
  | Change of total energy        : 0.1705E+00 eV

  End self-consistency iteration #     3       :  max(cpu_time)    wall_clock(cpu1)
  | Time for this iteration                    :        1.951 s           1.951 s
  | Charge density update                      :        0.633 s           0.633 s
  | Density mixing                             :        0.007 s           0.007 s
  | Hartree multipole update                   :        0.005 s           0.005 s
  | Hartree multipole summation                :        0.323 s           0.323 s
  | Integration                                :        0.928 s           0.928 s
  | Solution of K.-S. eqns.                    :        0.054 s           0.054 s
  | Total energy evaluation                    :        0.000 s           0.001 s
------------------------------------------------------------

------------------------------------------------------------
          Begin self-consistency iteration #    4

  Date     :  20150727, Time     :  114419.452
------------------------------------------------------------
  Evaluating new KS density.
  Integration grid: deviation in total charge (<rho> - N_e) =   0.000000E+00
  Pulay mixing of updated and previous charge densities.

  Evaluating partitioned Hartree potential by multipole expansion.
  | Analytical far-field extrapolation by fixed multipoles:
  | Hartree multipole sum: apparent total charge =  -0.941661E-05
  Summing up the Hartree potential.
  Time summed over all CPUs for potential: real work        2.567 s, elapsed        2.576 s
  | RMS charge density error from multipole expansion :   0.171975E-01

  Integrating Hamiltonian matrix: batch-based integration.
  Time summed over all CPUs for integration: real work        7.260 s, elapsed        7.415 s

  Updating Kohn-Sham eigenvalues, eigenvectors, occupation numbers, and Fermi level.
  Solving generalized eigenproblem
  Updating Kohn-Sham eigenvalues and eigenfunctions.
  Solving real generalised eigenvalue problem by standard LAPACK (fast)
  Determining occupation numbers for Kohn-Sham eigenstates.
  | Chemical potential (Fermi level) in eV                 : -.26487220E+01
  | Error in electron count due to remaining E_F inaccuracy: 0.00000000E+00
  | Maximum occupation number of highest empty state:  0.00E+00

  Highest occupied state (VBM) at     -3.61453944 eV
  | Occupation number:      2.00000000

  Lowest unoccupied state (CBM) at    -2.06805327 eV
  | Occupation number:      0.00000000

  Overall HOMO-LUMO gap:      1.54648617 eV.

  Total energy components:
  | Sum of eigenvalues            :        -207.04630331 Ha       -5634.01656871 eV
  | XC energy correction          :         -46.60094747 Ha       -1268.07629955 eV
  | XC potential correction       :          59.57357676 Ha        1621.07950322 eV
  | Free-atom electrostatic energy:        -178.82514958 Ha       -4866.07990348 eV
  | Hartree energy correction     :          -9.82492257 Ha        -267.34974581 eV
  | van der Waals energy corr.    :           0.00000000 Ha           0.00000000 eV
  | Entropy correction            :           0.00000000 Ha           0.00000000 eV
  | ---------------------------
  | Total energy                  :        -382.72374617 Ha      -10414.44301433 eV
  | Total energy, T -> 0          :        -382.72374617 Ha      -10414.44301433 eV  <-- do not rely on this value for anything but (periodic) metals
  | Electronic free energy        :        -382.72374617 Ha      -10414.44301433 eV

  Derived energy quantities:
  | Kinetic energy                :         381.68722012 Ha       10386.23770554 eV
  | Electrostatic energy          :        -717.81001883 Ha      -19532.60442032 eV
  | Energy correction for multipole
  | error in Hartree potential    :          -0.00778172 Ha          -0.21175146 eV
  | Sum of eigenvalues per atom                           :        -375.60110458 eV
  | Total energy (T->0) per atom                          :        -694.29620096 eV  <-- do not rely on this value for anything but (periodic) metals
  | Electronic free energy per atom                       :        -694.29620096 eV

  Self-consistency convergence accuracy:
  | Change of charge density      : 0.1460E+00
  | Change of sum of eigenvalues  : 0.5286E+02 eV
  | Change of total energy        : 0.3740E+00 eV

  End self-consistency iteration #     4       :  max(cpu_time)    wall_clock(cpu1)
  | Time for this iteration                    :        1.953 s           1.952 s
  | Charge density update                      :        0.634 s           0.634 s
  | Density mixing                             :        0.008 s           0.008 s
  | Hartree multipole update                   :        0.005 s           0.005 s
  | Hartree multipole summation                :        0.323 s           0.322 s
  | Integration                                :        0.928 s           0.928 s
  | Solution of K.-S. eqns.                    :        0.053 s           0.054 s
  | Total energy evaluation                    :        0.001 s           0.000 s
------------------------------------------------------------

------------------------------------------------------------
          Begin self-consistency iteration #    5

  Date     :  20150727, Time     :  114421.405
------------------------------------------------------------
  Evaluating new KS density.
  Integration grid: deviation in total charge (<rho> - N_e) =   2.131628E-14
  Pulay mixing of updated and previous charge densities.

  Evaluating partitioned Hartree potential by multipole expansion.
  | Analytical far-field extrapolation by fixed multipoles:
  | Hartree multipole sum: apparent total charge =  -0.947247E-05
  Summing up the Hartree potential.
  Time summed over all CPUs for potential: real work        2.567 s, elapsed        2.576 s
  | RMS charge density error from multipole expansion :   0.177658E-01

  Integrating Hamiltonian matrix: batch-based integration.
  Time summed over all CPUs for integration: real work        7.267 s, elapsed        7.430 s

  Updating Kohn-Sham eigenvalues, eigenvectors, occupation numbers, and Fermi level.
  Solving generalized eigenproblem
  Updating Kohn-Sham eigenvalues and eigenfunctions.
  Solving real generalised eigenvalue problem by standard LAPACK (fast)
  Determining occupation numbers for Kohn-Sham eigenstates.
  | Chemical potential (Fermi level) in eV                 : -.26290445E+01
  | Error in electron count due to remaining E_F inaccuracy: 0.00000000E+00
  | Maximum occupation number of highest empty state:  0.00E+00

  Highest occupied state (VBM) at     -3.57139758 eV
  | Occupation number:      2.00000000

  Lowest unoccupied state (CBM) at    -2.05350955 eV
  | Occupation number:      0.00000000

  Overall HOMO-LUMO gap:      1.51788803 eV.

  Total energy components:
  | Sum of eigenvalues            :        -206.97668762 Ha       -5632.12222930 eV
  | XC energy correction          :         -46.61591657 Ha       -1268.48362964 eV
  | XC potential correction       :          59.59252735 Ha        1621.59517513 eV
  | Free-atom electrostatic energy:        -178.82514958 Ha       -4866.07990348 eV
  | Hartree energy correction     :          -9.89827395 Ha        -269.34573837 eV
  | van der Waals energy corr.    :           0.00000000 Ha           0.00000000 eV
  | Entropy correction            :           0.00000000 Ha           0.00000000 eV
  | ---------------------------
  | Total energy                  :        -382.72350037 Ha      -10414.43632566 eV
  | Total energy, T -> 0          :        -382.72350037 Ha      -10414.43632566 eV  <-- do not rely on this value for anything but (periodic) metals
  | Electronic free energy        :        -382.72350037 Ha      -10414.43632566 eV

  Derived energy quantities:
  | Kinetic energy                :         381.73912060 Ha       10387.64998937 eV
  | Electrostatic energy          :        -717.84670440 Ha      -19533.60268540 eV
  | Energy correction for multipole
  | error in Hartree potential    :          -0.00785614 Ha          -0.21377650 eV
  | Sum of eigenvalues per atom                           :        -375.47481529 eV
  | Total energy (T->0) per atom                          :        -694.29575504 eV  <-- do not rely on this value for anything but (periodic) metals
  | Electronic free energy per atom                       :        -694.29575504 eV

  Self-consistency convergence accuracy:
  | Change of charge density      : 0.3125E-01
  | Change of sum of eigenvalues  : 0.1894E+01 eV
  | Change of total energy        : 0.6689E-02 eV

  End self-consistency iteration #     5       :  max(cpu_time)    wall_clock(cpu1)
  | Time for this iteration                    :        1.956 s           1.956 s
  | Charge density update                      :        0.634 s           0.634 s
  | Density mixing                             :        0.009 s           0.010 s
  | Hartree multipole update                   :        0.005 s           0.005 s
  | Hartree multipole summation                :        0.323 s           0.322 s
  | Integration                                :        0.930 s           0.931 s
  | Solution of K.-S. eqns.                    :        0.054 s           0.053 s
  | Total energy evaluation                    :        0.000 s           0.001 s
------------------------------------------------------------

------------------------------------------------------------
          Begin self-consistency iteration #    6

  Date     :  20150727, Time     :  114423.361
------------------------------------------------------------
  Evaluating new KS density.
  Integration grid: deviation in total charge (<rho> - N_e) =   3.552714E-14
  Pulay mixing of updated and previous charge densities.

  Evaluating partitioned Hartree potential by multipole expansion.
  | Analytical far-field extrapolation by fixed multipoles:
  | Hartree multipole sum: apparent total charge =  -0.945456E-05
  Summing up the Hartree potential.
  Time summed over all CPUs for potential: real work        2.567 s, elapsed        2.576 s
  | RMS charge density error from multipole expansion :   0.178757E-01

  Integrating Hamiltonian matrix: batch-based integration.
  Time summed over all CPUs for integration: real work        7.260 s, elapsed        7.432 s

  Updating Kohn-Sham eigenvalues, eigenvectors, occupation numbers, and Fermi level.
  Solving generalized eigenproblem
  Updating Kohn-Sham eigenvalues and eigenfunctions.
  Solving real generalised eigenvalue problem by standard LAPACK (fast)
  Determining occupation numbers for Kohn-Sham eigenstates.
  | Chemical potential (Fermi level) in eV                 : -.26313105E+01
  | Error in electron count due to remaining E_F inaccuracy: 0.00000000E+00
  | Maximum occupation number of highest empty state:  0.00E+00

  Highest occupied state (VBM) at     -3.58959751 eV
  | Occupation number:      2.00000000

  Lowest unoccupied state (CBM) at    -2.05348213 eV
  | Occupation number:      0.00000000

  Overall HOMO-LUMO gap:      1.53611538 eV.

  Total energy components:
  | Sum of eigenvalues            :        -206.99049199 Ha       -5632.49786534 eV
  | XC energy correction          :         -46.61611769 Ha       -1268.48910245 eV
  | XC potential correction       :          59.59260854 Ha        1621.59738443 eV
  | Free-atom electrostatic energy:        -178.82514958 Ha       -4866.07990348 eV
  | Hartree energy correction     :          -9.88432933 Ha        -268.96628593 eV
  | van der Waals energy corr.    :           0.00000000 Ha           0.00000000 eV
  | Entropy correction            :           0.00000000 Ha           0.00000000 eV
  | ---------------------------
  | Total energy                  :        -382.72348005 Ha      -10414.43577276 eV
  | Total energy, T -> 0          :        -382.72348005 Ha      -10414.43577276 eV  <-- do not rely on this value for anything but (periodic) metals
  | Electronic free energy        :        -382.72348005 Ha      -10414.43577276 eV

  Derived energy quantities:
  | Kinetic energy                :         381.74424643 Ha       10387.78947018 eV
  | Electrostatic energy          :        -717.85160878 Ha      -19533.73614049 eV
  | Energy correction for multipole
  | error in Hartree potential    :          -0.00785519 Ha          -0.21375050 eV
  | Sum of eigenvalues per atom                           :        -375.49985769 eV
  | Total energy (T->0) per atom                          :        -694.29571818 eV  <-- do not rely on this value for anything but (periodic) metals
  | Electronic free energy per atom                       :        -694.29571818 eV

  Self-consistency convergence accuracy:
  | Change of charge density      : 0.1347E-01
  | Change of sum of eigenvalues  : -.3756E+00 eV
  | Change of total energy        : 0.5529E-03 eV

  End self-consistency iteration #     6       :  max(cpu_time)    wall_clock(cpu1)
  | Time for this iteration                    :        1.956 s           1.955 s
  | Charge density update                      :        0.632 s           0.631 s
  | Density mixing                             :        0.011 s           0.010 s
  | Hartree multipole update                   :        0.005 s           0.004 s
  | Hartree multipole summation                :        0.323 s           0.323 s
  | Integration                                :        0.931 s           0.931 s
  | Solution of K.-S. eqns.                    :        0.054 s           0.054 s
  | Total energy evaluation                    :        0.000 s           0.000 s
------------------------------------------------------------

------------------------------------------------------------
          Begin self-consistency iteration #    7

  Date     :  20150727, Time     :  114425.316
------------------------------------------------------------
  Evaluating new KS density.
  Integration grid: deviation in total charge (<rho> - N_e) =  -2.131628E-14
  Pulay mixing of updated and previous charge densities.

  Evaluating partitioned Hartree potential by multipole expansion.
  | Analytical far-field extrapolation by fixed multipoles:
  | Hartree multipole sum: apparent total charge =  -0.922277E-05
  Summing up the Hartree potential.
  Time summed over all CPUs for potential: real work        2.568 s, elapsed        2.577 s
  | RMS charge density error from multipole expansion :   0.178585E-01

  Integrating Hamiltonian matrix: batch-based integration.
  Time summed over all CPUs for integration: real work        7.265 s, elapsed        7.447 s

  Updating Kohn-Sham eigenvalues, eigenvectors, occupation numbers, and Fermi level.
  Solving generalized eigenproblem
  Updating Kohn-Sham eigenvalues and eigenfunctions.
  Solving real generalised eigenvalue problem by standard LAPACK (fast)
  Determining occupation numbers for Kohn-Sham eigenstates.
  | Chemical potential (Fermi level) in eV                 : -.26746610E+01
  | Error in electron count due to remaining E_F inaccuracy: 0.00000000E+00
  | Maximum occupation number of highest empty state:  0.00E+00

  Highest occupied state (VBM) at     -3.77689804 eV
  | Occupation number:      2.00000000

  Lowest unoccupied state (CBM) at    -2.06708039 eV
  | Occupation number:      0.00000000

  Overall HOMO-LUMO gap:      1.70981765 eV.

  Total energy components:
  | Sum of eigenvalues            :        -207.16819630 Ha       -5637.33344568 eV
  | XC energy correction          :         -46.60193771 Ha       -1268.10324538 eV
  | XC potential correction       :          59.57346432 Ha        1621.07644364 eV
  | Free-atom electrostatic energy:        -178.82514958 Ha       -4866.07990348 eV
  | Hartree energy correction     :          -9.70151099 Ha        -263.99154583 eV
  | van der Waals energy corr.    :           0.00000000 Ha           0.00000000 eV
  | Entropy correction            :           0.00000000 Ha           0.00000000 eV
  | ---------------------------
  | Total energy                  :        -382.72333026 Ha      -10414.43169673 eV
  | Total energy, T -> 0          :        -382.72333026 Ha      -10414.43169673 eV  <-- do not rely on this value for anything but (periodic) metals
  | Electronic free energy        :        -382.72333026 Ha      -10414.43169673 eV

  Derived energy quantities:
  | Kinetic energy                :         381.81109218 Ha       10389.60843556 eV
  | Electrostatic energy          :        -717.93248473 Ha      -19535.93688692 eV
  | Energy correction for multipole
  | error in Hartree potential    :          -0.00758874 Ha          -0.20650020 eV
  | Sum of eigenvalues per atom                           :        -375.82222971 eV
  | Total energy (T->0) per atom                          :        -694.29544645 eV  <-- do not rely on this value for anything but (periodic) metals
  | Electronic free energy per atom                       :        -694.29544645 eV

  Self-consistency convergence accuracy:
  | Change of charge density      : 0.1192E-01
  | Change of sum of eigenvalues  : -.4836E+01 eV
  | Change of total energy        : 0.4076E-02 eV

  End self-consistency iteration #     7       :  max(cpu_time)    wall_clock(cpu1)
  | Time for this iteration                    :        1.959 s           1.959 s
  | Charge density update                      :        0.632 s           0.632 s
  | Density mixing                             :        0.012 s           0.012 s
  | Hartree multipole update                   :        0.005 s           0.005 s
  | Hartree multipole summation                :        0.323 s           0.323 s
  | Integration                                :        0.933 s           0.933 s
  | Solution of K.-S. eqns.                    :        0.054 s           0.054 s
  | Total energy evaluation                    :        0.000 s           0.000 s
------------------------------------------------------------

------------------------------------------------------------
          Begin self-consistency iteration #    8

  Date     :  20150727, Time     :  114427.275
------------------------------------------------------------
  Evaluating new KS density.
  Integration grid: deviation in total charge (<rho> - N_e) =   0.000000E+00
  Pulay mixing of updated and previous charge densities.

  Evaluating partitioned Hartree potential by multipole expansion.
  | Analytical far-field extrapolation by fixed multipoles:
  | Hartree multipole sum: apparent total charge =  -0.925007E-05
  Summing up the Hartree potential.
  Time summed over all CPUs for potential: real work        2.568 s, elapsed        2.577 s
  | RMS charge density error from multipole expansion :   0.179298E-01

  Integrating Hamiltonian matrix: batch-based integration.
  Time summed over all CPUs for integration: real work        7.268 s, elapsed        7.447 s

  Updating Kohn-Sham eigenvalues, eigenvectors, occupation numbers, and Fermi level.
  Solving generalized eigenproblem
  Updating Kohn-Sham eigenvalues and eigenfunctions.
  Solving real generalised eigenvalue problem by standard LAPACK (fast)
  Determining occupation numbers for Kohn-Sham eigenstates.
  | Chemical potential (Fermi level) in eV                 : -.26693336E+01
  | Error in electron count due to remaining E_F inaccuracy: 0.00000000E+00
  | Maximum occupation number of highest empty state:  0.00E+00

  Highest occupied state (VBM) at     -3.74003450 eV
  | Occupation number:      2.00000000

  Lowest unoccupied state (CBM) at    -2.06647756 eV
  | Occupation number:      0.00000000

  Overall HOMO-LUMO gap:      1.67355694 eV.

  Total energy components:
  | Sum of eigenvalues            :        -207.14067225 Ha       -5636.58447830 eV
  | XC energy correction          :         -46.60450671 Ha       -1268.17315162 eV
  | XC potential correction       :          59.57680198 Ha        1621.16726585 eV
  | Free-atom electrostatic energy:        -178.82514958 Ha       -4866.07990348 eV
  | Hartree energy correction     :          -9.72980279 Ha        -264.76140491 eV
  | van der Waals energy corr.    :           0.00000000 Ha           0.00000000 eV
  | Entropy correction            :           0.00000000 Ha           0.00000000 eV
  | ---------------------------
  | Total energy                  :        -382.72332936 Ha      -10414.43167247 eV
  | Total energy, T -> 0          :        -382.72332936 Ha      -10414.43167247 eV  <-- do not rely on this value for anything but (periodic) metals
  | Electronic free energy        :        -382.72332936 Ha      -10414.43167247 eV

  Derived energy quantities:
  | Kinetic energy                :         381.81274028 Ha       10389.65328271 eV
  | Electrostatic energy          :        -717.93156293 Ha      -19535.91180356 eV
  | Energy correction for multipole
  | error in Hartree potential    :          -0.00763987 Ha          -0.20789135 eV
  | Sum of eigenvalues per atom                           :        -375.77229855 eV
  | Total energy (T->0) per atom                          :        -694.29544483 eV  <-- do not rely on this value for anything but (periodic) metals
  | Electronic free energy per atom                       :        -694.29544483 eV

  Self-consistency convergence accuracy:
  | Change of charge density      : 0.2270E-02
  | Change of sum of eigenvalues  : 0.7490E+00 eV
  | Change of total energy        : 0.2427E-04 eV

  End self-consistency iteration #     8       :  max(cpu_time)    wall_clock(cpu1)
  | Time for this iteration                    :        1.960 s           1.960 s
  | Charge density update                      :        0.632 s           0.632 s
  | Density mixing                             :        0.014 s           0.014 s
  | Hartree multipole update                   :        0.005 s           0.005 s
  | Hartree multipole summation                :        0.323 s           0.323 s
  | Integration                                :        0.933 s           0.932 s
  | Solution of K.-S. eqns.                    :        0.053 s           0.053 s
  | Total energy evaluation                    :        0.000 s           0.000 s
------------------------------------------------------------

------------------------------------------------------------
          Begin self-consistency iteration #    9

  Date     :  20150727, Time     :  114429.235
------------------------------------------------------------
  Evaluating new KS density.
  Integration grid: deviation in total charge (<rho> - N_e) =   4.263256E-14
  Pulay mixing of updated and previous charge densities.

  Evaluating partitioned Hartree potential by multipole expansion.
  | Analytical far-field extrapolation by fixed multipoles:
  | Hartree multipole sum: apparent total charge =  -0.923422E-05
  Summing up the Hartree potential.
  Time summed over all CPUs for potential: real work        2.568 s, elapsed        2.577 s
  | RMS charge density error from multipole expansion :   0.179051E-01

  Integrating Hamiltonian matrix: batch-based integration.
  Time summed over all CPUs for integration: real work        7.273 s, elapsed        7.449 s

  Updating Kohn-Sham eigenvalues, eigenvectors, occupation numbers, and Fermi level.
  Solving generalized eigenproblem
  Updating Kohn-Sham eigenvalues and eigenfunctions.
  Solving real generalised eigenvalue problem by standard LAPACK (fast)
  Determining occupation numbers for Kohn-Sham eigenstates.
  | Chemical potential (Fermi level) in eV                 : -.26720798E+01
  | Error in electron count due to remaining E_F inaccuracy: 0.00000000E+00
  | Maximum occupation number of highest empty state:  0.00E+00

  Highest occupied state (VBM) at     -3.74709857 eV
  | Occupation number:      2.00000000

  Lowest unoccupied state (CBM) at    -2.06759295 eV
  | Occupation number:      0.00000000

  Overall HOMO-LUMO gap:      1.67950562 eV.

  Total energy components:
  | Sum of eigenvalues            :        -207.15151640 Ha       -5636.87956255 eV
  | XC energy correction          :         -46.60298760 Ha       -1268.13181434 eV
  | XC potential correction       :          59.57480537 Ha        1621.11293535 eV
  | Free-atom electrostatic energy:        -178.82514958 Ha       -4866.07990348 eV
  | Hartree energy correction     :          -9.71847745 Ha        -264.45322669 eV
  | van der Waals energy corr.    :           0.00000000 Ha           0.00000000 eV
  | Entropy correction            :           0.00000000 Ha           0.00000000 eV
  | ---------------------------
  | Total energy                  :        -382.72332566 Ha      -10414.43157172 eV
  | Total energy, T -> 0          :        -382.72332566 Ha      -10414.43157172 eV  <-- do not rely on this value for anything but (periodic) metals
  | Electronic free energy        :        -382.72332566 Ha      -10414.43157172 eV

  Derived energy quantities:
  | Kinetic energy                :         381.81788049 Ha       10389.79315509 eV
  | Electrostatic energy          :        -717.93821856 Ha      -19536.09291247 eV
  | Energy correction for multipole
[...]
   ----------------------------------------------------------------
   Total forces(   4)            : -.314707E+00 -.141280E+01 -.321079E+00
  atom #    5
   Hellmann-Feynman + Multipole  : -.461626E+00 0.415275E+00 0.865683E+00
   Pulay + GGA                   : 0.399886E-01 0.931446E-01 0.117027E+00
   Van der Waals               : 0.166546E-02 0.242713E-02 -.268551E-02
   ----------------------------------------------------------------
   Total forces(   5)            : -.419972E+00 0.510847E+00 0.980025E+00
  atom #    6
   Hellmann-Feynman + Multipole  : 0.659943E+00 0.835093E+00 0.237332E+00
   Pulay + GGA                   : -.111343E+00 -.596109E-01 0.689610E-01
   Van der Waals               : 0.729274E-03 0.124368E-02 -.126649E-02
   ----------------------------------------------------------------
   Total forces(   6)            : 0.549330E+00 0.776726E+00 0.305026E+00
  atom #    7
   Hellmann-Feynman + Multipole  : -.587028E+01 -.834187E+01 0.910164E+01
   Pulay + GGA                   : 0.573719E+01 0.902413E+01 -.699110E+01
   Van der Waals               : 0.615293E-03 0.718512E-03 0.156304E-02
   ----------------------------------------------------------------
   Total forces(   7)            : -.132472E+00 0.682978E+00 0.211211E+01
  atom #    8
   Hellmann-Feynman + Multipole  : -.297205E+00 -.291236E+00 -.112189E+00
   Pulay + GGA                   : 0.392979E-01 0.821020E-01 0.230441E-03
   Van der Waals               : -.115891E-03 -.169217E-02 -.386919E-03
   ----------------------------------------------------------------
   Total forces(   8)            : -.258023E+00 -.210826E+00 -.112345E+00
  atom #    9
   Hellmann-Feynman + Multipole  : -.261438E+00 0.291215E+00 -.225664E+01
   Pulay + GGA                   : -.363515E-01 0.439837E-01 -.120562E+00
   Van der Waals               : 0.275767E-02 0.189217E-02 0.308114E-02
   ----------------------------------------------------------------
   Total forces(   9)            : -.295032E+00 0.337091E+00 -.237412E+01
  atom #   10
   Hellmann-Feynman + Multipole  : -.669721E+01 0.310692E+00 -.101416E+02
   Pulay + GGA                   : 0.978424E+01 0.219620E+00 0.116251E+02
   Van der Waals               : -.416507E-02 0.480328E-02 0.305795E-02
   ----------------------------------------------------------------
   Total forces(  10)            : 0.308286E+01 0.535115E+00 0.148658E+01
  atom #   11
   Hellmann-Feynman + Multipole  : -.131267E+00 -.111220E+01 -.122445E+01
   Pulay + GGA                   : 0.357035E-01 0.104201E+00 0.945787E-01
   Van der Waals               : -.346951E-02 0.328062E-02 0.941781E-03
   ----------------------------------------------------------------
   Total forces(  11)            : -.990328E-01 -.100472E+01 -.112893E+01
  atom #   12
   Hellmann-Feynman + Multipole  : -.161362E+01 0.100885E+01 -.300709E+00
   Pulay + GGA                   : 0.130271E+00 -.488929E-01 0.192854E-01
   Van der Waals               : -.224880E-02 0.529770E-03 0.262229E-03
   ----------------------------------------------------------------
   Total forces(  12)            : -.148560E+01 0.960488E+00 -.281162E+00
  atom #   13
   Hellmann-Feynman + Multipole  : -.133466E+02 -.324018E+01 0.256585E+01
   Pulay + GGA                   : 0.146190E+02 0.469395E+01 -.308393E+01
   Van der Waals               : 0.283177E-02 -.768096E-02 -.433095E-03
   ----------------------------------------------------------------
   Total forces(  13)            : 0.127518E+01 0.144609E+01 -.518511E+00
  atom #   14
   Hellmann-Feynman + Multipole  : -.609427E+00 0.961263E-01 -.119882E+00
   Pulay + GGA                   : 0.126973E+00 -.550793E-01 0.448202E-01
   Van der Waals               : -.189986E-03 -.780889E-02 -.213928E-02
   ----------------------------------------------------------------
   Total forces(  14)            : -.482644E+00 0.332381E-01 -.772008E-01
  atom #   15
   Hellmann-Feynman + Multipole  : -.752033E+00 -.146148E+01 0.691924E+00
   Pulay + GGA                   : 0.502381E-01 0.110693E+00 -.514770E-01
   Van der Waals               : -.787565E-04 -.178275E-02 -.383844E-03
   ----------------------------------------------------------------
   Total forces(  15)            : -.701873E+00 -.135257E+01 0.640063E+00
  Timings for vdw_correction_hirshfeld (Tkatchenko-Scheffler 2009):
  | CPU time:        5.242 s, Wall clock time:        5.243 s.
  Removing unitary transformations (pure translations, rotations) from forces on atoms.
  Atomic forces before filtering:
  | Net force on center of mass :  0.691030E-02 -.300964E-02 -.142339E-02 eV/A
  | Net torque on center of mass:  0.414385E-02 0.900307E-02 -.141265E-01 eV
  Atomic forces after filtering:
  | Net force on center of mass :  0.892031E-15 0.356812E-15 -.356812E-15 eV/A
  | Net torque on center of mass:  -.519247E-15 0.616605E-15 -.188817E-14 eV
 
  Energy and forces in a compact form:
  | Total energy uncorrected      :         -0.104144978469125E+05 eV
  | Total energy corrected        :         -0.104144978469125E+05 eV  <-- do not rely on this value for anything but (periodic) metals
  | Electronic free energy        :         -0.104144978469125E+05 eV
  Total atomic forces (unitary forces cleaned) [eV/Ang]:
  |   1         -0.230592195175225E+00          0.256126351711880E+01         -0.167122676070316E+01
  |   2          0.180674597373826E+01         -0.314234232347214E+01          0.121819282522642E+01
  |   3         -0.228743971298163E+01         -0.723171134162896E+00         -0.258440705156903E+00
  |   4         -0.315159638321739E+00         -0.141267708273336E+01         -0.321056478405068E+00
  |   5         -0.420713264084047E+00          0.511052230148654E+00          0.980057498374315E+00
  |   6          0.548922716505373E+00          0.776677334432120E+00          0.304898725212882E+00
  |   7         -0.132779823291470E+00          0.682759838588040E+00          0.211184402958867E+01
  |   8         -0.258589374148707E+00         -0.210918941844523E+00         -0.112551637740252E+00
  |   9         -0.295175793495797E+00          0.336793263519982E+00         -0.237442482325225E+01
  |  10          0.308267955733176E+01          0.535776769168031E+00          0.148717083677498E+01
  |  11         -0.995295496361553E-01         -0.100400030964390E+01         -0.112835218196128E+01
  |  12         -0.148567511269417E+01          0.961343745487049E+00         -0.280357923466176E+00
  |  13          0.127409062050970E+01          0.144623025617532E+01         -0.518621730041278E+00
  |  14         -0.483717192061996E+00          0.335887864466226E-01         -0.771090294016778E-01
  |  15         -0.703067212194162E+00         -0.135237594922779E+01          0.639977354950785E+00
 
  ------------------------------------ 
  Start decomposition of the XC Energy 
  ------------------------------------ 
  Hartree-Fock part   :          0.000000000 Ha              0.000000000 eV
  ------------------------------------ 
  X Energy            :        -44.963447688 Ha          -1223.517663482 eV
  C Energy GGA        :         -1.639610491 Ha            -44.616071499 eV
  Total XC Energy     :        -46.603058179 Ha          -1268.133734981 eV
  LDA X and C from self-consistent density 
  X Energy LDA        :        -40.528073957 Ha          -1102.825003495 eV
  C Energy LDA        :         -3.300860277 Ha            -89.820978189 eV
  ------------------------------------ 
  End decomposition of the XC Energy 
  ------------------------------------ 
  Performing Hirshfeld analysis of fragment charges and moments.
  ----------------------------------------------------------------------
  | Atom     1: O
  |   Hirshfeld charge        :     -0.40221992
  |   Free atom volume        :     23.95238533
  |   Hirshfeld volume        :     24.52063514
  |   Hirshfeld dipole vector :      0.02001388       0.06650150       0.02637207
  |   Hirshfeld dipole moment :      0.07428655
  |   Hirshfeld second moments:     -0.00998957      -0.02016671       0.01411406
  |                                 -0.02016671      -0.07539735      -0.03402853
  |                                  0.01411406      -0.03402853      -0.09305226
  ----------------------------------------------------------------------
  | Atom     2: H
  |   Hirshfeld charge        :      0.05325694
  |   Free atom volume        :     10.44207651
  |   Hirshfeld volume        :      8.77444580
  |   Hirshfeld dipole vector :     -0.02239984       0.04093433      -0.00891916
  |   Hirshfeld dipole moment :      0.04750709
  |   Hirshfeld second moments:      0.06061189       0.02808921       0.00202542
  |                                  0.02808921       0.01720603       0.00722359
  |                                  0.00202542       0.00722359       0.05592718
  ----------------------------------------------------------------------
  | Atom     3: H
  |   Hirshfeld charge        :      0.03850586
  |   Free atom volume        :     10.44207651
  |   Hirshfeld volume        :      8.83935661
  |   Hirshfeld dipole vector :      0.04924257       0.01553268       0.01637377
  |   Hirshfeld dipole moment :      0.05416821
  |   Hirshfeld second moments:      0.02024377      -0.02757702      -0.00153559
  |                                 -0.02757702       0.05990163      -0.00578264
  |                                 -0.00153559      -0.00578264       0.04783270
  ----------------------------------------------------------------------
  | Atom     4: O
  |   Hirshfeld charge        :     -0.28248004
  |   Free atom volume        :     23.95238533
  |   Hirshfeld volume        :     21.98302243
  |   Hirshfeld dipole vector :     -0.03278621       0.01986172       0.01384747
  |   Hirshfeld dipole moment :      0.04075753
  |   Hirshfeld second moments:      0.02586022       0.05761072      -0.00760656
  |                                  0.05761072       0.03113015       0.02704648
  |                                 -0.00760656       0.02704648      -0.00450094
  ----------------------------------------------------------------------
  | Atom     5: H
  |   Hirshfeld charge        :      0.12242220
  |   Free atom volume        :     10.44207651
  |   Hirshfeld volume        :      6.84546997
  |   Hirshfeld dipole vector :      0.03475859       0.09632126       0.05670577
  |   Hirshfeld dipole moment :      0.11705336
  |   Hirshfeld second moments:      0.11035586       0.01807033      -0.00675258
  |                                  0.01807033       0.09680496       0.00409955
  |                                 -0.00675258       0.00409955       0.09232074
  ----------------------------------------------------------------------
  | Atom     6: H
  |   Hirshfeld charge        :      0.13794208
  |   Free atom volume        :     10.44207651
  |   Hirshfeld volume        :      6.71690383
  |   Hirshfeld dipole vector :     -0.10304220      -0.06275680       0.01866968
  |   Hirshfeld dipole moment :      0.12208468
  |   Hirshfeld second moments:      0.09843970       0.01349360       0.00030464
  |                                  0.01349360       0.11444042       0.01319808
  |                                  0.00030464       0.01319808       0.09994494
  ----------------------------------------------------------------------
  | Atom     7: O
  |   Hirshfeld charge        :     -0.20354073
  |   Free atom volume        :     23.95238533
  |   Hirshfeld volume        :     20.59282651
  |   Hirshfeld dipole vector :      0.03084027      -0.01159845      -0.01548020
  |   Hirshfeld dipole moment :      0.03640444
  |   Hirshfeld second moments:      0.03205513       0.01236062       0.02656619
  |                                  0.01236062       0.07266992       0.00539770
  |                                  0.02656619       0.00539770       0.09669153
  ----------------------------------------------------------------------
  | Atom     8: H
  |   Hirshfeld charge        :      0.11293458
  |   Free atom volume        :     10.44207651
  |   Hirshfeld volume        :      7.36226241
  |   Hirshfeld dipole vector :      0.02745650       0.03941016       0.00869935
  |   Hirshfeld dipole moment :      0.04881290
  |   Hirshfeld second moments:      0.07948359      -0.02051193      -0.00566286
  |                                 -0.02051193       0.06972918      -0.02797336
  |                                 -0.00566286      -0.02797336       0.10101735
  ----------------------------------------------------------------------
  | Atom     9: H
  |   Hirshfeld charge        :      0.15863255
  |   Free atom volume        :     10.44207651
  |   Hirshfeld volume        :      6.07521509
  |   Hirshfeld dipole vector :     -0.01780580       0.00892853      -0.11874013
  |   Hirshfeld dipole moment :      0.12039926
  |   Hirshfeld second moments:      0.11659530       0.00942275       0.00820923
  |                                  0.00942275       0.13048767       0.00234695
  |                                  0.00820923       0.00234695       0.12178224
  ----------------------------------------------------------------------
  | Atom    10: O
  |   Hirshfeld charge        :     -0.18343621
  |   Free atom volume        :     23.95238533
  |   Hirshfeld volume        :     20.63197215
  |   Hirshfeld dipole vector :     -0.02035886      -0.03306409       0.02850989
  |   Hirshfeld dipole moment :      0.04817189
  |   Hirshfeld second moments:      0.06730223      -0.02910585       0.00669322
  |                                 -0.02910585       0.07650232       0.03845598
  |                                  0.00669322       0.03845598       0.04617019
  ----------------------------------------------------------------------
  | Atom    11: H
  |   Hirshfeld charge        :      0.15791534
  |   Free atom volume        :     10.44207651
  |   Hirshfeld volume        :      6.15068204
  |   Hirshfeld dipole vector :      0.00047071       0.06810695       0.09266274
  |   Hirshfeld dipole moment :      0.11500071
  |   Hirshfeld second moments:      0.12500578      -0.00993216       0.00513106
  |                                 -0.00993216       0.12297988       0.00229200
  |                                  0.00513106       0.00229200       0.11122964
  ----------------------------------------------------------------------
  | Atom    12: H
  |   Hirshfeld charge        :      0.17066331
  |   Free atom volume        :     10.44207651
  |   Hirshfeld volume        :      5.88090694
  |   Hirshfeld dipole vector :      0.08849902      -0.08037080       0.01222345
  |   Hirshfeld dipole moment :      0.12017053
  |   Hirshfeld second moments:      0.12228317       0.00011809       0.00041081
  |                                  0.00011809       0.12718836       0.01578125
  |                                  0.00041081       0.01578125       0.13005313
  ----------------------------------------------------------------------
  | Atom    13: O
  |   Hirshfeld charge        :     -0.21177086
  |   Free atom volume        :     23.95238533
  |   Hirshfeld volume        :     20.40800684
  |   Hirshfeld dipole vector :      0.01914734      -0.01367435      -0.02497247
  |   Hirshfeld dipole moment :      0.03431083
  |   Hirshfeld second moments:      0.06181838      -0.00124596       0.02823342
  |                                 -0.00124596       0.09195490      -0.03384005
  |                                  0.02823342      -0.03384005       0.03608191
  ----------------------------------------------------------------------
  | Atom    14: H
  |   Hirshfeld charge        :      0.16149869
  |   Free atom volume        :     10.44207651
  |   Hirshfeld volume        :      6.00215755
  |   Hirshfeld dipole vector :      0.09688947      -0.04888148       0.04013483
  |   Hirshfeld dipole moment :      0.11570554
  |   Hirshfeld second moments:      0.11847493       0.01224566       0.00397950
  |                                  0.01224566       0.12974799      -0.01127721
  |                                  0.00397950      -0.01127721       0.12208138
  ----------------------------------------------------------------------
  | Atom    15: H
  |   Hirshfeld charge        :      0.16971619
  |   Free atom volume        :     10.44207651
  |   Hirshfeld volume        :      5.60578059
  |   Hirshfeld dipole vector :      0.03409020       0.10315840      -0.05478891
  |   Hirshfeld dipole moment :      0.12167835
  |   Hirshfeld second moments:      0.13970270      -0.00683185       0.01242308
  |                                 -0.00683185       0.13041781      -0.00313899
  |                                  0.01242308      -0.00313899       0.12267908
  ----------------------------------------------------------------------


------------------------------------------------------------------------------
  Final output of selected total energy values:

  The following output summarizes some interesting total energy values
  at the end of a run (AFTER all relaxation, molecular dynamics, etc.).

  | Total energy of the DFT / Hartree-Fock s.c.f. calculation      :         -10414.497846912 eV
  | Final zero-broadening corrected energy (caution - metals only) :         -10414.497846912 eV
  | For reference only, the value of 1 Hartree used in FHI-aims is :             27.211384500 eV

  Before relying on these values, please be sure to understand exactly which
  total energy value is referred to by a given number. Different objects may
  all carry the same name 'total energy'. Definitions:

  Total energy of the DFT / Hartree-Fock s.c.f. calculation:
  | Note that this energy does not include ANY quantities calculated after the
  | s.c.f. cycle, in particular not ANY RPA, MP2, etc. many-body perturbation terms.

  Final zero-broadening corrected energy:
  | For metallic systems only, a broadening of the occupation numbers at the Fermi
  | level can be extrapolated back to zero broadening by an electron-gas inspired
  | formula. For all systems that are not real metals, this value can be
  | meaningless and should be avoided.

------------------------------------------------------------------------------

------------------------------------------------------------
          Leaving FHI-aims.
          Date     :  20150727, Time     :  114448.889

          Computational steps:
          | Number of self-consistency cycles          :           16

          Detailed time accounting                     :  max(cpu_time)    wall_clock(cpu1)
          | Total time                                 :       37.756 s          37.786 s
          | Preparation time                           :        0.170 s           0.444 s
          | Grid partitioning                          :        0.146 s           0.145 s
          | Preloading free-atom quantities on grid    :        0.013 s           0.013 s
          | Free-atom superposition energy             :        0.067 s           0.067 s
          | Total time for integrations                :       16.332 s          16.334 s
          | Total time for solution of K.-S. equations :        1.055 s           1.054 s
          | Total time for density & force components  :       12.878 s          12.878 s
          | Total time for mixing                      :        0.209 s           0.208 s
          | Total time for Hartree multipole update    :        0.079 s           0.077 s
          | Total time for Hartree multipole sum       :        6.242 s           6.241 s
          | Total time for total energy evaluation     :        0.003 s           0.004 s
          | Total time for scaled ZORA corrections     :        0.000 s           0.000 s
          | Total time for TS (2009) vdW correction    :        0.051 s           0.051 s

          Have a nice day.
------------------------------------------------------------
