  MPI-parallelism will be employed.
------------------------------------------------------------
          Invoking FHI-aims ...
          Version 081213
          Compiled on 2013/08/29 at 17:41:06 on host generoso.

          When using FHI-aims, please cite the following reference:

          Volker Blum, Ralf Gehrke, Felix Hanke, Paula Havu,
          Ville Havu, Xinguo Ren, Karsten Reuter, and Matthias Scheffler,
          'Ab Initio Molecular Simulations with Numeric Atom-Centered Orbitals: FHI-aims',
          Computer Physics Communications 180, 2175-2196 (2009)

          For any questions about FHI-aims, please visit the aimsclub website
          with its forums and wiki. Contributions to both the forums and the
          wiki are warmly encouraged - they are for you, and everyone is welcome there.

------------------------------------------------------------

  Date     :  20150727, Time     :  115940.109
  Time zero on CPU 1             :   0.469920000000000E-01  s.
  Internal wall clock time zero  :           207230380.109  s.

  Using        8 parallel tasks.
  Task        0 on host gen60 reporting.
  Task        1 on host gen60 reporting.
  Task        2 on host gen60 reporting.
  Task        3 on host gen60 reporting.
  Task        4 on host gen60 reporting.
  Task        5 on host gen60 reporting.
  Task        6 on host gen60 reporting.
  Task        7 on host gen60 reporting.

  Performing system and environment tests:
  | Environment variable OMP_NUM_THREADS correctly set to 1.
  | Checking for scalapack...
  | No scalapack compiled in.

  Obtaining array dimensions for all initial allocations:
  
  -----------------------------------------------------------------------
  Parsing control.in (first pass over file, find array dimensions only).
  The contents of control.in will be repeated verbatim below
  unless switched off by setting 'verbatim_writeout .false.' .
  in the first line of control.in .
  -----------------------------------------------------------------------
  
  #########################################################################################
  #
  #  Volker Blum, FHI 2008 : Test run input file control.in
  #
  #########################################################################################
  #
  #  Physical model
  #
    xc                 rpbe
    spin               none
    relativistic       atomic_zora scalar
    charge             0.
   vdw_correction_hirshfeld
  #
  #  SCF convergence
  #
    occupation_type    gaussian 0.01
    mixer              pulay
      n_max_pulay        10
      charge_mix_param   0.1
    sc_accuracy_rho    5E-5
    sc_accuracy_eev    5E-3
    sc_accuracy_etot   5E-6
    sc_iter_limit      3000
  #
  #  Eigenvalue solver
  #
    KS_method          lapack
      empty_states       8
      basis_threshold    0.e-5
  #
  #  Efficiency
  #
  #   all previous settings are now default, except stratmann still
  #   undecided. Continue to handle stratmann with care, if at all.
  #
  #  partition_type stratmann
    partition_type rho_r2
  #  hartree_partition_type stratmann
  #
  #  Oprions for large clusters (100's of atoms: memory saving / better scaling)
  #
  # for periodic systems:
  #
    density_update_method orbital
    packed_matrix_format none
  #  k_grid 6 6 6
  #  output k_eigenvalue 1
  #  distributed_spline_storage .true.
  #
  #  Relaxation
  #
  #  relax_geometry   bfgs 5.e-3
    sc_accuracy_forces 5.E-4
    final_forces_cleaned .true.
  #
  #  Output options
  #
  #  output mulliken
    output Hirshfeld
  #  output dipole
  
  #harmonic_length_scale 0.001
  
  ################################################################################
  #
  #  FHI-aims code project
  #  VB, Fritz-Haber Institut, 2007
  #
  #  Suggested "safe" defaults for H atom (to be pasted into control.in file)
  #  Basis constructed for a non-relativistic H2 molecule using the
  #  PW-LDA functional.
  #
  ################################################################################
    species        H
  #     global species definitions
      nucleus             1
      cut_pot             4.0  2.0  1.0
      cut_free_atom       finite 8.0
      logarithmic         0.00010000 100.00  1.0123
      basis_dep_cutoff    1d-4  # 1d-4 is safe default - please check 5d-4 if you wish!
      radial_base         24 7.0
      radial_multiplier   2
      angular_grids       specified
        division   0.2783  110
        division   0.3822  194
        division   0.5626  302
  #      division   0.5922  434
  #      division   0.6227  590
  #      division   0.7206  770
        outer_grid  302
      l_hartree           4
  ################################################################################
  #
  #  Definition of "minimal" basis
  #
  ################################################################################
  #     valence basis states
      valence      1  s   1.
  #     ion occupancy
      ion_occ      1  s   0.5
  ################################################################################
  #
  #  Suggested additional basis functions. For production calculations,
  #  uncomment them one after another (the most important basis functions are
  #  listed first).
  #
  ################################################################################
  #  "First tier" - improvements: -1014.90 meV to -62.69 meV
       hydro 2 s 2.1
       hydro 2 p 3.5
  #  "Second tier" - improvements: -12.89 meV to -1.83 meV
       hydro 1 s 0.85
       hydro 2 p 3.7
       hydro 2 s 1.2
       hydro 3 d 7
  #  "Third tier" - improvements: -0.25 meV to -0.12 meV
  #     hydro 4 f 11.2
  #     hydro 3 p 4.8
  #     hydro 4 d 9
  #     hydro 3 s 3.2
  
  ################################################################################
  #
  #  FHI-aims code project
  #  VB, Fritz-Haber Institut, 2007
  #
  #  Suggested "safe" defaults for O atom (to be pasted into control.in file)
  #  All values have been tested for a non-relativistic, non-spinpolarized O2
  #  molecule using the PW-LDA functional. Validity for PBE is expected.
  #
  #  Constructed for dimers: 1.0 A, 1.208 A, 1.5 A, 2.0 A, 3.0 A
  #
  ################################################################################
    species        O
  #     global species definitions
      nucleus             8
      mass                15.9994
      l_hartree           4
      cut_pot             4.0  2.0  1.0
      cut_free_atom       finite 8.0
      basis_dep_cutoff    1d-4  # 1d-4 is safe default - please check 5d-4 if you wish!
      logarithmic         0.00010000 100.00  1.0123
      radial_base         36 7.0
      radial_multiplier   2
       angular_grids specified
        division   0.4087  110
        division   0.5181  194
        division   0.6184  302
  #      division   0.7315  434
  #      division   0.7934  590
  #      division   0.9656  770
  #      division   1.4041  974
  #      outer_grid 974
        outer_grid 302
  ################################################################################
  #
  #  Definition of "minimal" basis
  #
  ################################################################################
  #     valence basis states
      valence      2  s   2.
      valence      2  p   4.
  #     ion occupancy
      ion_occ      2  s   1.
      ion_occ      2  p   3.
  ################################################################################
  #
  #  Suggested additional basis functions. For production calculations,
  #  uncomment them one after another (the most important basis functions are
  #  listed first).
  #
  ################################################################################
  #  "First tier" - improvements: -699.05 meV to -159.38 meV
       hydro 2 p 1.8
       hydro 3 d 7.6
       hydro 3 s 6.4
  #  "Second tier" - improvements: -49.91 meV to -5.39 meV
       hydro 4 f 11.6
       hydro 3 p 6.2
       hydro 3 d 5.6
       hydro 5 g 17.6
       hydro 1 s 0.75
  #  "Third tier" - improvements: -2.83 meV to -0.50 meV
  #     ionic 2 p auto
  #     hydro 4 f 10.8
  #     hydro 4 d 4.7
  #     hydro 2 s 6.8
  #  "Fourth tier" - improvements: -0.40 meV to -0.12 meV
  #     hydro 3 p 5
  #     hydro 3 s 3.3
  #     hydro 5 g 15.6
  #     hydro 4 f 17.6
  #     hydro 4 d 14
  # Further basis functions - -0.08 meV and below
  #     hydro 3 s 2.1
  #     hydro 4 d 11.6
  #     hydro 3 p 16
  #     hydro 2 s 17.2
  
  
  -----------------------------------------------------------------------
  Completed first pass over input file control.in .
  -----------------------------------------------------------------------
  
  
  -----------------------------------------------------------------------
  Parsing geometry.in (first pass over file, find array dimensions only).
  The contents of geometry.in will be repeated verbatim below
  unless switched off by setting 'verbatim_writeout .false.' .
  in the first line of geometry.in .
  -----------------------------------------------------------------------
  
  atom      -4.053030000      0.065001000     -1.525160000  O
  atom      -4.566710000      0.974813000     -1.912820000  H
  atom      -3.067820000      0.330172000     -1.477310000  H
  atom      -4.581760000     -0.256435000      0.939478000  O
  atom      -4.349860000      0.471090000      1.504340000  H
  atom      -5.393870000     -0.726611000      1.228070000  H
  atom      -1.645860000      0.870179000     -1.502250000  O
  atom      -1.568890000      1.501730000     -0.721051000  H
  atom      -0.824432000      0.282220000     -1.377720000  H
  atom      -3.818880000      2.024990000      2.187990000  O
  atom      -3.690880000      1.961360000      3.202150000  H
  atom      -4.546490000      2.751300000      2.045370000  H
  atom      -1.975360000      2.858040000      0.453140000  O
  atom      -1.223550000      3.375850000      0.786238000  H
  atom      -2.537520000      2.567960000      1.156120000  H
  
  -----------------------------------------------------------------------
  Completed first pass over input file geometry.in .
  -----------------------------------------------------------------------
  
 
  Basic array size parameters: 
  | Number of species                 :        2
  | Number of atoms                   :       15
  | Max. basis fn. angular momentum   :        4
  | Max. atomic/ionic basis occupied n:        2
  | Max. number of basis fn. types    :        2
  | Max. radial fns per species/type  :        8
  | Max. logarithmic grid size        :     1301
  | Max. radial integration grid size :       73
  | Max. angular integration grid size:      302
  | Max. angular grid division number :        8
  | Radial grid for Hartree potential :     1301
  | Number of spin channels           :        1

------------------------------------------------------------
          Reading file control.in.
------------------------------------------------------------
  XC: Using RPBE gradient-corrected functionals.
  Spin treatment: No spin polarisation.
  Scalar relativistic treatment of kinetic energy: on-site free-atom approximation to ZORA.
  Charge =   0.000000E+00: Neutral system requested explicitly.
  Using non-empirical van der Waals correction (Hirshfeld partitioning):
  Occupation type: Gaussian broadening, width =   0.100000E-01 eV.
  Using pulay charge density mixing.
  Pulay mixing - number of memorized iterations:   10
  Charge density mixing - mixing parameter:     0.1000
  Convergence accuracy of self-consistent charge density: 0.5000E-04
  Convergence accuracy of sum of eigenvalues: 0.5000E-02
  Convergence accuracy of total energy: 0.5000E-05
  Maximum number of s.-c. iterations  :  3000
  Kohn-Sham eigenvalues and eigenfunctions calculated by lapack diagonalisation (D&C).
  Number of empty states per atom:        8
  Threshold for basis singularities: 0.0000E+00
  Partition function in integrals calculations: rho / r^2
 Using packed matrix format           0
  Convergence accuracy of forces: 0.5000E-03
  Cleaning forces before final output.
  Hirshfeld charge analysis will be performed.
 
  Reading configuration options for species H                   .
  | Found nuclear charge :   1.0000
  | Found cutoff potl. onset [A], width [A], scale factor :    4.00000    2.00000    1.00000
  | Found cutoff specification for free atom: Cutoff potential begins at    8.00000 A.
  | Found logarithmic grid data [bohr] : 0.1000E-03 0.1000E+03 0.1012E+01
  | Threshold for basis-dependent cutoff potential is   0.100000E-03
  | Found data for basic radial integration grid :    24 points, outermost radius =    7.000 A
  | Found multiplier for basic radial grid :   2
  | Found angular grid specification: user-specified.
  | Specified grid contains     4 separate shells.
  | Check grid settings after all constraints further below.
  | Found l_max for Hartree potential  :   4
  | Found free-atom valence shell :  1 s   1.000
  | No ionic wave fns used. Skipping ion_occ.
  | Found hydrogenic basis function :  2 s   2.100
  | Found hydrogenic basis function :  2 p   3.500
  | Found hydrogenic basis function :  1 s   0.850
  | Found hydrogenic basis function :  2 p   3.700
  | Found hydrogenic basis function :  2 s   1.200
  | Found hydrogenic basis function :  3 d   7.000
  Species H                   : Missing cutoff potential type.
  Defaulting to exp(1/x)/(1-x)^2 type cutoff potential.
  Species H : On-site basis accuracy parameter (for Gram-Schmidt orthonormalisation) not specified.
  Using default value basis_acc =  0.1000000E-03.
  Species H                   : Using default innermost maximum threshold i_radial=  2 for radial functions.
  Species H                   : Basic radial grid will be enhanced according to radial_multiplier =   2, to contain    49 grid points.
 
  Reading configuration options for species O                   .
  | Found nuclear charge :   8.0000
  | Found atomic mass :    15.9994000000000      amu
  | Found l_max for Hartree potential  :   4
  | Found cutoff potl. onset [A], width [A], scale factor :    4.00000    2.00000    1.00000
  | Found cutoff specification for free atom: Cutoff potential begins at    8.00000 A.
  | Threshold for basis-dependent cutoff potential is   0.100000E-03
  | Found logarithmic grid data [bohr] : 0.1000E-03 0.1000E+03 0.1012E+01
  | Found data for basic radial integration grid :    36 points, outermost radius =    7.000 A
  | Found multiplier for basic radial grid :   2
  | Found angular grid specification: user-specified.
  | Specified grid contains     4 separate shells.
  | Check grid settings after all constraints further below.
  | Found free-atom valence shell :  2 s   2.000
  | Found free-atom valence shell :  2 p   4.000
  | No ionic wave fns used. Skipping ion_occ.
  | No ionic wave fns used. Skipping ion_occ.
  | Found hydrogenic basis function :  2 p   1.800
  | Found hydrogenic basis function :  3 d   7.600
  | Found hydrogenic basis function :  3 s   6.400
  | Found hydrogenic basis function :  4 f  11.600
  | Found hydrogenic basis function :  3 p   6.200
  | Found hydrogenic basis function :  3 d   5.600
  | Found hydrogenic basis function :  5 g  17.600
  | Found hydrogenic basis function :  1 s   0.750
  Species O                   : Missing cutoff potential type.
  Defaulting to exp(1/x)/(1-x)^2 type cutoff potential.
  Species O : On-site basis accuracy parameter (for Gram-Schmidt orthonormalisation) not specified.
  Using default value basis_acc =  0.1000000E-03.
  Species O                   : Using default innermost maximum threshold i_radial=  2 for radial functions.
  Species O                   : Basic radial grid will be enhanced according to radial_multiplier =   2, to contain    73 grid points.
 
  Finished reading input file 'control.in'. Consistency checks are next.
 
  Target number of points in a grid batch is not set. Defaulting to  100
  Method for grid partitioning is not set. Defaulting to parallel hash+maxmin partitioning.
  Batch size limit is not set. Defaulting to    200
  By default, will store active basis functions for each batch.
  If in need of memory, prune_basis_once .false. can be used to disable this option.
  communication_type for Hartree potential was not specified.
  Defaulting to calc_hartree .
  Pulay mixer: Number of initial linear mixing iterations not set.
  Defaulting to    0 iterations.
  Work space size for distributed Hartree potential not set.
  Defaulting to   0.200000E+03 MB.
  Algorithm-dependent basis array size parameters:
  | n_max_pulay                         :       10
  Geometry relaxation not requested: no relaxation will be performed.
  Handling of forces: Unphysical translation and rotation will be removed from forces.
  No accuracy limit for integral partition fn. given. Defaulting to 0.1000E-14.
  No threshold value for u(r) in integrations given. Defaulting to 0.1000E-05.
  No accuracy for occupation numbers given. Defaulting to 0.1000E-07.
  No threshold value for occupation numbers given. Defaulting to 0.0000E+00.
  No accuracy for fermi level given. Defaulting to 0.1000E-19.
  Maximum # of iterations to find E_F not set. Defaulting to  200.
  Will not use alltoall communication since running on < 1024 CPUs.
  Partitioning for Hartree potential was not defined. Using partition_type for integrals.
  | Reporting present value of keyword multip_moments_threshold  :       0.10000000E-09
  | This value may affect high angular momentum components of the Hartree potential in periodic systems.
  No q(lm)/r^(l+1) cutoff set for long-range Hartree potential.
  | Using default value of  0.100000E-09 .
  | Verify using the multipole_threshold keyword.
  Defaulting to new monopole extrapolation.
  Density update method: Loop over occupied states selected for charge density update.
------------------------------------------------------------


------------------------------------------------------------
          Reading geometry description geometry.in.
------------------------------------------------------------
  Input structure read successfully.
  The structure contains       15 atoms,  and a total of         50.000 electrons.

  Input geometry:
  | No unit cell requested.
  | Atomic structure:
  |       Atom                x [A]            y [A]            z [A]
  |    1: Species O             -4.053030         0.065001        -1.525160
  |    2: Species H             -4.566710         0.974813        -1.912820
  |    3: Species H             -3.067820         0.330172        -1.477310
  |    4: Species O             -4.581760        -0.256435         0.939478
  |    5: Species H             -4.349860         0.471090         1.504340
  |    6: Species H             -5.393870        -0.726611         1.228070
  |    7: Species O             -1.645860         0.870179        -1.502250
  |    8: Species H             -1.568890         1.501730        -0.721051
  |    9: Species H             -0.824432         0.282220        -1.377720
  |   10: Species O             -3.818880         2.024990         2.187990
  |   11: Species H             -3.690880         1.961360         3.202150
  |   12: Species H             -4.546490         2.751300         2.045370
  |   13: Species O             -1.975360         2.858040         0.453140
  |   14: Species H             -1.223550         3.375850         0.786238
  |   15: Species H             -2.537520         2.567960         1.156120
  |

  | The smallest distance between any two atoms is         0.94570141 AA.
  |
  | The first atom of this pair is atom number                     13 .
  | The second atom of this pair is atom number                    15 .

  Structure-dependent array size parameters: 
  | Maximum number of distinct radial functions  :       18
  | Maximum number of basis functions            :      345
  | Number of Kohn-Sham states (occupied + empty):       85
------------------------------------------------------------

------------------------------------------------------------
          Preparing all fixed parts of the calculation.
------------------------------------------------------------
  Determining machine precision:
    2.225073858507201E-308
  Setting up grids for atomic and cluster calculations.

  Creating wave function, potential, and density for free atoms.

  Species: H

  List of occupied orbitals and eigenvalues:
    n    l              occ      energy [Ha]    energy [eV]
    1    0           1.0000        -0.241408        -6.5691


  Species: O

  List of occupied orbitals and eigenvalues:
    n    l              occ      energy [Ha]    energy [eV]
    1    0           2.0000       -18.944147      -515.4965
    2    0           2.0000        -0.883529       -24.0421
    2    1           4.0000        -0.330176        -8.9845

  Creating fixed part of basis set: Ionic, confined, hydrogenic.
 
  H                    hydrogenic:
 
  List of hydrogenic basis orbitals: 
    n    l      effective z      eigenvalue [eV]  inner max. [A]     outer max. [A]     outer radius [A]   
    2    0         2.100000       -14.9965           0.193241           1.317192           5.372934
    2    1         3.500000       -41.6672           0.602363           0.602363           4.056010
    1    0         0.850000        -9.8292           0.624864           0.624864           5.372934
    2    1         3.700000       -46.5653           0.573616           0.573616           3.909951
    2    0         1.200000        -4.5995           0.334977           2.228160           5.505921
    3    2         7.000000       -74.0753           0.680692           0.680692           3.769152
 
 
  O                    hydrogenic:
 
  List of hydrogenic basis orbitals: 
    n    l      effective z      eigenvalue [eV]  inner max. [A]     outer max. [A]     outer radius [A]   
    2    1         1.800000       -11.0118           1.178546           1.178546           5.432516
    3    2         7.600000       -87.3182           0.624117           0.624117           3.541422
    3    0         6.400000       -61.9209           0.061166           1.081887           4.306510
    4    3        11.600000      -114.4238           0.731621           0.731621           3.584982
    3    1         6.200000       -58.1113           0.255677           1.030255           4.306510
    3    2         5.600000       -47.4081           0.847222           0.847222           4.413102
    5    4        17.600000      -168.5799           0.749730           0.749730           3.372413
    1    0         0.750000        -7.6499           0.705275           0.705275           5.366508
 

  Adding cutoff potential to free-atom effective potential.
  Creating atomic-like basis functions for current effective potential.

  Species H                   :

  List of atomic basis orbitals and eigenvalues:
    n    l      energy [Ha]    energy [eV]    outer radius [A]
    1    0        -0.241374        -6.5681       5.372934


  Species O                   :

  List of atomic basis orbitals and eigenvalues:
    n    l      energy [Ha]    energy [eV]    outer radius [A]
    1    0       -18.944147      -515.4965       1.415745
    2    0        -0.883529       -24.0421       5.048305
    2    1        -0.330173        -8.9845       5.301302

  Assembling full basis from fixed parts.
  | Species H :   atomic orbital   1 s accepted.
  | Species H :    hydro orbital   2 s accepted.
  | Species H :    hydro orbital   1 s accepted.
  | Species H :    hydro orbital   2 s accepted.
  | Species H :    hydro orbital   2 p accepted.
  | Species H :    hydro orbital   2 p accepted.
  | Species H :    hydro orbital   3 d accepted.
  | Species O :   atomic orbital   1 s accepted.
  | Species O :    hydro orbital   3 s accepted.
  | Species O :   atomic orbital   2 s accepted.
  | Species O :    hydro orbital   1 s accepted.
  | Species O :    hydro orbital   3 p accepted.
  | Species O :   atomic orbital   2 p accepted.
  | Species O :    hydro orbital   2 p accepted.
  | Species O :    hydro orbital   3 d accepted.
  | Species O :    hydro orbital   3 d accepted.
  | Species O :    hydro orbital   4 f accepted.
  | Species O :    hydro orbital   5 g accepted.
 
  Basis size parameters after reduction:
  | Total number of radial functions:       18
  | Total number of basis functions :      345
 
  Testing on-site integration grid accuracy.
  |  Species  Function  <phi|h_atom|phi> (log., in eV)  <phi|h_atom|phi> (rad., in eV)
           1        1                 -6.5683835025                 -6.5684759159
           1        2                 13.3711789951                 13.3708738703
           1        3                 23.6590910787                 23.6532055418
           1        4                 16.2963827186                 16.1870710655 ***
           1        5                 28.7627214838                 28.7627215090
           1        6                 59.5965249172                 59.5965950857
           1        7                 60.2220506392                 60.2220503827
           2        8               -515.4964576505               -515.4964530710
           2        9                 15.3030791347                 15.3030722972
           2       10                -21.7296094581                -21.7296135470
           2       11                 14.2969371730                 14.2969701621
           2       12                 21.0679693190                 21.0679697493
           2       13                 -2.3833606469                 -2.3833613176
           2       14                 13.7067136422                 13.7066766629
           2       15                 45.8013116808                 45.8013116965
           2       16                 52.2309815402                 52.2309831494
           2       17                 85.4120732416                 85.4120732763
           2       18                142.1019167745                142.1019167817
 * Note: Onsite integrals marked "***" above are less accurate than
 * onsite_accuracy_threshold =    0.03000 eV. Usually, this is harmless.
 * When in doubt, tighten the "radial" and/or "radial_multiplier" flags to check.

  Preparing densities etc. for the partition functions (integrals / Hartree potential).

  Preparations completed.
  max(cpu_time)          :      0.172 s.
  Wall clock time (cpu1) :      0.701 s.
------------------------------------------------------------

------------------------------------------------------------
          Begin self-consistency loop: Initialization.

          Date     :  20150727, Time     :  115940.820
------------------------------------------------------------

  Initializing index lists of integration centers etc. from given atomic structure:
  | Number of centers in hartree potential         :        15
  | Number of centers in hartree multipole         :        15
  | Number of centers in electron density summation:        15
  | Number of centers in basis integrals           :        15
  | Number of centers in integrals                 :        15
  Partitioning the integration grid into batches with parallel hashing+maxmin method.
  | Number of batches:     2122
  | Maximal batch size:     184
  | Minimal batch size:      51
  | Average batch size:      92.700
  | Standard deviation of batch sizes:      29.886

  Integration load balanced across     8 MPI tasks.
  Work distribution over tasks is as follows:
  Task     0 has      24597 integration points.
  Task     1 has      24572 integration points.
  Task     2 has      24530 integration points.
  Task     3 has      24592 integration points.
  Task     4 has      24610 integration points.
  Task     5 has      24536 integration points.
  Task     6 has      24707 integration points.
  Task     7 has      24566 integration points.
  Initializing partition tables, free-atom densities, potentials, etc. across the integration grid (initialize_grid_storage).
  | Net number of integration points:   196710
  | of which are non-zero points    :   196175
  Obtaining max. number of non-zero basis functions in each batch (get_n_compute_maxes).
  | Maximal number of non-zero basis functions:      342 in task     0
  | Maximal number of non-zero basis functions:      342 in task     1
  | Maximal number of non-zero basis functions:      342 in task     2
  | Maximal number of non-zero basis functions:      342 in task     3
  | Maximal number of non-zero basis functions:      342 in task     4
  | Maximal number of non-zero basis functions:      342 in task     5
  | Maximal number of non-zero basis functions:      342 in task     6
  | Maximal number of non-zero basis functions:      342 in task     7
  Integrating Hamiltonian matrix: batch-based integration.
  Time summed over all CPUs for integration: real work        7.780 s, elapsed        8.028 s
  Integrating overlap matrix.
  Time summed over all CPUs for integration: real work        4.199 s, elapsed        4.324 s

  Updating Kohn-Sham eigenvalues, eigenvectors, occupation numbers, and Fermi level.
  Solving generalized eigenproblem
  Updating Kohn-Sham eigenvalues and eigenfunctions.
  Transforming overlap matrix and checking for singularities.
  Overlap matrix is nonsingular:
  | Lowest eigenvalue:  0.285157E-03
  Solving real generalised eigenvalue problem by standard LAPACK (fast)
  Determining occupation numbers for Kohn-Sham eigenstates.
  | Chemical potential (Fermi level) in eV                 : -.32092564E+01
  | Error in electron count due to remaining E_F inaccuracy: 0.00000000E+00
  | Maximum occupation number of highest empty state:  0.00E+00

  Writing Kohn-Sham eigenvalues.

  State    Occupation    Eigenvalue [Ha]    Eigenvalue [eV]
      1       2.00000         -19.057381         -518.57771
      2       2.00000         -19.052098         -518.43398
      3       2.00000         -19.042518         -518.17328
      4       2.00000         -19.035954         -517.99467
      5       2.00000         -19.019704         -517.55248
      6       2.00000          -1.110007          -30.20483
      7       2.00000          -1.100277          -29.94007
      8       2.00000          -1.086594          -29.56772
      9       2.00000          -1.068843          -29.08471
     10       2.00000          -1.042035          -28.35522
     11       2.00000          -0.654507          -17.81003
     12       2.00000          -0.648482          -17.64609
     13       2.00000          -0.609011          -16.57203
     14       2.00000          -0.597468          -16.25793
     15       2.00000          -0.590582          -16.07056
     16       2.00000          -0.523597          -14.24780
     17       2.00000          -0.510703          -13.89695
     18       2.00000          -0.507776          -13.81728
     19       2.00000          -0.491450          -13.37303
     20       2.00000          -0.470461          -12.80190
     21       2.00000          -0.443660          -12.07262
     22       2.00000          -0.440593          -11.98914
     23       2.00000          -0.431819          -11.75040
     24       2.00000          -0.430382          -11.71129
     25       2.00000          -0.402455          -10.95135
     26       0.00000          -0.096984           -2.63906
     27       0.00000          -0.074535           -2.02820
     28       0.00000          -0.060880           -1.65663
     29       0.00000          -0.044227           -1.20349
     30       0.00000          -0.034885           -0.94926
     31       0.00000          -0.017259           -0.46963
     32       0.00000           0.028774            0.78297
     33       0.00000           0.042444            1.15497
     34       0.00000           0.049266            1.34061
     35       0.00000           0.058544            1.59306
     36       0.00000           0.071009            1.93225
     37       0.00000           0.080509            2.19077
     38       0.00000           0.088634            2.41186
     39       0.00000           0.096951            2.63816
     40       0.00000           0.101640            2.76578
     41       0.00000           0.106291            2.89233
     42       0.00000           0.115870            3.15299
     43       0.00000           0.118178            3.21579
     44       0.00000           0.131852            3.58788
     45       0.00000           0.140571            3.82513
     46       0.00000           0.145193            3.95091
     47       0.00000           0.159930            4.35190
     48       0.00000           0.165777            4.51103
     49       0.00000           0.176173            4.79390
     50       0.00000           0.196846            5.35645
     51       0.00000           0.214157            5.82750
     52       0.00000           0.220395            5.99727
     53       0.00000           0.224106            6.09824
     54       0.00000           0.244872            6.66330
     55       0.00000           0.263224            7.16269
     56       0.00000           0.271382            7.38469
     57       0.00000           0.283839            7.72366
     58       0.00000           0.308906            8.40577
     59       0.00000           0.324039            8.81756
     60       0.00000           0.337443            9.18228
     61       0.00000           0.346997            9.44226
     62       0.00000           0.349345            9.50615
     63       0.00000           0.367665           10.00466
     64       0.00000           0.384811           10.47125
     65       0.00000           0.396208           10.78138
     66       0.00000           0.400218           10.89049
     67       0.00000           0.420255           11.43571
     68       0.00000           0.426802           11.61388
     69       0.00000           0.433899           11.80699
     70       0.00000           0.447213           12.16930
     71       0.00000           0.458800           12.48459
     72       0.00000           0.482642           13.13336
     73       0.00000           0.513583           13.97530
     74       0.00000           0.528564           14.38295
     75       0.00000           0.539150           14.67101
     76       0.00000           0.566996           15.42875
     77       0.00000           0.576029           15.67455
     78       0.00000           0.595565           16.20615
     79       0.00000           0.606512           16.50402
     80       0.00000           0.636056           17.30796
     81       0.00000           0.688333           18.73050
     82       0.00000           0.705455           19.19640
     83       0.00000           0.727673           19.80098
     84       0.00000           0.744585           20.26120
     85       0.00000           0.759366           20.66340

  Highest occupied state (VBM) at    -10.95134509 eV
  | Occupation number:      2.00000000

  Lowest unoccupied state (CBM) at    -2.63905591 eV
  | Occupation number:      0.00000000

  Overall HOMO-LUMO gap:      8.31228918 eV.
  Calculating total energy contributions from superposition of free atom densities.

  Total energy components:
  | Sum of eigenvalues            :        -216.73671532 Ha       -5897.70609571 eV
  | XC energy correction          :         -45.56449913 Ha       -1239.87310535 eV
  | XC potential correction       :          58.22574796 Ha        1584.40321566 eV
  | Free-atom electrostatic energy:        -178.99438963 Ha       -4870.68515969 eV
  | Hartree energy correction     :           0.00000000 Ha           0.00000000 eV
  | van der Waals energy corr.    :           0.00000000 Ha           0.00000000 eV
  | Entropy correction            :           0.00000000 Ha           0.00000000 eV
  | ---------------------------
  | Total energy                  :        -383.06985611 Ha      -10423.86114509 eV
  | Total energy, T -> 0          :        -383.06985611 Ha      -10423.86114509 eV  <-- do not rely on this value for anything but (periodic) metals
  | Electronic free energy        :        -383.06985611 Ha      -10423.86114509 eV

  Derived energy quantities:
  | Kinetic energy                :         379.16217687 Ha       10317.52778260 eV
  | Electrostatic energy          :        -716.66753385 Ha      -19501.51582233 eV
  | Energy correction for multipole
  | error in Hartree potential    :           0.00000000 Ha           0.00000000 eV
  | Sum of eigenvalues per atom                           :        -393.18040638 eV
  | Total energy (T->0) per atom                          :        -694.92407634 eV  <-- do not rely on this value for anything but (periodic) metals
  | Electronic free energy per atom                       :        -694.92407634 eV
  Initialize hartree_potential_storage
  Max. number of atoms included in rho_multipole:           15

  End scf initialization - timings             :  max(cpu_time)    wall_clock(cpu1)
  | Time for scf. initialization               :        2.093 s           2.092 s
  | Boundary condition initialization          :        0.000 s           0.000 s
  | Integration                                :        1.548 s           1.547 s
  | Solution of K.-S. eqns.                    :        0.197 s           0.196 s
  | Grid partitioning                          :        0.128 s           0.128 s
  | Preloading free-atom quantities on grid    :        0.013 s           0.013 s
  | Free-atom superposition energy             :        0.066 s           0.066 s
  | Total energy evaluation                    :        0.001 s           0.001 s
------------------------------------------------------------

------------------------------------------------------------
          Begin self-consistency iteration #    1

  Date     :  20150727, Time     :  115942.912
------------------------------------------------------------
  Evaluating new KS density.
  Integration grid: deviation in total charge (<rho> - N_e) =  -3.552714E-14
  Pulay mixing of updated and previous charge densities.

  Evaluating partitioned Hartree potential by multipole expansion.
  | Analytical far-field extrapolation by fixed multipoles:
  | Hartree multipole sum: apparent total charge =  -0.199132E-05
  Summing up the Hartree potential.
  Time summed over all CPUs for potential: real work        2.569 s, elapsed        2.579 s
  | RMS charge density error from multipole expansion :   0.161054E-02

  Integrating Hamiltonian matrix: batch-based integration.
  Time summed over all CPUs for integration: real work        7.755 s, elapsed        8.034 s

  Updating Kohn-Sham eigenvalues, eigenvectors, occupation numbers, and Fermi level.
  Solving generalized eigenproblem
  Updating Kohn-Sham eigenvalues and eigenfunctions.
  Solving real generalised eigenvalue problem by standard LAPACK (fast)
  Determining occupation numbers for Kohn-Sham eigenstates.
  | Chemical potential (Fermi level) in eV                 : -.27197716E+01
  | Error in electron count due to remaining E_F inaccuracy: 0.00000000E+00
  | Maximum occupation number of highest empty state:  0.00E+00

  Writing Kohn-Sham eigenvalues.

  State    Occupation    Eigenvalue [Ha]    Eigenvalue [eV]
      1       2.00000         -18.979471         -516.45768
      2       2.00000         -18.977809         -516.41246
      3       2.00000         -18.969985         -516.19955
      4       2.00000         -18.960786         -515.94923
      5       2.00000         -18.928142         -515.06096
      6       2.00000          -1.072273          -29.17804
      7       2.00000          -1.053827          -28.67610
      8       2.00000          -1.048321          -28.52628
      9       2.00000          -1.039830          -28.29522
     10       2.00000          -0.990288          -26.94710
     11       2.00000          -0.621741          -16.91842
     12       2.00000          -0.606554          -16.50519
     13       2.00000          -0.576846          -15.69678
     14       2.00000          -0.575835          -15.66927
     15       2.00000          -0.548783          -14.93314
     16       2.00000          -0.485543          -13.21230
     17       2.00000          -0.476105          -12.95548
     18       2.00000          -0.466587          -12.69647
     19       2.00000          -0.449665          -12.23600
     20       2.00000          -0.423533          -11.52492
     21       2.00000          -0.405175          -11.02538
     22       2.00000          -0.400911          -10.90933
     23       2.00000          -0.390210          -10.61814
     24       2.00000          -0.385740          -10.49653
     25       2.00000          -0.348141           -9.47339
     26       0.00000          -0.089364           -2.43173
     27       0.00000          -0.063889           -1.73852
     28       0.00000          -0.049546           -1.34822
     29       0.00000          -0.033419           -0.90938
     30       0.00000          -0.027121           -0.73801
     31       0.00000          -0.013817           -0.37598
     32       0.00000           0.040511            1.10236
     33       0.00000           0.051227            1.39395
     34       0.00000           0.061009            1.66013
     35       0.00000           0.065451            1.78103
     36       0.00000           0.079571            2.16525
     37       0.00000           0.090874            2.47280
     38       0.00000           0.100059            2.72275
     39       0.00000           0.101313            2.75686
     40       0.00000           0.111667            3.03861
     41       0.00000           0.117204            3.18928
     42       0.00000           0.127134            3.45949
     43       0.00000           0.131573            3.58029
     44       0.00000           0.144075            3.92049
     45       0.00000           0.159177            4.33143
     46       0.00000           0.162128            4.41174
     47       0.00000           0.170228            4.63213
     48       0.00000           0.182516            4.96651
     49       0.00000           0.189447            5.15510
     50       0.00000           0.209140            5.69099
     51       0.00000           0.223443            6.08020
     52       0.00000           0.234857            6.39077
     53       0.00000           0.236903            6.44645
     54       0.00000           0.257060            6.99497
     55       0.00000           0.273521            7.44288
     56       0.00000           0.281995            7.67346
     57       0.00000           0.293360            7.98273
     58       0.00000           0.317074            8.62802
     59       0.00000           0.335166            9.12034
     60       0.00000           0.351987            9.57804
     61       0.00000           0.355529            9.67444
     62       0.00000           0.358040            9.74276
     63       0.00000           0.378737           10.30595
     64       0.00000           0.396709           10.79500
     65       0.00000           0.408173           11.10696
     66       0.00000           0.412595           11.22728
     67       0.00000           0.432141           11.75915
     68       0.00000           0.435138           11.84071
     69       0.00000           0.444374           12.09204
     70       0.00000           0.457227           12.44178
     71       0.00000           0.465646           12.67088
     72       0.00000           0.496125           13.50024
     73       0.00000           0.526456           14.32559
     74       0.00000           0.543713           14.79520
     75       0.00000           0.551792           15.01503
     76       0.00000           0.582832           15.85968
     77       0.00000           0.589848           16.05058
     78       0.00000           0.608091           16.54699
     79       0.00000           0.620208           16.87673
     80       0.00000           0.651592           17.73072
     81       0.00000           0.705095           19.18660
     82       0.00000           0.721043           19.62059
     83       0.00000           0.742272           20.19826
     84       0.00000           0.756741           20.59198
     85       0.00000           0.774578           21.07735

  Highest occupied state (VBM) at     -9.47339415 eV
  | Occupation number:      2.00000000

  Lowest unoccupied state (CBM) at    -2.43172505 eV
  | Occupation number:      0.00000000

  Overall HOMO-LUMO gap:      7.04166909 eV.

  Total energy components:
  | Sum of eigenvalues            :        -214.36420327 Ha       -5833.14675810 eV
  | XC energy correction          :         -45.80312935 Ha       -1246.36656403 eV
  | XC potential correction       :          58.53781872 Ha        1592.89509311 eV
  | Free-atom electrostatic energy:        -178.99438963 Ha       -4870.68515969 eV
  | Hartree energy correction     :          -2.29821795 Ha         -62.53769217 eV
  | van der Waals energy corr.    :           0.00000000 Ha           0.00000000 eV
  | Entropy correction            :           0.00000000 Ha           0.00000000 eV
  | ---------------------------
  | Total energy                  :        -382.92212147 Ha      -10419.84108087 eV
  | Total energy, T -> 0          :        -382.92212147 Ha      -10419.84108087 eV  <-- do not rely on this value for anything but (periodic) metals
  | Electronic free energy        :        -382.92212147 Ha      -10419.84108087 eV

  Derived energy quantities:
  | Kinetic energy                :         380.58280967 Ha       10356.18516791 eV
  | Electrostatic energy          :        -717.70180179 Ha      -19529.65968475 eV
  | Energy correction for multipole
  | error in Hartree potential    :           0.00008685 Ha           0.00236324 eV
  | Sum of eigenvalues per atom                           :        -388.87645054 eV
  | Total energy (T->0) per atom                          :        -694.65607206 eV  <-- do not rely on this value for anything but (periodic) metals
  | Electronic free energy per atom                       :        -694.65607206 eV

  Self-consistency convergence accuracy:
  | Change of charge density      : 0.6602E+00
  | Change of sum of eigenvalues  : 0.6456E+02 eV
  | Change of total energy        : 0.4020E+01 eV

  End self-consistency iteration #     1       :  max(cpu_time)    wall_clock(cpu1)
  | Time for this iteration                    :        2.073 s           2.072 s
  | Charge density update                      :        0.677 s           0.676 s
  | Density mixing                             :        0.003 s           0.003 s
  | Hartree multipole update                   :        0.006 s           0.006 s
  | Hartree multipole summation                :        0.323 s           0.323 s
  | Integration                                :        1.006 s           1.006 s
  | Solution of K.-S. eqns.                    :        0.054 s           0.054 s
  | Total energy evaluation                    :        0.000 s           0.001 s
------------------------------------------------------------

------------------------------------------------------------
          Begin self-consistency iteration #    2

  Date     :  20150727, Time     :  115944.985
------------------------------------------------------------
  Evaluating new KS density.
  Integration grid: deviation in total charge (<rho> - N_e) =   3.552714E-14
  Pulay mixing of updated and previous charge densities.

  Evaluating partitioned Hartree potential by multipole expansion.
  | Analytical far-field extrapolation by fixed multipoles:
  | Hartree multipole sum: apparent total charge =  -0.572381E-05
  Summing up the Hartree potential.
  Time summed over all CPUs for potential: real work        2.569 s, elapsed        2.578 s
  | RMS charge density error from multipole expansion :   0.641510E-02

  Integrating Hamiltonian matrix: batch-based integration.
  Time summed over all CPUs for integration: real work        7.729 s, elapsed        8.004 s

  Updating Kohn-Sham eigenvalues, eigenvectors, occupation numbers, and Fermi level.
  Solving generalized eigenproblem
  Updating Kohn-Sham eigenvalues and eigenfunctions.
  Solving real generalised eigenvalue problem by standard LAPACK (fast)
  Determining occupation numbers for Kohn-Sham eigenstates.
  | Chemical potential (Fermi level) in eV                 : -.30019853E+01
  | Error in electron count due to remaining E_F inaccuracy: 0.00000000E+00
  | Maximum occupation number of highest empty state:  0.00E+00

  Highest occupied state (VBM) at     -5.96051141 eV
  | Occupation number:      2.00000000

  Lowest unoccupied state (CBM) at    -2.09758403 eV
  | Occupation number:      0.00000000

  Overall HOMO-LUMO gap:      3.86292738 eV.

  Total energy components:
  | Sum of eigenvalues            :        -208.78568736 Ha       -5681.34761696 eV
  | XC energy correction          :         -46.38712056 Ha       -1262.25777332 eV
  | XC potential correction       :          59.30075792 Ha        1613.65572481 eV
  | Free-atom electrostatic energy:        -178.99438963 Ha       -4870.68515969 eV
  | Hartree energy correction     :          -7.88474541 Ha        -214.55483913 eV
  | van der Waals energy corr.    :           0.00000000 Ha           0.00000000 eV
  | Entropy correction            :           0.00000000 Ha           0.00000000 eV
  | ---------------------------
  | Total energy                  :        -382.75118505 Ha      -10415.18966429 eV
  | Total energy, T -> 0          :        -382.75118505 Ha      -10415.18966429 eV  <-- do not rely on this value for anything but (periodic) metals
  | Electronic free energy        :        -382.75118505 Ha      -10415.18966429 eV

  Derived energy quantities:
  | Kinetic energy                :         383.40690248 Ha       10433.03264331 eV
  | Electrostatic energy          :        -719.77096697 Ha      -19585.96453429 eV
  | Energy correction for multipole
  | error in Hartree potential    :          -0.00050827 Ha          -0.01383080 eV
  | Sum of eigenvalues per atom                           :        -378.75650780 eV
  | Total energy (T->0) per atom                          :        -694.34597762 eV  <-- do not rely on this value for anything but (periodic) metals
  | Electronic free energy per atom                       :        -694.34597762 eV

  Self-consistency convergence accuracy:
  | Change of charge density      : 0.4991E+00
  | Change of sum of eigenvalues  : 0.1518E+03 eV
  | Change of total energy        : 0.4651E+01 eV

  End self-consistency iteration #     2       :  max(cpu_time)    wall_clock(cpu1)
  | Time for this iteration                    :        2.063 s           2.061 s
  | Charge density update                      :        0.671 s           0.670 s
  | Density mixing                             :        0.006 s           0.006 s
  | Hartree multipole update                   :        0.005 s           0.005 s
  | Hartree multipole summation                :        0.323 s           0.323 s
  | Integration                                :        1.003 s           1.002 s
  | Solution of K.-S. eqns.                    :        0.053 s           0.054 s
  | Total energy evaluation                    :        0.000 s           0.001 s
------------------------------------------------------------

------------------------------------------------------------
          Begin self-consistency iteration #    3

  Date     :  20150727, Time     :  115947.048
------------------------------------------------------------
  Evaluating new KS density.
  Integration grid: deviation in total charge (<rho> - N_e) =   1.421085E-14
  Pulay mixing of updated and previous charge densities.

  Evaluating partitioned Hartree potential by multipole expansion.
  | Analytical far-field extrapolation by fixed multipoles:
  | Hartree multipole sum: apparent total charge =  -0.557221E-05
  Summing up the Hartree potential.
  Time summed over all CPUs for potential: real work        2.568 s, elapsed        2.578 s
  | RMS charge density error from multipole expansion :   0.129129E-01

  Integrating Hamiltonian matrix: batch-based integration.
  Time summed over all CPUs for integration: real work        7.741 s, elapsed        8.019 s

  Updating Kohn-Sham eigenvalues, eigenvectors, occupation numbers, and Fermi level.
  Solving generalized eigenproblem
  Updating Kohn-Sham eigenvalues and eigenfunctions.
  Solving real generalised eigenvalue problem by standard LAPACK (fast)
  Determining occupation numbers for Kohn-Sham eigenstates.
  | Chemical potential (Fermi level) in eV                 : -.29154030E+01
  | Error in electron count due to remaining E_F inaccuracy: 0.00000000E+00
  | Maximum occupation number of highest empty state:  0.00E+00

  Highest occupied state (VBM) at     -5.79033355 eV
  | Occupation number:      2.00000000

  Lowest unoccupied state (CBM) at    -2.16543321 eV
  | Occupation number:      0.00000000

  Overall HOMO-LUMO gap:      3.62490034 eV.

  Total energy components:
  | Sum of eigenvalues            :        -209.00189261 Ha       -5687.23086098 eV
  | XC energy correction          :         -46.35706998 Ha       -1261.44005559 eV
  | XC potential correction       :          59.25598205 Ha        1612.43731148 eV
  | Free-atom electrostatic energy:        -178.99438963 Ha       -4870.68515969 eV
  | Hartree energy correction     :          -7.64857507 Ha        -208.12831709 eV
  | van der Waals energy corr.    :           0.00000000 Ha           0.00000000 eV
  | Entropy correction            :           0.00000000 Ha           0.00000000 eV
  | ---------------------------
  | Total energy                  :        -382.74594524 Ha      -10415.04708187 eV
  | Total energy, T -> 0          :        -382.74594524 Ha      -10415.04708187 eV  <-- do not rely on this value for anything but (periodic) metals
  | Electronic free energy        :        -382.74594524 Ha      -10415.04708187 eV

  Derived energy quantities:
  | Kinetic energy                :         381.37989623 Ha       10377.87499683 eV
  | Electrostatic energy          :        -717.76877149 Ha      -19531.48202311 eV
  | Energy correction for multipole
  | error in Hartree potential    :          -0.00478733 Ha          -0.13026996 eV
  | Sum of eigenvalues per atom                           :        -379.14872407 eV
  | Total energy (T->0) per atom                          :        -694.33647212 eV  <-- do not rely on this value for anything but (periodic) metals
  | Electronic free energy per atom                       :        -694.33647212 eV

  Self-consistency convergence accuracy:
  | Change of charge density      : 0.2527E+00
  | Change of sum of eigenvalues  : -.5883E+01 eV
  | Change of total energy        : 0.1426E+00 eV

  End self-consistency iteration #     3       :  max(cpu_time)    wall_clock(cpu1)
  | Time for this iteration                    :        2.062 s           2.061 s
  | Charge density update                      :        0.667 s           0.667 s
  | Density mixing                             :        0.007 s           0.006 s
  | Hartree multipole update                   :        0.005 s           0.005 s
  | Hartree multipole summation                :        0.323 s           0.324 s
  | Integration                                :        1.004 s           1.004 s
  | Solution of K.-S. eqns.                    :        0.053 s           0.054 s
  | Total energy evaluation                    :        0.000 s           0.001 s
------------------------------------------------------------

------------------------------------------------------------
          Begin self-consistency iteration #    4

  Date     :  20150727, Time     :  115949.110
------------------------------------------------------------
  Evaluating new KS density.
  Integration grid: deviation in total charge (<rho> - N_e) =   7.105427E-15
  Pulay mixing of updated and previous charge densities.

  Evaluating partitioned Hartree potential by multipole expansion.
  | Analytical far-field extrapolation by fixed multipoles:
  | Hartree multipole sum: apparent total charge =  -0.673918E-05
  Summing up the Hartree potential.
  Time summed over all CPUs for potential: real work        2.567 s, elapsed        2.578 s
  | RMS charge density error from multipole expansion :   0.168694E-01

  Integrating Hamiltonian matrix: batch-based integration.
  Time summed over all CPUs for integration: real work        7.730 s, elapsed        8.015 s

  Updating Kohn-Sham eigenvalues, eigenvectors, occupation numbers, and Fermi level.
  Solving generalized eigenproblem
  Updating Kohn-Sham eigenvalues and eigenfunctions.
  Solving real generalised eigenvalue problem by standard LAPACK (fast)
  Determining occupation numbers for Kohn-Sham eigenstates.
  | Chemical potential (Fermi level) in eV                 : -.25098910E+01
  | Error in electron count due to remaining E_F inaccuracy: 0.00000000E+00
  | Maximum occupation number of highest empty state:  0.00E+00

  Highest occupied state (VBM) at     -4.50192232 eV
  | Occupation number:      2.00000000

  Lowest unoccupied state (CBM) at    -2.08860813 eV
  | Occupation number:      0.00000000

  Overall HOMO-LUMO gap:      2.41331419 eV.

  Total energy components:
  | Sum of eigenvalues            :        -207.20963277 Ha       -5638.46098929 eV
  | XC energy correction          :         -46.56249126 Ha       -1267.02985305 eV
  | XC potential correction       :          59.52294874 Ha        1619.70184482 eV
  | Free-atom electrostatic energy:        -178.99438963 Ha       -4870.68515969 eV
  | Hartree energy correction     :          -9.48991467 Ha        -258.23371705 eV
  | van der Waals energy corr.    :           0.00000000 Ha           0.00000000 eV
  | Entropy correction            :           0.00000000 Ha           0.00000000 eV
  | ---------------------------
  | Total energy                  :        -382.73347959 Ha      -10414.70787425 eV
  | Total energy, T -> 0          :        -382.73347959 Ha      -10414.70787425 eV  <-- do not rely on this value for anything but (periodic) metals
  | Electronic free energy        :        -382.73347959 Ha      -10414.70787425 eV

  Derived energy quantities:
  | Kinetic energy                :         381.57239146 Ha       10383.11305862 eV
  | Electrostatic energy          :        -717.74337979 Ha      -19530.79107982 eV
  | Energy correction for multipole
  | error in Hartree potential    :          -0.00661549 Ha          -0.18001653 eV
  | Sum of eigenvalues per atom                           :        -375.89739929 eV
  | Total energy (T->0) per atom                          :        -694.31385828 eV  <-- do not rely on this value for anything but (periodic) metals
  | Electronic free energy per atom                       :        -694.31385828 eV

  Self-consistency convergence accuracy:
  | Change of charge density      : 0.1413E+00
  | Change of sum of eigenvalues  : 0.4877E+02 eV
  | Change of total energy        : 0.3392E+00 eV

  End self-consistency iteration #     4       :  max(cpu_time)    wall_clock(cpu1)
  | Time for this iteration                    :        2.062 s           2.061 s
  | Charge density update                      :        0.666 s           0.666 s
  | Density mixing                             :        0.008 s           0.008 s
  | Hartree multipole update                   :        0.005 s           0.005 s
  | Hartree multipole summation                :        0.323 s           0.323 s
  | Integration                                :        1.004 s           1.003 s
  | Solution of K.-S. eqns.                    :        0.054 s           0.054 s
  | Total energy evaluation                    :        0.001 s           0.001 s
------------------------------------------------------------

------------------------------------------------------------
          Begin self-consistency iteration #    5

  Date     :  20150727, Time     :  115951.171
------------------------------------------------------------
  Evaluating new KS density.
  Integration grid: deviation in total charge (<rho> - N_e) =   2.842171E-14
  Pulay mixing of updated and previous charge densities.

  Evaluating partitioned Hartree potential by multipole expansion.
  | Analytical far-field extrapolation by fixed multipoles:
  | Hartree multipole sum: apparent total charge =  -0.671992E-05
  Summing up the Hartree potential.
  Time summed over all CPUs for potential: real work        2.567 s, elapsed        2.577 s
  | RMS charge density error from multipole expansion :   0.174199E-01

  Integrating Hamiltonian matrix: batch-based integration.
  Time summed over all CPUs for integration: real work        7.728 s, elapsed        8.012 s

  Updating Kohn-Sham eigenvalues, eigenvectors, occupation numbers, and Fermi level.
  Solving generalized eigenproblem
  Updating Kohn-Sham eigenvalues and eigenfunctions.
  Solving real generalised eigenvalue problem by standard LAPACK (fast)
  Determining occupation numbers for Kohn-Sham eigenstates.
  | Chemical potential (Fermi level) in eV                 : -.24975914E+01
  | Error in electron count due to remaining E_F inaccuracy: 0.00000000E+00
  | Maximum occupation number of highest empty state:  0.00E+00

  Highest occupied state (VBM) at     -4.30228655 eV
  | Occupation number:      2.00000000

  Lowest unoccupied state (CBM) at    -2.07137005 eV
  | Occupation number:      0.00000000

  Overall HOMO-LUMO gap:      2.23091650 eV.

  Total energy components:
  | Sum of eigenvalues            :        -207.13842742 Ha       -5636.52339327 eV
  | XC energy correction          :         -46.57498849 Ha       -1267.36991986 eV
  | XC potential correction       :          59.53867637 Ha        1620.12981527 eV
  | Free-atom electrostatic energy:        -178.99438963 Ha       -4870.68515969 eV
  | Hartree energy correction     :          -9.56407662 Ha        -260.25176628 eV
  | van der Waals energy corr.    :           0.00000000 Ha           0.00000000 eV
  | Entropy correction            :           0.00000000 Ha           0.00000000 eV
  | ---------------------------
  | Total energy                  :        -382.73320580 Ha      -10414.70042382 eV
  | Total energy, T -> 0          :        -382.73320580 Ha      -10414.70042382 eV  <-- do not rely on this value for anything but (periodic) metals
  | Electronic free energy        :        -382.73320580 Ha      -10414.70042382 eV

  Derived energy quantities:
  | Kinetic energy                :         381.59531598 Ha       10383.73686645 eV
  | Electrostatic energy          :        -717.75353328 Ha      -19531.06737041 eV
  | Energy correction for multipole
  | error in Hartree potential    :          -0.00681613 Ha          -0.18547638 eV
  | Sum of eigenvalues per atom                           :        -375.76822622 eV
  | Total energy (T->0) per atom                          :        -694.31336159 eV  <-- do not rely on this value for anything but (periodic) metals
  | Electronic free energy per atom                       :        -694.31336159 eV

  Self-consistency convergence accuracy:
  | Change of charge density      : 0.3267E-01
  | Change of sum of eigenvalues  : 0.1938E+01 eV
  | Change of total energy        : 0.7450E-02 eV

  End self-consistency iteration #     5       :  max(cpu_time)    wall_clock(cpu1)
  | Time for this iteration                    :        2.064 s           2.063 s
  | Charge density update                      :        0.668 s           0.666 s
  | Density mixing                             :        0.009 s           0.010 s
  | Hartree multipole update                   :        0.005 s           0.005 s
  | Hartree multipole summation                :        0.323 s           0.323 s
  | Integration                                :        1.004 s           1.003 s
  | Solution of K.-S. eqns.                    :        0.054 s           0.054 s
  | Total energy evaluation                    :        0.000 s           0.000 s
------------------------------------------------------------

------------------------------------------------------------
          Begin self-consistency iteration #    6

  Date     :  20150727, Time     :  115953.235
------------------------------------------------------------
  Evaluating new KS density.
  Integration grid: deviation in total charge (<rho> - N_e) =   2.131628E-14
  Pulay mixing of updated and previous charge densities.

  Evaluating partitioned Hartree potential by multipole expansion.
  | Analytical far-field extrapolation by fixed multipoles:
  | Hartree multipole sum: apparent total charge =  -0.673880E-05
  Summing up the Hartree potential.
  Time summed over all CPUs for potential: real work        2.583 s, elapsed        2.640 s
  | RMS charge density error from multipole expansion :   0.176457E-01

  Integrating Hamiltonian matrix: batch-based integration.
  Time summed over all CPUs for integration: real work        7.792 s, elapsed        8.167 s

  Updating Kohn-Sham eigenvalues, eigenvectors, occupation numbers, and Fermi level.
  Solving generalized eigenproblem
  Updating Kohn-Sham eigenvalues and eigenfunctions.
  Solving real generalised eigenvalue problem by standard LAPACK (fast)
  Determining occupation numbers for Kohn-Sham eigenstates.
  | Chemical potential (Fermi level) in eV                 : -.24868461E+01
  | Error in electron count due to remaining E_F inaccuracy: 0.00000000E+00
  | Maximum occupation number of highest empty state:  0.00E+00

  Highest occupied state (VBM) at     -4.27203334 eV
  | Occupation number:      2.00000000

  Lowest unoccupied state (CBM) at    -2.06632048 eV
  | Occupation number:      0.00000000

  Overall HOMO-LUMO gap:      2.20571286 eV.

  Total energy components:
  | Sum of eigenvalues            :        -207.08717050 Ha       -5635.12862138 eV
  | XC energy correction          :         -46.58205330 Ha       -1267.56216326 eV
  | XC potential correction       :          59.54772849 Ha        1620.37613615 eV
  | Free-atom electrostatic energy:        -178.99438963 Ha       -4870.68515969 eV
  | Hartree energy correction     :          -9.61738405 Ha        -261.70233527 eV
  | van der Waals energy corr.    :           0.00000000 Ha           0.00000000 eV
  | Entropy correction            :           0.00000000 Ha           0.00000000 eV
  | ---------------------------
  | Total energy                  :        -382.73326899 Ha      -10414.70214345 eV
  | Total energy, T -> 0          :        -382.73326899 Ha      -10414.70214345 eV  <-- do not rely on this value for anything but (periodic) metals
  | Electronic free energy        :        -382.73326899 Ha      -10414.70214345 eV

  Derived energy quantities:
  | Kinetic energy                :         381.60011236 Ha       10383.86738256 eV
  | Electrostatic energy          :        -717.75132804 Ha      -19531.00736275 eV
  | Energy correction for multipole
  | error in Hartree potential    :          -0.00691157 Ha          -0.18807325 eV
  | Sum of eigenvalues per atom                           :        -375.67524143 eV
  | Total energy (T->0) per atom                          :        -694.31347623 eV  <-- do not rely on this value for anything but (periodic) metals
  | Electronic free energy per atom                       :        -694.31347623 eV

  Self-consistency convergence accuracy:
  | Change of charge density      : 0.1084E-01
  | Change of sum of eigenvalues  : 0.1395E+01 eV
  | Change of total energy        : -.1720E-02 eV

  End self-consistency iteration #     6       :  max(cpu_time)    wall_clock(cpu1)
  | Time for this iteration                    :        2.109 s           2.108 s
  | Charge density update                      :        0.683 s           0.683 s
  | Density mixing                             :        0.011 s           0.011 s
  | Hartree multipole update                   :        0.005 s           0.005 s
  | Hartree multipole summation                :        0.331 s           0.331 s
  | Integration                                :        1.023 s           1.023 s
  | Solution of K.-S. eqns.                    :        0.054 s           0.054 s
  | Total energy evaluation                    :        0.000 s           0.001 s
------------------------------------------------------------

------------------------------------------------------------
          Begin self-consistency iteration #    7

  Date     :  20150727, Time     :  115955.344
------------------------------------------------------------
  Evaluating new KS density.
  Integration grid: deviation in total charge (<rho> - N_e) =   7.105427E-15
  Pulay mixing of updated and previous charge densities.

  Evaluating partitioned Hartree potential by multipole expansion.
  | Analytical far-field extrapolation by fixed multipoles:
  | Hartree multipole sum: apparent total charge =  -0.651133E-05
  Summing up the Hartree potential.
  Time summed over all CPUs for potential: real work        2.568 s, elapsed        2.578 s
  | RMS charge density error from multipole expansion :   0.176692E-01

  Integrating Hamiltonian matrix: batch-based integration.
  Time summed over all CPUs for integration: real work        7.727 s, elapsed        7.958 s

  Updating Kohn-Sham eigenvalues, eigenvectors, occupation numbers, and Fermi level.
  Solving generalized eigenproblem
  Updating Kohn-Sham eigenvalues and eigenfunctions.
  Solving real generalised eigenvalue problem by standard LAPACK (fast)
  Determining occupation numbers for Kohn-Sham eigenstates.
  | Chemical potential (Fermi level) in eV                 : -.25207337E+01
  | Error in electron count due to remaining E_F inaccuracy: 0.00000000E+00
  | Maximum occupation number of highest empty state:  0.00E+00

  Highest occupied state (VBM) at     -4.42673767 eV
  | Occupation number:      2.00000000

  Lowest unoccupied state (CBM) at    -2.07041807 eV
  | Occupation number:      0.00000000

  Overall HOMO-LUMO gap:      2.35631960 eV.

  Total energy components:
  | Sum of eigenvalues            :        -207.24320685 Ha       -5639.37458673 eV
  | XC energy correction          :         -46.56855661 Ha       -1267.19489955 eV
  | XC potential correction       :          59.52950707 Ha        1619.88030608 eV
  | Free-atom electrostatic energy:        -178.99438963 Ha       -4870.68515969 eV
  | Hartree energy correction     :          -9.45652064 Ha        -257.32501928 eV
  | van der Waals energy corr.    :           0.00000000 Ha           0.00000000 eV
  | Entropy correction            :           0.00000000 Ha           0.00000000 eV
  | ---------------------------
  | Total energy                  :        -382.73316667 Ha      -10414.69935917 eV
  | Total energy, T -> 0          :        -382.73316667 Ha      -10414.69935917 eV  <-- do not rely on this value for anything but (periodic) metals
  | Electronic free energy        :        -382.73316667 Ha      -10414.69935917 eV

  Derived energy quantities:
  | Kinetic energy                :         381.66452187 Ha       10385.62005450 eV
  | Electrostatic energy          :        -717.82913193 Ha      -19533.12451412 eV
  | Energy correction for multipole
  | error in Hartree potential    :          -0.00680759 Ha          -0.18524387 eV
  | Sum of eigenvalues per atom                           :        -375.95830578 eV
  | Total energy (T->0) per atom                          :        -694.31329061 eV  <-- do not rely on this value for anything but (periodic) metals
  | Electronic free energy per atom                       :        -694.31329061 eV

  Self-consistency convergence accuracy:
  | Change of charge density      : 0.1060E-01
  | Change of sum of eigenvalues  : -.4246E+01 eV
  | Change of total energy        : 0.2784E-02 eV

  End self-consistency iteration #     7       :  max(cpu_time)    wall_clock(cpu1)
  | Time for this iteration                    :        2.059 s           2.058 s
  | Charge density update                      :        0.666 s           0.665 s
  | Density mixing                             :        0.013 s           0.013 s
  | Hartree multipole update                   :        0.004 s           0.005 s
  | Hartree multipole summation                :        0.323 s           0.323 s
  | Integration                                :        0.996 s           0.996 s
  | Solution of K.-S. eqns.                    :        0.054 s           0.054 s
  | Total energy evaluation                    :        0.000 s           0.000 s
------------------------------------------------------------

------------------------------------------------------------
          Begin self-consistency iteration #    8

  Date     :  20150727, Time     :  115957.402
------------------------------------------------------------
  Evaluating new KS density.
  Integration grid: deviation in total charge (<rho> - N_e) =   0.000000E+00
  Pulay mixing of updated and previous charge densities.

  Evaluating partitioned Hartree potential by multipole expansion.
  | Analytical far-field extrapolation by fixed multipoles:
  | Hartree multipole sum: apparent total charge =  -0.651959E-05
  Summing up the Hartree potential.
  Time summed over all CPUs for potential: real work        2.568 s, elapsed        2.578 s
  | RMS charge density error from multipole expansion :   0.177127E-01

  Integrating Hamiltonian matrix: batch-based integration.
  Time summed over all CPUs for integration: real work        7.729 s, elapsed        8.021 s

  Updating Kohn-Sham eigenvalues, eigenvectors, occupation numbers, and Fermi level.
  Solving generalized eigenproblem
  Updating Kohn-Sham eigenvalues and eigenfunctions.
  Solving real generalised eigenvalue problem by standard LAPACK (fast)
  Determining occupation numbers for Kohn-Sham eigenstates.
  | Chemical potential (Fermi level) in eV                 : -.25183269E+01
  | Error in electron count due to remaining E_F inaccuracy: 0.00000000E+00
  | Maximum occupation number of highest empty state:  0.00E+00

  Highest occupied state (VBM) at     -4.40414594 eV
  | Occupation number:      2.00000000

  Lowest unoccupied state (CBM) at    -2.07072179 eV
  | Occupation number:      0.00000000

  Overall HOMO-LUMO gap:      2.33342415 eV.

  Total energy components:
  | Sum of eigenvalues            :        -207.22731225 Ha       -5638.94207250 eV
  | XC energy correction          :         -46.57015139 Ha       -1267.23829565 eV
  | XC potential correction       :          59.53157176 Ha        1619.93648918 eV
  | Free-atom electrostatic energy:        -178.99438963 Ha       -4870.68515969 eV
  | Hartree energy correction     :          -9.47288411 Ha        -257.77029188 eV
  | van der Waals energy corr.    :           0.00000000 Ha           0.00000000 eV
  | Entropy correction            :           0.00000000 Ha           0.00000000 eV
  | ---------------------------
  | Total energy                  :        -382.73316562 Ha      -10414.69933054 eV
  | Total energy, T -> 0          :        -382.73316562 Ha      -10414.69933054 eV  <-- do not rely on this value for anything but (periodic) metals
  | Electronic free energy        :        -382.73316562 Ha      -10414.69933054 eV

  Derived energy quantities:
  | Kinetic energy                :         381.66545787 Ha       10385.64552449 eV
  | Electrostatic energy          :        -717.82847210 Ha      -19533.10655938 eV
  | Energy correction for multipole
  | error in Hartree potential    :          -0.00684055 Ha          -0.18614092 eV
  | Sum of eigenvalues per atom                           :        -375.92947150 eV
  | Total energy (T->0) per atom                          :        -694.31328870 eV  <-- do not rely on this value for anything but (periodic) metals
  | Electronic free energy per atom                       :        -694.31328870 eV

  Self-consistency convergence accuracy:
  | Change of charge density      : 0.2195E-02
  | Change of sum of eigenvalues  : 0.4325E+00 eV
  | Change of total energy        : 0.2863E-04 eV

  End self-consistency iteration #     8       :  max(cpu_time)    wall_clock(cpu1)
  | Time for this iteration                    :        2.067 s           2.067 s
  | Charge density update                      :        0.666 s           0.666 s
  | Density mixing                             :        0.014 s           0.014 s
  | Hartree multipole update                   :        0.005 s           0.005 s
  | Hartree multipole summation                :        0.323 s           0.323 s
  | Integration                                :        1.005 s           1.004 s
  | Solution of K.-S. eqns.                    :        0.053 s           0.054 s
  | Total energy evaluation                    :        0.000 s           0.001 s
------------------------------------------------------------

------------------------------------------------------------
          Begin self-consistency iteration #    9

  Date     :  20150727, Time     :  115959.470
------------------------------------------------------------
  Evaluating new KS density.
  Integration grid: deviation in total charge (<rho> - N_e) =   7.105427E-15
  Pulay mixing of updated and previous charge densities.

  Evaluating partitioned Hartree potential by multipole expansion.
  | Analytical far-field extrapolation by fixed multipoles:
  | Hartree multipole sum: apparent total charge =  -0.651931E-05
  Summing up the Hartree potential.
  Time summed over all CPUs for potential: real work        2.569 s, elapsed        2.579 s
  | RMS charge density error from multipole expansion :   0.177227E-01

  Integrating Hamiltonian matrix: batch-based integration.
  Time summed over all CPUs for integration: real work        7.767 s, elapsed        8.047 s

  Updating Kohn-Sham eigenvalues, eigenvectors, occupation numbers, and Fermi level.
  Solving generalized eigenproblem
  Updating Kohn-Sham eigenvalues and eigenfunctions.
  Solving real generalised eigenvalue problem by standard LAPACK (fast)
  Determining occupation numbers for Kohn-Sham eigenstates.
  | Chemical potential (Fermi level) in eV                 : -.25177098E+01
  | Error in electron count due to remaining E_F inaccuracy: 0.00000000E+00
  | Maximum occupation number of highest empty state:  0.00E+00

  Highest occupied state (VBM) at     -4.40420922 eV
  | Occupation number:      2.00000000

  Lowest unoccupied state (CBM) at    -2.07123142 eV
  | Occupation number:      0.00000000

  Overall HOMO-LUMO gap:      2.33297780 eV.

  Total energy components:
  | Sum of eigenvalues            :        -207.22303481 Ha       -5638.82567754 eV
  | XC energy correction          :         -46.57051531 Ha       -1267.24819857 eV
  | XC potential correction       :          59.53203855 Ha        1619.94919092 eV
  | Free-atom electrostatic energy:        -178.99438963 Ha       -4870.68515969 eV
  | Hartree energy correction     :          -9.47726399 Ha        -257.88947458 eV
  | van der Waals energy corr.    :           0.00000000 Ha           0.00000000 eV
  | Entropy correction            :           0.00000000 Ha           0.00000000 eV
  | ---------------------------
  | Total energy                  :        -382.73316521 Ha      -10414.69931945 eV
  | Total energy, T -> 0          :        -382.73316521 Ha      -10414.69931945 eV  <-- do not rely on this value for anything but (periodic) metals
  | Electronic free energy        :        -382.73316521 Ha      -10414.69931945 eV

  Derived energy quantities:
  | Kinetic energy                :         381.66797300 Ha       10385.71396474 eV
  | Electrostatic energy          :        -717.83062290 Ha      -19533.16508563 eV
  | Energy correction for multipole
[...]
   ----------------------------------------------------------------
   Total forces(   4)            : -.669276E+00 -.186121E+01 -.426129E+00
  atom #    5
   Hellmann-Feynman + Multipole  : -.338260E+00 0.516369E+00 0.823143E+00
   Pulay + GGA                   : 0.519844E-02 0.377509E-01 0.882182E-01
   Van der Waals               : 0.140447E-02 -.156071E-02 -.240438E-02
   ----------------------------------------------------------------
   Total forces(   5)            : -.331657E+00 0.552559E+00 0.908956E+00
  atom #    6
   Hellmann-Feynman + Multipole  : 0.726404E+00 0.732457E+00 0.133965E+00
   Pulay + GGA                   : -.104157E+00 -.437257E-01 0.683367E-01
   Van der Waals               : 0.278397E-02 0.437426E-02 0.423374E-03
   ----------------------------------------------------------------
   Total forces(   6)            : 0.625030E+00 0.693106E+00 0.202725E+00
  atom #    7
   Hellmann-Feynman + Multipole  : -.575806E+01 0.128547E+01 -.966989E+01
   Pulay + GGA                   : 0.870704E+01 -.153567E+01 0.107425E+02
   Van der Waals               : 0.177306E-02 -.548111E-03 0.463097E-02
   ----------------------------------------------------------------
   Total forces(   7)            : 0.295075E+01 -.250746E+00 0.107720E+01
  atom #    8
   Hellmann-Feynman + Multipole  : -.367255E+00 -.373580E+00 -.798010E+00
   Pulay + GGA                   : 0.514632E-01 0.451572E-01 0.713190E-01
   Van der Waals               : -.195660E-02 -.891179E-03 0.218802E-02
   ----------------------------------------------------------------
   Total forces(   8)            : -.317748E+00 -.329314E+00 -.724503E+00
  atom #    9
   Hellmann-Feynman + Multipole  : -.174973E+01 0.100744E+01 -.389103E+00
   Pulay + GGA                   : 0.121793E+00 -.522401E-01 0.225701E-01
   Van der Waals               : -.310159E-02 0.299653E-02 0.282293E-02
   ----------------------------------------------------------------
   Total forces(   9)            : -.163104E+01 0.958196E+00 -.363709E+00
  atom #   10
   Hellmann-Feynman + Multipole  : 0.484780E+01 -.659130E+01 -.794664E+01
   Pulay + GGA                   : -.635783E+01 0.846551E+01 0.100753E+02
   Van der Waals               : 0.161791E-02 -.167733E-02 -.487592E-02
   ----------------------------------------------------------------
   Total forces(  10)            : -.150841E+01 0.187254E+01 0.212382E+01
  atom #   11
   Hellmann-Feynman + Multipole  : -.393589E+00 0.272675E+00 -.219325E+01
   Pulay + GGA                   : 0.147572E-01 0.851166E-02 0.123762E+00
   Van der Waals               : 0.366649E-03 -.104279E-02 -.226542E-02
   ----------------------------------------------------------------
   Total forces(  11)            : -.378465E+00 0.280144E+00 -.207175E+01
  atom #   12
   Hellmann-Feynman + Multipole  : 0.179396E+01 -.189266E+01 0.525870E+00
   Pulay + GGA                   : -.853486E-01 0.944269E-01 -.106033E-01
   Van der Waals               : -.731941E-03 -.141691E-02 -.114449E-02
   ----------------------------------------------------------------
   Total forces(  12)            : 0.170788E+01 -.179965E+01 0.514123E+00
  atom #   13
   Hellmann-Feynman + Multipole  : -.293990E+01 -.114869E+01 -.145113E+02
   Pulay + GGA                   : 0.444243E+01 0.185312E+01 0.126164E+02
   Van der Waals               : -.409886E-02 -.603755E-02 -.698503E-03
   ----------------------------------------------------------------
   Total forces(  13)            : 0.149842E+01 0.698397E+00 -.189563E+01
  atom #   14
   Hellmann-Feynman + Multipole  : -.462532E+00 -.257087E+00 0.162484E+00
   Pulay + GGA                   : 0.843967E-01 0.688780E-01 0.597232E-01
   Van der Waals               : -.392206E-02 -.335092E-02 0.400108E-03
   ----------------------------------------------------------------
   Total forces(  14)            : -.382057E+00 -.191560E+00 0.222608E+00
  atom #   15
   Hellmann-Feynman + Multipole  : -.632481E+00 -.365258E+00 0.139324E+01
   Pulay + GGA                   : -.406245E-01 -.701274E-02 0.686802E-01
   Van der Waals               : 0.129725E-02 -.226357E-02 -.624280E-02
   ----------------------------------------------------------------
   Total forces(  15)            : -.671809E+00 -.374534E+00 0.145567E+01
  Timings for vdw_correction_hirshfeld (Tkatchenko-Scheffler 2009):
  | CPU time:        5.522 s, Wall clock time:        5.524 s.
  Removing unitary transformations (pure translations, rotations) from forces on atoms.
  Atomic forces before filtering:
  | Net force on center of mass :  0.230221E-02 -.844730E-03 0.725816E-02 eV/A
  | Net torque on center of mass:  0.141769E-01 0.131848E-02 -.106377E-03 eV
  Atomic forces after filtering:
  | Net force on center of mass :  0.267609E-15 -.401414E-15 -.713624E-15 eV/A
  | Net torque on center of mass:  -.146333E-14 -.283225E-14 -.566451E-15 eV
 
  Energy and forces in a compact form:
  | Total energy uncorrected      :         -0.104147735932806E+05 eV
  | Total energy corrected        :         -0.104147735932806E+05 eV  <-- do not rely on this value for anything but (periodic) metals
  | Electronic free energy        :         -0.104147735932806E+05 eV
  Total atomic forces (unitary forces cleaned) [eV/Ang]:
  |   1         -0.165465088254025E+01          0.349162738455680E+01         -0.219365816213271E+01
  |   2          0.223820546718576E+01         -0.353573101617942E+01          0.144372946702016E+01
  |   3         -0.147291839677512E+01         -0.206111352648105E+00         -0.267132287186532E+00
  |   4         -0.669386964538476E+00         -0.186106452129122E+01         -0.426292963461040E+00
  |   5         -0.331832170174077E+00          0.552859059617351E+00          0.908617698776658E+00
  |   6          0.624927417645751E+00          0.693285207593065E+00          0.202639879936942E+00
  |   7          0.295071269600420E+01         -0.251084960280666E+00          0.107689490163458E+01
  |   8         -0.317859386533843E+00         -0.329449300610841E+00         -0.724963307352670E+00
  |   9         -0.163105900341527E+01          0.957929104093219E+00         -0.363820147119195E+00
  |  10         -0.150869798155468E+01          0.187304152049724E+01          0.212310678518127E+01
  |  11         -0.378798251956192E+00          0.280909914041730E+00         -0.207243677793390E+01
  |  12          0.170757073098467E+01         -0.179922569226716E+01          0.513190734562534E+00
  |  13          0.149818834128746E+01          0.698542603600666E+00         -0.189645344882616E+01
  |  14         -0.382335038354795E+00         -0.191292512579847E+00          0.221685294279253E+00
  |  15         -0.672066577265136E+00         -0.374235438142819E+00          0.145489233262081E+01
 
  ------------------------------------ 
  Start decomposition of the XC Energy 
  ------------------------------------ 
  Hartree-Fock part   :          0.000000000 Ha              0.000000000 eV
  ------------------------------------ 
  X Energy            :        -44.931446880 Ha          -1222.646877199 eV
  C Energy GGA        :         -1.638593074 Ha            -44.588386174 eV
  Total XC Energy     :        -46.570039954 Ha          -1267.235263373 eV
  LDA X and C from self-consistent density 
  X Energy LDA        :        -40.500557983 Ha          -1102.076255746 eV
  C Energy LDA        :         -3.299851286 Ha            -89.793522145 eV
  ------------------------------------ 
  End decomposition of the XC Energy 
  ------------------------------------ 
  Performing Hirshfeld analysis of fragment charges and moments.
  ----------------------------------------------------------------------
  | Atom     1: O
  |   Hirshfeld charge        :     -0.33700357
  |   Free atom volume        :     23.95238533
  |   Hirshfeld volume        :     23.64897080
  |   Hirshfeld dipole vector :      0.03578194       0.04937851       0.02750571
  |   Hirshfeld dipole moment :      0.06689655
  |   Hirshfeld second moments:      0.00707649      -0.02976180       0.01786581
  |                                 -0.02976180      -0.03161374      -0.03732011
  |                                  0.01786581      -0.03732011      -0.07195059
  ----------------------------------------------------------------------
  | Atom     2: H
  |   Hirshfeld charge        :      0.10508949
  |   Free atom volume        :     10.44207651
  |   Hirshfeld volume        :      7.48816223
  |   Hirshfeld dipole vector :     -0.05635107       0.09257030      -0.02976640
  |   Hirshfeld dipole moment :      0.11238658
  |   Hirshfeld second moments:      0.10170399       0.00202941       0.00669877
  |                                  0.00202941       0.07407797      -0.00778150
  |                                  0.00669877      -0.00778150       0.07291936
  ----------------------------------------------------------------------
  | Atom     3: H
  |   Hirshfeld charge        :      0.05944786
  |   Free atom volume        :     10.44207651
  |   Hirshfeld volume        :      8.60272985
  |   Hirshfeld dipole vector :      0.04251619       0.00743444       0.01611361
  |   Hirshfeld dipole moment :      0.04607110
  |   Hirshfeld second moments:      0.02159205      -0.02844475      -0.00086667
  |                                 -0.02844475       0.07302698      -0.00661741
  |                                 -0.00086667      -0.00661741       0.05549334
  ----------------------------------------------------------------------
  | Atom     4: O
  |   Hirshfeld charge        :     -0.30611963
  |   Free atom volume        :     23.95238533
  |   Hirshfeld volume        :     22.33524789
  |   Hirshfeld dipole vector :     -0.02762075       0.01979320       0.01178331
  |   Hirshfeld dipole moment :      0.03596558
  |   Hirshfeld second moments:      0.01969961       0.05475977      -0.01212383
  |                                  0.05475977       0.01281375       0.01926750
  |                                 -0.01212383       0.01926750      -0.01149759
  ----------------------------------------------------------------------
  | Atom     5: H
  |   Hirshfeld charge        :      0.07203358
  |   Free atom volume        :     10.44207651
  |   Hirshfeld volume        :      7.87665923
  |   Hirshfeld dipole vector :      0.01691553       0.04509848       0.03153032
  |   Hirshfeld dipole moment :      0.05756882
  |   Hirshfeld second moments:      0.08812090      -0.00021896      -0.01148867
  |                                 -0.00021896       0.04090429      -0.01829643
  |                                 -0.01148867      -0.01829643       0.07118693
  ----------------------------------------------------------------------
  | Atom     6: H
  |   Hirshfeld charge        :      0.12581488
  |   Free atom volume        :     10.44207651
  |   Hirshfeld volume        :      6.84330675
  |   Hirshfeld dipole vector :     -0.10185428      -0.06196002       0.01950200
  |   Hirshfeld dipole moment :      0.12080424
  |   Hirshfeld second moments:      0.09380918       0.01299239      -0.00042399
  |                                  0.01299239       0.10812485       0.01248341
  |                                 -0.00042399       0.01248341       0.09702032
  ----------------------------------------------------------------------
  | Atom     7: O
  |   Hirshfeld charge        :     -0.21337216
  |   Free atom volume        :     23.95238533
  |   Hirshfeld volume        :     21.09184744
  |   Hirshfeld dipole vector :     -0.02002959      -0.02479471       0.03341228
  |   Hirshfeld dipole moment :      0.04617730
  |   Hirshfeld second moments:      0.06562095      -0.02541621       0.00708475
  |                                 -0.02541621       0.06005272       0.02921011
  |                                  0.00708475       0.02921011       0.02456800
  ----------------------------------------------------------------------
  | Atom     8: H
  |   Hirshfeld charge        :      0.10733227
  |   Free atom volume        :     10.44207651
  |   Hirshfeld volume        :      7.54554929
  |   Hirshfeld dipole vector :      0.01132585       0.02101498       0.04492178
  |   Hirshfeld dipole moment :      0.05087112
  |   Hirshfeld second moments:      0.10744168       0.00101339       0.00809101
  |                                  0.00101339       0.06928449      -0.02582984
  |                                  0.00809101      -0.02582984       0.05865543
  ----------------------------------------------------------------------
  | Atom     9: H
  |   Hirshfeld charge        :      0.15627955
  |   Free atom volume        :     10.44207651
  |   Hirshfeld volume        :      6.11102371
  |   Hirshfeld dipole vector :      0.08998208      -0.07627132       0.01321675
  |   Hirshfeld dipole moment :      0.11869614
  |   Hirshfeld second moments:      0.11916269       0.00164669       0.00078975
  |                                  0.00164669       0.12083010       0.01400832
  |                                  0.00078975       0.01400832       0.12023816
  ----------------------------------------------------------------------
  | Atom    10: O
  |   Hirshfeld charge        :     -0.14631232
  |   Free atom volume        :     23.95238533
  |   Hirshfeld volume        :     19.59491361
  |   Hirshfeld dipole vector :      0.00074172      -0.00825224      -0.01262095
  |   Hirshfeld dipole moment :      0.01509762
  |   Hirshfeld second moments:      0.08613411      -0.02672625       0.01140979
  |                                 -0.02672625       0.08318147      -0.01043140
  |                                  0.01140979      -0.01043140       0.11195622
  ----------------------------------------------------------------------
  | Atom    11: H
  |   Hirshfeld charge        :      0.18494083
  |   Free atom volume        :     10.44207651
  |   Hirshfeld volume        :      5.42570189
  |   Hirshfeld dipole vector :      0.02109207      -0.01609512       0.11630939
  |   Hirshfeld dipole moment :      0.11929712
  |   Hirshfeld second moments:      0.14269969      -0.01043873       0.00041657
  |                                 -0.01043873       0.13825933      -0.00075662
  |                                  0.00041657      -0.00075662       0.13077384
  ----------------------------------------------------------------------
  | Atom    12: H
  |   Hirshfeld charge        :      0.19142504
  |   Free atom volume        :     10.44207651
  |   Hirshfeld volume        :      5.61021100
  |   Hirshfeld dipole vector :     -0.08433665       0.08053089      -0.02492429
  |   Hirshfeld dipole moment :      0.11924393
  |   Hirshfeld second moments:      0.12957539      -0.00247726       0.00155854
  |                                 -0.00247726       0.12824993       0.00074075
  |                                  0.00155854       0.00074075       0.14638355
  ----------------------------------------------------------------------
  | Atom    13: O
  |   Hirshfeld charge        :     -0.25317975
  |   Free atom volume        :     23.95238533
  |   Hirshfeld volume        :     20.84943608
  |   Hirshfeld dipole vector :      0.01487261      -0.02220003       0.02145121
  |   Hirshfeld dipole moment :      0.03426646
  |   Hirshfeld second moments:      0.06863229       0.04048340      -0.01099989
  |                                  0.04048340       0.04134456       0.01832587
  |                                 -0.01099989       0.01832587       0.04405501
  ----------------------------------------------------------------------
  | Atom    14: H
  |   Hirshfeld charge        :      0.15587602
  |   Free atom volume        :     10.44207651
  |   Hirshfeld volume        :      5.96334637
  |   Hirshfeld dipole vector :      0.09954588       0.06305929       0.03384383
  |   Hirshfeld dipole moment :      0.12260205
  |   Hirshfeld second moments:      0.12058265       0.00790146      -0.01142954
  |                                  0.00790146       0.11850376       0.00022472
  |                                 -0.01142954       0.00022472       0.12767587
  ----------------------------------------------------------------------
  | Atom    15: H
  |   Hirshfeld charge        :      0.09776018
  |   Free atom volume        :     10.44207651
  |   Hirshfeld volume        :      7.30002331
  |   Hirshfeld dipole vector :     -0.02466927      -0.02167930       0.03551267
  |   Hirshfeld dipole moment :      0.04837059
  |   Hirshfeld second moments:      0.08080434      -0.00573097       0.03162135
  |                                 -0.00573097       0.09158953       0.01797410
  |                                  0.03162135       0.01797410       0.07385942
  ----------------------------------------------------------------------


------------------------------------------------------------------------------
  Final output of selected total energy values:

  The following output summarizes some interesting total energy values
  at the end of a run (AFTER all relaxation, molecular dynamics, etc.).

  | Total energy of the DFT / Hartree-Fock s.c.f. calculation      :         -10414.773593281 eV
  | Final zero-broadening corrected energy (caution - metals only) :         -10414.773593281 eV
  | For reference only, the value of 1 Hartree used in FHI-aims is :             27.211384500 eV

  Before relying on these values, please be sure to understand exactly which
  total energy value is referred to by a given number. Different objects may
  all carry the same name 'total energy'. Definitions:

  Total energy of the DFT / Hartree-Fock s.c.f. calculation:
  | Note that this energy does not include ANY quantities calculated after the
  | s.c.f. cycle, in particular not ANY RPA, MP2, etc. many-body perturbation terms.

  Final zero-broadening corrected energy:
  | For metallic systems only, a broadening of the occupation numbers at the Fermi
  | level can be extrapolated back to zero broadening by an electron-gas inspired
  | formula. For all systems that are not real metals, this value can be
  | meaningless and should be avoided.

------------------------------------------------------------------------------

------------------------------------------------------------
          Leaving FHI-aims.
          Date     :  20150727, Time     :  120020.179

          Computational steps:
          | Number of self-consistency cycles          :           16

          Detailed time accounting                     :  max(cpu_time)    wall_clock(cpu1)
          | Total time                                 :       40.047 s          40.070 s
          | Preparation time                           :        0.172 s           0.701 s
          | Grid partitioning                          :        0.128 s           0.128 s
          | Preloading free-atom quantities on grid    :        0.013 s           0.013 s
          | Free-atom superposition energy             :        0.066 s           0.066 s
          | Total time for integrations                :       17.609 s          17.604 s
          | Total time for solution of K.-S. equations :        1.054 s           1.057 s
          | Total time for density & force components  :       13.617 s          13.609 s
          | Total time for mixing                      :        0.208 s           0.209 s
          | Total time for Hartree multipole update    :        0.079 s           0.081 s
          | Total time for Hartree multipole sum       :        6.252 s           6.253 s
          | Total time for total energy evaluation     :        0.005 s           0.020 s
          | Total time for scaled ZORA corrections     :        0.000 s           0.000 s
          | Total time for TS (2009) vdW correction    :        0.056 s           0.059 s

          Have a nice day.
------------------------------------------------------------
