  MPI-parallelism will be employed.
------------------------------------------------------------
          Invoking FHI-aims ...
          Version 081213
          Compiled on 2013/08/29 at 17:41:06 on host generoso.

          When using FHI-aims, please cite the following reference:

          Volker Blum, Ralf Gehrke, Felix Hanke, Paula Havu,
          Ville Havu, Xinguo Ren, Karsten Reuter, and Matthias Scheffler,
          'Ab Initio Molecular Simulations with Numeric Atom-Centered Orbitals: FHI-aims',
          Computer Physics Communications 180, 2175-2196 (2009)

          For any questions about FHI-aims, please visit the aimsclub website
          with its forums and wiki. Contributions to both the forums and the
          wiki are warmly encouraged - they are for you, and everyone is welcome there.

------------------------------------------------------------

  Date     :  20150727, Time     :  114141.695
  Time zero on CPU 1             :   0.399930000000000E-01  s.
  Internal wall clock time zero  :           207229301.695  s.

  Using        8 parallel tasks.
  Task        0 on host gen60 reporting.
  Task        1 on host gen60 reporting.
  Task        2 on host gen60 reporting.
  Task        3 on host gen60 reporting.
  Task        4 on host gen60 reporting.
  Task        5 on host gen60 reporting.
  Task        6 on host gen60 reporting.
  Task        7 on host gen60 reporting.

  Performing system and environment tests:
  | Environment variable OMP_NUM_THREADS correctly set to 1.
  | Checking for scalapack...
  | No scalapack compiled in.

  Obtaining array dimensions for all initial allocations:
  
  -----------------------------------------------------------------------
  Parsing control.in (first pass over file, find array dimensions only).
  The contents of control.in will be repeated verbatim below
  unless switched off by setting 'verbatim_writeout .false.' .
  in the first line of control.in .
  -----------------------------------------------------------------------
  
  #########################################################################################
  #
  #  Volker Blum, FHI 2008 : Test run input file control.in
  #
  #########################################################################################
  #
  #  Physical model
  #
    xc                 rpbe
    spin               none
    relativistic       atomic_zora scalar
    charge             0.
   vdw_correction_hirshfeld
  #
  #  SCF convergence
  #
    occupation_type    gaussian 0.01
    mixer              pulay
      n_max_pulay        10
      charge_mix_param   0.1
    sc_accuracy_rho    5E-5
    sc_accuracy_eev    5E-3
    sc_accuracy_etot   5E-6
    sc_iter_limit      3000
  #
  #  Eigenvalue solver
  #
    KS_method          lapack
      empty_states       8
      basis_threshold    0.e-5
  #
  #  Efficiency
  #
  #   all previous settings are now default, except stratmann still
  #   undecided. Continue to handle stratmann with care, if at all.
  #
  #  partition_type stratmann
    partition_type rho_r2
  #  hartree_partition_type stratmann
  #
  #  Oprions for large clusters (100's of atoms: memory saving / better scaling)
  #
  # for periodic systems:
  #
    density_update_method orbital
    packed_matrix_format none
  #  k_grid 6 6 6
  #  output k_eigenvalue 1
  #  distributed_spline_storage .true.
  #
  #  Relaxation
  #
  #  relax_geometry   bfgs 5.e-3
    sc_accuracy_forces 5.E-4
    final_forces_cleaned .true.
  #
  #  Output options
  #
  #  output mulliken
    output Hirshfeld
  #  output dipole
  
  #harmonic_length_scale 0.001
  
  ################################################################################
  #
  #  FHI-aims code project
  #  VB, Fritz-Haber Institut, 2007
  #
  #  Suggested "safe" defaults for H atom (to be pasted into control.in file)
  #  Basis constructed for a non-relativistic H2 molecule using the
  #  PW-LDA functional.
  #
  ################################################################################
    species        H
  #     global species definitions
      nucleus             1
      cut_pot             4.0  2.0  1.0
      cut_free_atom       finite 8.0
      logarithmic         0.00010000 100.00  1.0123
      basis_dep_cutoff    1d-4  # 1d-4 is safe default - please check 5d-4 if you wish!
      radial_base         24 7.0
      radial_multiplier   2
      angular_grids       specified
        division   0.2783  110
        division   0.3822  194
        division   0.5626  302
  #      division   0.5922  434
  #      division   0.6227  590
  #      division   0.7206  770
        outer_grid  302
      l_hartree           4
  ################################################################################
  #
  #  Definition of "minimal" basis
  #
  ################################################################################
  #     valence basis states
      valence      1  s   1.
  #     ion occupancy
      ion_occ      1  s   0.5
  ################################################################################
  #
  #  Suggested additional basis functions. For production calculations,
  #  uncomment them one after another (the most important basis functions are
  #  listed first).
  #
  ################################################################################
  #  "First tier" - improvements: -1014.90 meV to -62.69 meV
       hydro 2 s 2.1
       hydro 2 p 3.5
  #  "Second tier" - improvements: -12.89 meV to -1.83 meV
       hydro 1 s 0.85
       hydro 2 p 3.7
       hydro 2 s 1.2
       hydro 3 d 7
  #  "Third tier" - improvements: -0.25 meV to -0.12 meV
  #     hydro 4 f 11.2
  #     hydro 3 p 4.8
  #     hydro 4 d 9
  #     hydro 3 s 3.2
  
  ################################################################################
  #
  #  FHI-aims code project
  #  VB, Fritz-Haber Institut, 2007
  #
  #  Suggested "safe" defaults for O atom (to be pasted into control.in file)
  #  All values have been tested for a non-relativistic, non-spinpolarized O2
  #  molecule using the PW-LDA functional. Validity for PBE is expected.
  #
  #  Constructed for dimers: 1.0 A, 1.208 A, 1.5 A, 2.0 A, 3.0 A
  #
  ################################################################################
    species        O
  #     global species definitions
      nucleus             8
      mass                15.9994
      l_hartree           4
      cut_pot             4.0  2.0  1.0
      cut_free_atom       finite 8.0
      basis_dep_cutoff    1d-4  # 1d-4 is safe default - please check 5d-4 if you wish!
      logarithmic         0.00010000 100.00  1.0123
      radial_base         36 7.0
      radial_multiplier   2
       angular_grids specified
        division   0.4087  110
        division   0.5181  194
        division   0.6184  302
  #      division   0.7315  434
  #      division   0.7934  590
  #      division   0.9656  770
  #      division   1.4041  974
  #      outer_grid 974
        outer_grid 302
  ################################################################################
  #
  #  Definition of "minimal" basis
  #
  ################################################################################
  #     valence basis states
      valence      2  s   2.
      valence      2  p   4.
  #     ion occupancy
      ion_occ      2  s   1.
      ion_occ      2  p   3.
  ################################################################################
  #
  #  Suggested additional basis functions. For production calculations,
  #  uncomment them one after another (the most important basis functions are
  #  listed first).
  #
  ################################################################################
  #  "First tier" - improvements: -699.05 meV to -159.38 meV
       hydro 2 p 1.8
       hydro 3 d 7.6
       hydro 3 s 6.4
  #  "Second tier" - improvements: -49.91 meV to -5.39 meV
       hydro 4 f 11.6
       hydro 3 p 6.2
       hydro 3 d 5.6
       hydro 5 g 17.6
       hydro 1 s 0.75
  #  "Third tier" - improvements: -2.83 meV to -0.50 meV
  #     ionic 2 p auto
  #     hydro 4 f 10.8
  #     hydro 4 d 4.7
  #     hydro 2 s 6.8
  #  "Fourth tier" - improvements: -0.40 meV to -0.12 meV
  #     hydro 3 p 5
  #     hydro 3 s 3.3
  #     hydro 5 g 15.6
  #     hydro 4 f 17.6
  #     hydro 4 d 14
  # Further basis functions - -0.08 meV and below
  #     hydro 3 s 2.1
  #     hydro 4 d 11.6
  #     hydro 3 p 16
  #     hydro 2 s 17.2
  
  
  -----------------------------------------------------------------------
  Completed first pass over input file control.in .
  -----------------------------------------------------------------------
  
  
  -----------------------------------------------------------------------
  Parsing geometry.in (first pass over file, find array dimensions only).
  The contents of geometry.in will be repeated verbatim below
  unless switched off by setting 'verbatim_writeout .false.' .
  in the first line of geometry.in .
  -----------------------------------------------------------------------
  
  atom      -4.053030000      0.065001000     -1.525160000  O
  atom      -4.566710000      0.974813000     -1.912820000  H
  atom      -3.067820000      0.330172000     -1.477310000  H
  atom      -4.581760000     -0.256435000      0.939478000  O
  atom      -4.349860000      0.471090000      1.504340000  H
  atom      -5.393870000     -0.726611000      1.228070000  H
  atom      -5.293160000      2.192130000     -2.328800000  O
  atom      -4.829300000      2.988660000     -1.973850000  H
  atom      -5.428570000      2.328640000     -3.235170000  H
  atom      -1.645860000      0.870179000     -1.502250000  O
  atom      -1.568890000      1.501730000     -0.721051000  H
  atom      -0.824432000      0.282220000     -1.377720000  H
  atom      -1.975360000      2.858040000      0.453140000  O
  atom      -1.223550000      3.375850000      0.786238000  H
  atom      -2.537520000      2.567960000      1.156120000  H
  atom      -5.628340000      3.730740000      1.385610000  O
  atom      -6.090650000      4.418470000      1.860350000  H
  atom      -5.158540000      4.200260000      0.615875000  H
  
  -----------------------------------------------------------------------
  Completed first pass over input file geometry.in .
  -----------------------------------------------------------------------
  
 
  Basic array size parameters: 
  | Number of species                 :        2
  | Number of atoms                   :       18
  | Max. basis fn. angular momentum   :        4
  | Max. atomic/ionic basis occupied n:        2
  | Max. number of basis fn. types    :        2
  | Max. radial fns per species/type  :        8
  | Max. logarithmic grid size        :     1301
  | Max. radial integration grid size :       73
  | Max. angular integration grid size:      302
  | Max. angular grid division number :        8
  | Radial grid for Hartree potential :     1301
  | Number of spin channels           :        1

------------------------------------------------------------
          Reading file control.in.
------------------------------------------------------------
  XC: Using RPBE gradient-corrected functionals.
  Spin treatment: No spin polarisation.
  Scalar relativistic treatment of kinetic energy: on-site free-atom approximation to ZORA.
  Charge =   0.000000E+00: Neutral system requested explicitly.
  Using non-empirical van der Waals correction (Hirshfeld partitioning):
  Occupation type: Gaussian broadening, width =   0.100000E-01 eV.
  Using pulay charge density mixing.
  Pulay mixing - number of memorized iterations:   10
  Charge density mixing - mixing parameter:     0.1000
  Convergence accuracy of self-consistent charge density: 0.5000E-04
  Convergence accuracy of sum of eigenvalues: 0.5000E-02
  Convergence accuracy of total energy: 0.5000E-05
  Maximum number of s.-c. iterations  :  3000
  Kohn-Sham eigenvalues and eigenfunctions calculated by lapack diagonalisation (D&C).
  Number of empty states per atom:        8
  Threshold for basis singularities: 0.0000E+00
  Partition function in integrals calculations: rho / r^2
 Using packed matrix format           0
  Convergence accuracy of forces: 0.5000E-03
  Cleaning forces before final output.
  Hirshfeld charge analysis will be performed.
 
  Reading configuration options for species H                   .
  | Found nuclear charge :   1.0000
  | Found cutoff potl. onset [A], width [A], scale factor :    4.00000    2.00000    1.00000
  | Found cutoff specification for free atom: Cutoff potential begins at    8.00000 A.
  | Found logarithmic grid data [bohr] : 0.1000E-03 0.1000E+03 0.1012E+01
  | Threshold for basis-dependent cutoff potential is   0.100000E-03
  | Found data for basic radial integration grid :    24 points, outermost radius =    7.000 A
  | Found multiplier for basic radial grid :   2
  | Found angular grid specification: user-specified.
  | Specified grid contains     4 separate shells.
  | Check grid settings after all constraints further below.
  | Found l_max for Hartree potential  :   4
  | Found free-atom valence shell :  1 s   1.000
  | No ionic wave fns used. Skipping ion_occ.
  | Found hydrogenic basis function :  2 s   2.100
  | Found hydrogenic basis function :  2 p   3.500
  | Found hydrogenic basis function :  1 s   0.850
  | Found hydrogenic basis function :  2 p   3.700
  | Found hydrogenic basis function :  2 s   1.200
  | Found hydrogenic basis function :  3 d   7.000
  Species H                   : Missing cutoff potential type.
  Defaulting to exp(1/x)/(1-x)^2 type cutoff potential.
  Species H : On-site basis accuracy parameter (for Gram-Schmidt orthonormalisation) not specified.
  Using default value basis_acc =  0.1000000E-03.
  Species H                   : Using default innermost maximum threshold i_radial=  2 for radial functions.
  Species H                   : Basic radial grid will be enhanced according to radial_multiplier =   2, to contain    49 grid points.
 
  Reading configuration options for species O                   .
  | Found nuclear charge :   8.0000
  | Found atomic mass :    15.9994000000000      amu
  | Found l_max for Hartree potential  :   4
  | Found cutoff potl. onset [A], width [A], scale factor :    4.00000    2.00000    1.00000
  | Found cutoff specification for free atom: Cutoff potential begins at    8.00000 A.
  | Threshold for basis-dependent cutoff potential is   0.100000E-03
  | Found logarithmic grid data [bohr] : 0.1000E-03 0.1000E+03 0.1012E+01
  | Found data for basic radial integration grid :    36 points, outermost radius =    7.000 A
  | Found multiplier for basic radial grid :   2
  | Found angular grid specification: user-specified.
  | Specified grid contains     4 separate shells.
  | Check grid settings after all constraints further below.
  | Found free-atom valence shell :  2 s   2.000
  | Found free-atom valence shell :  2 p   4.000
  | No ionic wave fns used. Skipping ion_occ.
  | No ionic wave fns used. Skipping ion_occ.
  | Found hydrogenic basis function :  2 p   1.800
  | Found hydrogenic basis function :  3 d   7.600
  | Found hydrogenic basis function :  3 s   6.400
  | Found hydrogenic basis function :  4 f  11.600
  | Found hydrogenic basis function :  3 p   6.200
  | Found hydrogenic basis function :  3 d   5.600
  | Found hydrogenic basis function :  5 g  17.600
  | Found hydrogenic basis function :  1 s   0.750
  Species O                   : Missing cutoff potential type.
  Defaulting to exp(1/x)/(1-x)^2 type cutoff potential.
  Species O : On-site basis accuracy parameter (for Gram-Schmidt orthonormalisation) not specified.
  Using default value basis_acc =  0.1000000E-03.
  Species O                   : Using default innermost maximum threshold i_radial=  2 for radial functions.
  Species O                   : Basic radial grid will be enhanced according to radial_multiplier =   2, to contain    73 grid points.
 
  Finished reading input file 'control.in'. Consistency checks are next.
 
  Target number of points in a grid batch is not set. Defaulting to  100
  Method for grid partitioning is not set. Defaulting to parallel hash+maxmin partitioning.
  Batch size limit is not set. Defaulting to    200
  By default, will store active basis functions for each batch.
  If in need of memory, prune_basis_once .false. can be used to disable this option.
  communication_type for Hartree potential was not specified.
  Defaulting to calc_hartree .
  Pulay mixer: Number of initial linear mixing iterations not set.
  Defaulting to    0 iterations.
  Work space size for distributed Hartree potential not set.
  Defaulting to   0.200000E+03 MB.
  Algorithm-dependent basis array size parameters:
  | n_max_pulay                         :       10
  Geometry relaxation not requested: no relaxation will be performed.
  Handling of forces: Unphysical translation and rotation will be removed from forces.
  No accuracy limit for integral partition fn. given. Defaulting to 0.1000E-14.
  No threshold value for u(r) in integrations given. Defaulting to 0.1000E-05.
  No accuracy for occupation numbers given. Defaulting to 0.1000E-07.
  No threshold value for occupation numbers given. Defaulting to 0.0000E+00.
  No accuracy for fermi level given. Defaulting to 0.1000E-19.
  Maximum # of iterations to find E_F not set. Defaulting to  200.
  Will not use alltoall communication since running on < 1024 CPUs.
  Partitioning for Hartree potential was not defined. Using partition_type for integrals.
  | Reporting present value of keyword multip_moments_threshold  :       0.10000000E-09
  | This value may affect high angular momentum components of the Hartree potential in periodic systems.
  No q(lm)/r^(l+1) cutoff set for long-range Hartree potential.
  | Using default value of  0.100000E-09 .
  | Verify using the multipole_threshold keyword.
  Defaulting to new monopole extrapolation.
  Density update method: Loop over occupied states selected for charge density update.
------------------------------------------------------------


------------------------------------------------------------
          Reading geometry description geometry.in.
------------------------------------------------------------
  Input structure read successfully.
  The structure contains       18 atoms,  and a total of         60.000 electrons.

  Input geometry:
  | No unit cell requested.
  | Atomic structure:
  |       Atom                x [A]            y [A]            z [A]
  |    1: Species O             -4.053030         0.065001        -1.525160
  |    2: Species H             -4.566710         0.974813        -1.912820
  |    3: Species H             -3.067820         0.330172        -1.477310
  |    4: Species O             -4.581760        -0.256435         0.939478
  |    5: Species H             -4.349860         0.471090         1.504340
  |    6: Species H             -5.393870        -0.726611         1.228070
  |    7: Species O             -5.293160         2.192130        -2.328800
  |    8: Species H             -4.829300         2.988660        -1.973850
  |    9: Species H             -5.428570         2.328640        -3.235170
  |   10: Species O             -1.645860         0.870179        -1.502250
  |   11: Species H             -1.568890         1.501730        -0.721051
  |   12: Species H             -0.824432         0.282220        -1.377720
  |   13: Species O             -1.975360         2.858040         0.453140
  |   14: Species H             -1.223550         3.375850         0.786238
  |   15: Species H             -2.537520         2.567960         1.156120
  |   16: Species O             -5.628340         3.730740         1.385610
  |   17: Species H             -6.090650         4.418470         1.860350
  |   18: Species H             -5.158540         4.200260         0.615875
  |

  | The smallest distance between any two atoms is         0.92654057 AA.
  |
  | The first atom of this pair is atom number                      7 .
  | The second atom of this pair is atom number                     9 .

  Structure-dependent array size parameters: 
  | Maximum number of distinct radial functions  :       18
  | Maximum number of basis functions            :      414
  | Number of Kohn-Sham states (occupied + empty):      102
------------------------------------------------------------

------------------------------------------------------------
          Preparing all fixed parts of the calculation.
------------------------------------------------------------
  Determining machine precision:
    2.225073858507201E-308
  Setting up grids for atomic and cluster calculations.

  Creating wave function, potential, and density for free atoms.

  Species: H

  List of occupied orbitals and eigenvalues:
    n    l              occ      energy [Ha]    energy [eV]
    1    0           1.0000        -0.241408        -6.5691


  Species: O

  List of occupied orbitals and eigenvalues:
    n    l              occ      energy [Ha]    energy [eV]
    1    0           2.0000       -18.944147      -515.4965
    2    0           2.0000        -0.883529       -24.0421
    2    1           4.0000        -0.330176        -8.9845

  Creating fixed part of basis set: Ionic, confined, hydrogenic.
 
  H                    hydrogenic:
 
  List of hydrogenic basis orbitals: 
    n    l      effective z      eigenvalue [eV]  inner max. [A]     outer max. [A]     outer radius [A]   
    2    0         2.100000       -14.9965           0.193241           1.317192           5.372934
    2    1         3.500000       -41.6672           0.602363           0.602363           4.056010
    1    0         0.850000        -9.8292           0.624864           0.624864           5.372934
    2    1         3.700000       -46.5653           0.573616           0.573616           3.909951
    2    0         1.200000        -4.5995           0.334977           2.228160           5.505921
    3    2         7.000000       -74.0753           0.680692           0.680692           3.769152
 
 
  O                    hydrogenic:
 
  List of hydrogenic basis orbitals: 
    n    l      effective z      eigenvalue [eV]  inner max. [A]     outer max. [A]     outer radius [A]   
    2    1         1.800000       -11.0118           1.178546           1.178546           5.432516
    3    2         7.600000       -87.3182           0.624117           0.624117           3.541422
    3    0         6.400000       -61.9209           0.061166           1.081887           4.306510
    4    3        11.600000      -114.4238           0.731621           0.731621           3.584982
    3    1         6.200000       -58.1113           0.255677           1.030255           4.306510
    3    2         5.600000       -47.4081           0.847222           0.847222           4.413102
    5    4        17.600000      -168.5799           0.749730           0.749730           3.372413
    1    0         0.750000        -7.6499           0.705275           0.705275           5.366508
 

  Adding cutoff potential to free-atom effective potential.
  Creating atomic-like basis functions for current effective potential.

  Species H                   :

  List of atomic basis orbitals and eigenvalues:
    n    l      energy [Ha]    energy [eV]    outer radius [A]
    1    0        -0.241374        -6.5681       5.372934


  Species O                   :

  List of atomic basis orbitals and eigenvalues:
    n    l      energy [Ha]    energy [eV]    outer radius [A]
    1    0       -18.944147      -515.4965       1.415745
    2    0        -0.883529       -24.0421       5.048305
    2    1        -0.330173        -8.9845       5.301302

  Assembling full basis from fixed parts.
  | Species H :   atomic orbital   1 s accepted.
  | Species H :    hydro orbital   2 s accepted.
  | Species H :    hydro orbital   1 s accepted.
  | Species H :    hydro orbital   2 s accepted.
  | Species H :    hydro orbital   2 p accepted.
  | Species H :    hydro orbital   2 p accepted.
  | Species H :    hydro orbital   3 d accepted.
  | Species O :   atomic orbital   1 s accepted.
  | Species O :    hydro orbital   3 s accepted.
  | Species O :   atomic orbital   2 s accepted.
  | Species O :    hydro orbital   1 s accepted.
  | Species O :    hydro orbital   3 p accepted.
  | Species O :   atomic orbital   2 p accepted.
  | Species O :    hydro orbital   2 p accepted.
  | Species O :    hydro orbital   3 d accepted.
  | Species O :    hydro orbital   3 d accepted.
  | Species O :    hydro orbital   4 f accepted.
  | Species O :    hydro orbital   5 g accepted.
 
  Basis size parameters after reduction:
  | Total number of radial functions:       18
  | Total number of basis functions :      414
 
  Testing on-site integration grid accuracy.
  |  Species  Function  <phi|h_atom|phi> (log., in eV)  <phi|h_atom|phi> (rad., in eV)
           1        1                 -6.5683835025                 -6.5684759159
           1        2                 13.3711789951                 13.3708738703
           1        3                 23.6590910787                 23.6532055418
           1        4                 16.2963827186                 16.1870710655 ***
           1        5                 28.7627214838                 28.7627215090
           1        6                 59.5965249172                 59.5965950857
           1        7                 60.2220506392                 60.2220503827
           2        8               -515.4964576505               -515.4964530710
           2        9                 15.3030791347                 15.3030722972
           2       10                -21.7296094581                -21.7296135470
           2       11                 14.2969371730                 14.2969701621
           2       12                 21.0679693190                 21.0679697493
           2       13                 -2.3833606469                 -2.3833613176
           2       14                 13.7067136422                 13.7066766629
           2       15                 45.8013116808                 45.8013116965
           2       16                 52.2309815402                 52.2309831494
           2       17                 85.4120732416                 85.4120732763
           2       18                142.1019167745                142.1019167817
 * Note: Onsite integrals marked "***" above are less accurate than
 * onsite_accuracy_threshold =    0.03000 eV. Usually, this is harmless.
 * When in doubt, tighten the "radial" and/or "radial_multiplier" flags to check.

  Preparing densities etc. for the partition functions (integrals / Hartree potential).

  Preparations completed.
  max(cpu_time)          :      0.174 s.
  Wall clock time (cpu1) :      0.556 s.
------------------------------------------------------------

------------------------------------------------------------
          Begin self-consistency loop: Initialization.

          Date     :  20150727, Time     :  114142.259
------------------------------------------------------------

  Initializing index lists of integration centers etc. from given atomic structure:
  | Number of centers in hartree potential         :        18
  | Number of centers in hartree multipole         :        18
  | Number of centers in electron density summation:        18
  | Number of centers in basis integrals           :        18
  | Number of centers in integrals                 :        18
  Partitioning the integration grid into batches with parallel hashing+maxmin method.
  | Number of batches:     2269
  | Maximal batch size:     157
  | Minimal batch size:      58
  | Average batch size:     104.033
  | Standard deviation of batch sizes:      34.354

  Integration load balanced across     8 MPI tasks.
  Work distribution over tasks is as follows:
  Task     0 has      29439 integration points.
  Task     1 has      29482 integration points.
  Task     2 has      29571 integration points.
  Task     3 has      29507 integration points.
  Task     4 has      29506 integration points.
  Task     5 has      29535 integration points.
  Task     6 has      29478 integration points.
  Task     7 has      29534 integration points.
  Initializing partition tables, free-atom densities, potentials, etc. across the integration grid (initialize_grid_storage).
  | Net number of integration points:   236052
  | of which are non-zero points    :   235459
  Obtaining max. number of non-zero basis functions in each batch (get_n_compute_maxes).
  | Maximal number of non-zero basis functions:      409 in task     0
  | Maximal number of non-zero basis functions:      409 in task     1
  | Maximal number of non-zero basis functions:      409 in task     2
  | Maximal number of non-zero basis functions:      409 in task     3
  | Maximal number of non-zero basis functions:      408 in task     4
  | Maximal number of non-zero basis functions:      410 in task     5
  | Maximal number of non-zero basis functions:      409 in task     6
  | Maximal number of non-zero basis functions:      409 in task     7
  Integrating Hamiltonian matrix: batch-based integration.
  Time summed over all CPUs for integration: real work       10.408 s, elapsed       10.670 s
  Integrating overlap matrix.
  Time summed over all CPUs for integration: real work        5.660 s, elapsed        5.812 s

  Updating Kohn-Sham eigenvalues, eigenvectors, occupation numbers, and Fermi level.
  Solving generalized eigenproblem
  Updating Kohn-Sham eigenvalues and eigenfunctions.
  Transforming overlap matrix and checking for singularities.
  Overlap matrix is nonsingular:
  | Lowest eigenvalue:  0.219092E-03
  Solving real generalised eigenvalue problem by standard LAPACK (fast)
  Determining occupation numbers for Kohn-Sham eigenstates.
  | Chemical potential (Fermi level) in eV                 : -.36247935E+01
  | Error in electron count due to remaining E_F inaccuracy: 0.00000000E+00
  | Maximum occupation number of highest empty state:  0.00E+00

  Writing Kohn-Sham eigenvalues.

  State    Occupation    Eigenvalue [Ha]    Eigenvalue [eV]
      1       2.00000         -19.064799         -518.77959
      2       2.00000         -19.057222         -518.57341
      3       2.00000         -19.051956         -518.43010
      4       2.00000         -19.044534         -518.22814
      5       2.00000         -19.042524         -518.17344
      6       2.00000         -19.019932         -517.55868
      7       2.00000          -1.121235          -30.51035
      8       2.00000          -1.107953          -30.14895
      9       2.00000          -1.098588          -29.89410
     10       2.00000          -1.089146          -29.63716
     11       2.00000          -1.086392          -29.56224
     12       2.00000          -1.042374          -28.36445
     13       2.00000          -0.650280          -17.69503
     14       2.00000          -0.649520          -17.67435
     15       2.00000          -0.644425          -17.53569
     16       2.00000          -0.618337          -16.82581
     17       2.00000          -0.610520          -16.61310
     18       2.00000          -0.604267          -16.44294
     19       2.00000          -0.550500          -14.97987
     20       2.00000          -0.509782          -13.87188
     21       2.00000          -0.503988          -13.71420
     22       2.00000          -0.501655          -13.65073
     23       2.00000          -0.496367          -13.50683
     24       2.00000          -0.475191          -12.93061
     25       2.00000          -0.443455          -12.06703
     26       2.00000          -0.440909          -11.99774
     27       2.00000          -0.439616          -11.96257
     28       2.00000          -0.430487          -11.71414
     29       2.00000          -0.430151          -11.70502
     30       2.00000          -0.402841          -10.96186
     31       0.00000          -0.101026           -2.74906
     32       0.00000          -0.072549           -1.97417
     33       0.00000          -0.063419           -1.72572
     34       0.00000          -0.055772           -1.51762
     35       0.00000          -0.042980           -1.16954
     36       0.00000          -0.013508           -0.36756
     37       0.00000          -0.010893           -0.29641
     38       0.00000           0.018786            0.51119
     39       0.00000           0.023565            0.64124
     40       0.00000           0.041035            1.11662
     41       0.00000           0.047577            1.29464
     42       0.00000           0.053039            1.44328
     43       0.00000           0.071374            1.94220
     44       0.00000           0.072700            1.97827
     45       0.00000           0.085323            2.32177
     46       0.00000           0.094253            2.56475
     47       0.00000           0.096104            2.61512
     48       0.00000           0.100294            2.72914
     49       0.00000           0.108843            2.96178
     50       0.00000           0.116051            3.15790
     51       0.00000           0.124004            3.37432
     52       0.00000           0.129067            3.51210
     53       0.00000           0.132954            3.61786
     54       0.00000           0.137938            3.75348
     55       0.00000           0.142763            3.88477
     56       0.00000           0.153892            4.18761
     57       0.00000           0.159532            4.34110
     58       0.00000           0.166078            4.51922
     59       0.00000           0.171003            4.65322
     60       0.00000           0.197149            5.36470
     61       0.00000           0.202941            5.52230
     62       0.00000           0.214571            5.83877
     63       0.00000           0.224374            6.10552
     64       0.00000           0.236412            6.43310
     65       0.00000           0.241979            6.58458
     66       0.00000           0.263722            7.17624
     67       0.00000           0.279828            7.61451
     68       0.00000           0.289123            7.86744
     69       0.00000           0.295009            8.02761
     70       0.00000           0.309758            8.42893
     71       0.00000           0.325460            8.85620
     72       0.00000           0.335915            9.14072
     73       0.00000           0.344468            9.37344
     74       0.00000           0.354308            9.64121
     75       0.00000           0.368518           10.02789
     76       0.00000           0.377566           10.27410
     77       0.00000           0.385547           10.49127
     78       0.00000           0.392373           10.67702
     79       0.00000           0.401291           10.91969
     80       0.00000           0.405669           11.03880
     81       0.00000           0.422599           11.49951
     82       0.00000           0.432276           11.76284
     83       0.00000           0.442157           12.03170
     84       0.00000           0.446690           12.15506
     85       0.00000           0.461069           12.54631
     86       0.00000           0.479923           13.05936
     87       0.00000           0.485392           13.20820
     88       0.00000           0.499929           13.60376
     89       0.00000           0.517124           14.07167
     90       0.00000           0.522088           14.20673
     91       0.00000           0.534342           14.54019
     92       0.00000           0.547824           14.90704
     93       0.00000           0.556073           15.13153
     94       0.00000           0.571764           15.55849
     95       0.00000           0.584529           15.90584
     96       0.00000           0.605303           16.47112
     97       0.00000           0.656155           17.85488
     98       0.00000           0.664569           18.08384
     99       0.00000           0.680936           18.52922
    100       0.00000           0.713183           19.40670
    101       0.00000           0.728368           19.81989
    102       0.00000           0.743197           20.22342

  Highest occupied state (VBM) at    -10.96186404 eV
  | Occupation number:      2.00000000

  Lowest unoccupied state (CBM) at    -2.74906045 eV
  | Occupation number:      0.00000000

  Overall HOMO-LUMO gap:      8.21280359 eV.
  Calculating total energy contributions from superposition of free atom densities.

  Total energy components:
  | Sum of eigenvalues            :        -260.45789753 Ha       -7087.41999577 eV
  | XC energy correction          :         -54.69495868 Ha       -1488.32555093 eV
  | XC potential correction       :          69.88841738 Ha        1901.76059733 eV
  | Free-atom electrostatic energy:        -214.44544988 Ha       -5835.35759099 eV
  | Hartree energy correction     :           0.00000000 Ha           0.00000000 eV
  | van der Waals energy corr.    :           0.00000000 Ha           0.00000000 eV
  | Entropy correction            :           0.00000000 Ha           0.00000000 eV
  | ---------------------------
  | Total energy                  :        -459.70988872 Ha      -12509.34254036 eV
  | Total energy, T -> 0          :        -459.70988872 Ha      -12509.34254036 eV  <-- do not rely on this value for anything but (periodic) metals
  | Electronic free energy        :        -459.70988872 Ha      -12509.34254036 eV

  Derived energy quantities:
  | Kinetic energy                :         454.99305085 Ha       12380.99085149 eV
  | Electrostatic energy          :        -860.00798088 Ha      -23402.00784091 eV
  | Energy correction for multipole
  | error in Hartree potential    :           0.00000000 Ha           0.00000000 eV
  | Sum of eigenvalues per atom                           :        -393.74555532 eV
  | Total energy (T->0) per atom                          :        -694.96347446 eV  <-- do not rely on this value for anything but (periodic) metals
  | Electronic free energy per atom                       :        -694.96347446 eV
  Initialize hartree_potential_storage
  Max. number of atoms included in rho_multipole:           18

  End scf initialization - timings             :  max(cpu_time)    wall_clock(cpu1)
  | Time for scf. initialization               :        2.817 s           2.817 s
  | Boundary condition initialization          :        0.000 s           0.001 s
  | Integration                                :        2.066 s           2.066 s
  | Solution of K.-S. eqns.                    :        0.294 s           0.294 s
  | Grid partitioning                          :        0.160 s           0.160 s
  | Preloading free-atom quantities on grid    :        0.014 s           0.013 s
  | Free-atom superposition energy             :        0.090 s           0.090 s
  | Total energy evaluation                    :        0.001 s           0.001 s
------------------------------------------------------------

------------------------------------------------------------
          Begin self-consistency iteration #    1

  Date     :  20150727, Time     :  114145.076
------------------------------------------------------------
  Evaluating new KS density.
  Integration grid: deviation in total charge (<rho> - N_e) =   1.421085E-14
  Pulay mixing of updated and previous charge densities.

  Evaluating partitioned Hartree potential by multipole expansion.
  | Analytical far-field extrapolation by fixed multipoles:
  | Hartree multipole sum: apparent total charge =  -0.253626E-05
  Summing up the Hartree potential.
  Time summed over all CPUs for potential: real work        3.780 s, elapsed        3.785 s
  | RMS charge density error from multipole expansion :   0.182239E-02

  Integrating Hamiltonian matrix: batch-based integration.
  Time summed over all CPUs for integration: real work       10.396 s, elapsed       10.661 s

  Updating Kohn-Sham eigenvalues, eigenvectors, occupation numbers, and Fermi level.
  Solving generalized eigenproblem
  Updating Kohn-Sham eigenvalues and eigenfunctions.
  Solving real generalised eigenvalue problem by standard LAPACK (fast)
  Determining occupation numbers for Kohn-Sham eigenstates.
  | Chemical potential (Fermi level) in eV                 : -.31508219E+01
  | Error in electron count due to remaining E_F inaccuracy: 0.00000000E+00
  | Maximum occupation number of highest empty state:  0.00E+00

  Writing Kohn-Sham eigenvalues.

  State    Occupation    Eigenvalue [Ha]    Eigenvalue [eV]
      1       2.00000         -18.995157         -516.88452
      2       2.00000         -18.985738         -516.62821
      3       2.00000         -18.970330         -516.20894
      4       2.00000         -18.968630         -516.16268
      5       2.00000         -18.963104         -516.01231
      6       2.00000         -18.917167         -514.76231
      7       2.00000          -1.087410          -29.58993
      8       2.00000          -1.074753          -29.24553
      9       2.00000          -1.052527          -28.64072
     10       2.00000          -1.051540          -28.61385
     11       2.00000          -1.048290          -28.52542
     12       2.00000          -0.983594          -26.76495
     13       2.00000          -0.621486          -16.91148
     14       2.00000          -0.621014          -16.89865
     15       2.00000          -0.603584          -16.42435
     16       2.00000          -0.587412          -15.98430
     17       2.00000          -0.577033          -15.70186
     18       2.00000          -0.562438          -15.30473
     19       2.00000          -0.511379          -13.91534
     20       2.00000          -0.473676          -12.88937
     21       2.00000          -0.464738          -12.64616
     22       2.00000          -0.459174          -12.49475
     23       2.00000          -0.451701          -12.29141
     24       2.00000          -0.432048          -11.75662
     25       2.00000          -0.408019          -11.10276
     26       2.00000          -0.395913          -10.77335
     27       2.00000          -0.391557          -10.65480
     28       2.00000          -0.390503          -10.62613
     29       2.00000          -0.382659          -10.41268
     30       2.00000          -0.342353           -9.31590
     31       0.00000          -0.092885           -2.52752
     32       0.00000          -0.065073           -1.77073
     33       0.00000          -0.054072           -1.47137
     34       0.00000          -0.046236           -1.25814
     35       0.00000          -0.036147           -0.98362
     36       0.00000          -0.006667           -0.18142
     37       0.00000          -0.003263           -0.08880
     38       0.00000           0.030361            0.82616
     39       0.00000           0.034499            0.93878
     40       0.00000           0.052622            1.43190
     41       0.00000           0.055708            1.51588
     42       0.00000           0.063522            1.72852
     43       0.00000           0.081717            2.22362
     44       0.00000           0.082394            2.24206
     45       0.00000           0.095064            2.58682
     46       0.00000           0.102652            2.79332
     47       0.00000           0.105408            2.86830
     48       0.00000           0.115932            3.15468
     49       0.00000           0.120619            3.28222
     50       0.00000           0.127506            3.46962
     51       0.00000           0.134029            3.64710
     52       0.00000           0.139392            3.79306
     53       0.00000           0.141735            3.85680
     54       0.00000           0.148859            4.05066
     55       0.00000           0.153170            4.16797
     56       0.00000           0.168896            4.59589
     57       0.00000           0.175333            4.77105
     58       0.00000           0.179915            4.89573
     59       0.00000           0.185699            5.05313
     60       0.00000           0.207154            5.63695
     61       0.00000           0.215164            5.85491
     62       0.00000           0.224843            6.11829
     63       0.00000           0.236579            6.43763
     64       0.00000           0.249021            6.77620
     65       0.00000           0.254327            6.92059
     66       0.00000           0.272998            7.42865
     67       0.00000           0.289326            7.87295
     68       0.00000           0.299888            8.16036
     69       0.00000           0.306943            8.35235
     70       0.00000           0.322979            8.78871
     71       0.00000           0.335465            9.12846
     72       0.00000           0.350649            9.54166
     73       0.00000           0.355436            9.67190
     74       0.00000           0.362790            9.87202
     75       0.00000           0.377299           10.26683
     76       0.00000           0.386654           10.52140
     77       0.00000           0.397002           10.80296
     78       0.00000           0.405848           11.04368
     79       0.00000           0.413713           11.25770
     80       0.00000           0.418085           11.37666
     81       0.00000           0.433718           11.80207
     82       0.00000           0.441696           12.01917
     83       0.00000           0.450731           12.26501
     84       0.00000           0.457643           12.45311
     85       0.00000           0.473514           12.88499
     86       0.00000           0.491821           13.38314
     87       0.00000           0.497365           13.53398
     88       0.00000           0.513310           13.96787
     89       0.00000           0.528637           14.38493
     90       0.00000           0.533074           14.50569
     91       0.00000           0.547175           14.88938
     92       0.00000           0.562161           15.29719
     93       0.00000           0.568897           15.48049
     94       0.00000           0.590653           16.07249
     95       0.00000           0.599125           16.30303
     96       0.00000           0.618322           16.82539
     97       0.00000           0.673691           18.33206
     98       0.00000           0.680551           18.51873
     99       0.00000           0.696852           18.96230
    100       0.00000           0.730098           19.86698
    101       0.00000           0.743327           20.22696
    102       0.00000           0.758198           20.63161

  Highest occupied state (VBM) at     -9.31589574 eV
  | Occupation number:      2.00000000

  Lowest unoccupied state (CBM) at    -2.52752424 eV
  | Occupation number:      0.00000000

  Overall HOMO-LUMO gap:      6.78837150 eV.

  Total energy components:
  | Sum of eigenvalues            :        -257.54985084 Ha       -7008.28801907 eV
  | XC energy correction          :         -54.99155239 Ha       -1496.39627644 eV
  | XC potential correction       :          70.27650804 Ha        1912.32108150 eV
  | Free-atom electrostatic energy:        -214.44544988 Ha       -5835.35759099 eV
  | Hartree energy correction     :          -2.81204409 Ha         -76.51961285 eV
  | van der Waals energy corr.    :           0.00000000 Ha           0.00000000 eV
  | Entropy correction            :           0.00000000 Ha           0.00000000 eV
  | ---------------------------
  | Total energy                  :        -459.52238916 Ha      -12504.24041786 eV
  | Total energy, T -> 0          :        -459.52238916 Ha      -12504.24041786 eV  <-- do not rely on this value for anything but (periodic) metals
  | Electronic free energy        :        -459.52238916 Ha      -12504.24041786 eV

  Derived energy quantities:
  | Kinetic energy                :         456.76978562 Ha       12429.33826445 eV
  | Electrostatic energy          :        -861.30062239 Ha      -23437.18240587 eV
  | Energy correction for multipole
  | error in Hartree potential    :          -0.00011905 Ha          -0.00323948 eV
  | Sum of eigenvalues per atom                           :        -389.34933439 eV
  | Total energy (T->0) per atom                          :        -694.68002321 eV  <-- do not rely on this value for anything but (periodic) metals
  | Electronic free energy per atom                       :        -694.68002321 eV

  Self-consistency convergence accuracy:
  | Change of charge density      : 0.7400E+00
  | Change of sum of eigenvalues  : 0.7913E+02 eV
  | Change of total energy        : 0.5102E+01 eV

  End self-consistency iteration #     1       :  max(cpu_time)    wall_clock(cpu1)
  | Time for this iteration                    :        2.782 s           2.781 s
  | Charge density update                      :        0.878 s           0.878 s
  | Density mixing                             :        0.004 s           0.004 s
  | Hartree multipole update                   :        0.006 s           0.007 s
  | Hartree multipole summation                :        0.474 s           0.474 s
  | Integration                                :        1.335 s           1.335 s
  | Solution of K.-S. eqns.                    :        0.082 s           0.082 s
  | Total energy evaluation                    :        0.001 s           0.000 s
------------------------------------------------------------

------------------------------------------------------------
          Begin self-consistency iteration #    2

  Date     :  20150727, Time     :  114147.857
------------------------------------------------------------
  Evaluating new KS density.
  Integration grid: deviation in total charge (<rho> - N_e) =   1.421085E-14
  Pulay mixing of updated and previous charge densities.

  Evaluating partitioned Hartree potential by multipole expansion.
  | Analytical far-field extrapolation by fixed multipoles:
  | Hartree multipole sum: apparent total charge =  -0.755120E-05
  Summing up the Hartree potential.
  Time summed over all CPUs for potential: real work        3.780 s, elapsed        3.787 s
  | RMS charge density error from multipole expansion :   0.733970E-02

  Integrating Hamiltonian matrix: batch-based integration.
  Time summed over all CPUs for integration: real work       10.377 s, elapsed       10.653 s

  Updating Kohn-Sham eigenvalues, eigenvectors, occupation numbers, and Fermi level.
  Solving generalized eigenproblem
  Updating Kohn-Sham eigenvalues and eigenfunctions.
  Solving real generalised eigenvalue problem by standard LAPACK (fast)
  Determining occupation numbers for Kohn-Sham eigenstates.
  | Chemical potential (Fermi level) in eV                 : -.31515570E+01
  | Error in electron count due to remaining E_F inaccuracy: 0.00000000E+00
  | Maximum occupation number of highest empty state:  0.00E+00

  Highest occupied state (VBM) at     -5.28828517 eV
  | Occupation number:      2.00000000

  Lowest unoccupied state (CBM) at    -2.05205881 eV
  | Occupation number:      0.00000000

  Overall HOMO-LUMO gap:      3.23622636 eV.

  Total energy components:
  | Sum of eigenvalues            :        -250.57592853 Ha       -6818.51793764 eV
  | XC energy correction          :         -55.73128668 Ha       -1516.52547043 eV
  | XC potential correction       :          71.24371813 Ha        1938.64020735 eV
  | Free-atom electrostatic energy:        -214.44544988 Ha       -5835.35759099 eV
  | Hartree energy correction     :          -9.79081560 Ha        -266.42164775 eV
  | van der Waals energy corr.    :           0.00000000 Ha           0.00000000 eV
  | Entropy correction            :           0.00000000 Ha           0.00000000 eV
  | ---------------------------
  | Total energy                  :        -459.29976255 Ha      -12498.18243947 eV
  | Total energy, T -> 0          :        -459.29976255 Ha      -12498.18243947 eV  <-- do not rely on this value for anything but (periodic) metals
  | Electronic free energy        :        -459.29976255 Ha      -12498.18243947 eV

  Derived energy quantities:
  | Kinetic energy                :         460.37726943 Ha       12527.50289342 eV
  | Electrostatic energy          :        -863.94574530 Ha      -23509.15986245 eV
  | Energy correction for multipole
  | error in Hartree potential    :          -0.00136481 Ha          -0.03713826 eV
  | Sum of eigenvalues per atom                           :        -378.80655209 eV
  | Total energy (T->0) per atom                          :        -694.34346886 eV  <-- do not rely on this value for anything but (periodic) metals
  | Electronic free energy per atom                       :        -694.34346886 eV

  Self-consistency convergence accuracy:
  | Change of charge density      : 0.5599E+00
  | Change of sum of eigenvalues  : 0.1898E+03 eV
  | Change of total energy        : 0.6058E+01 eV

  End self-consistency iteration #     2       :  max(cpu_time)    wall_clock(cpu1)
  | Time for this iteration                    :        2.777 s           2.777 s
  | Charge density update                      :        0.873 s           0.873 s
  | Density mixing                             :        0.007 s           0.007 s
  | Hartree multipole update                   :        0.006 s           0.006 s
  | Hartree multipole summation                :        0.474 s           0.474 s
  | Integration                                :        1.335 s           1.334 s
  | Solution of K.-S. eqns.                    :        0.081 s           0.081 s
  | Total energy evaluation                    :        0.001 s           0.001 s
------------------------------------------------------------

------------------------------------------------------------
          Begin self-consistency iteration #    3

  Date     :  20150727, Time     :  114150.634
------------------------------------------------------------
  Evaluating new KS density.
  Integration grid: deviation in total charge (<rho> - N_e) =   4.263256E-14
  Pulay mixing of updated and previous charge densities.

  Evaluating partitioned Hartree potential by multipole expansion.
  | Analytical far-field extrapolation by fixed multipoles:
  | Hartree multipole sum: apparent total charge =  -0.769846E-05
  Summing up the Hartree potential.
  Time summed over all CPUs for potential: real work        3.780 s, elapsed        3.785 s
  | RMS charge density error from multipole expansion :   0.144700E-01

  Integrating Hamiltonian matrix: batch-based integration.
  Time summed over all CPUs for integration: real work       10.386 s, elapsed       10.678 s

  Updating Kohn-Sham eigenvalues, eigenvectors, occupation numbers, and Fermi level.
  Solving generalized eigenproblem
  Updating Kohn-Sham eigenvalues and eigenfunctions.
  Solving real generalised eigenvalue problem by standard LAPACK (fast)
  Determining occupation numbers for Kohn-Sham eigenstates.
  | Chemical potential (Fermi level) in eV                 : -.29906872E+01
  | Error in electron count due to remaining E_F inaccuracy: 0.00000000E+00
  | Maximum occupation number of highest empty state:  0.00E+00

  Highest occupied state (VBM) at     -5.02703085 eV
  | Occupation number:      2.00000000

  Lowest unoccupied state (CBM) at    -2.01140453 eV
  | Occupation number:      0.00000000

  Overall HOMO-LUMO gap:      3.01562632 eV.

  Total energy components:
  | Sum of eigenvalues            :        -250.91875371 Ha       -6827.84668547 eV
  | XC energy correction          :         -55.67355781 Ha       -1514.95458812 eV
  | XC potential correction       :          71.16245661 Ha        1936.42896873 eV
  | Free-atom electrostatic energy:        -214.44544988 Ha       -5835.35759099 eV
  | Hartree energy correction     :          -9.41911256 Ha        -256.30709352 eV
  | van der Waals energy corr.    :           0.00000000 Ha           0.00000000 eV
  | Entropy correction            :           0.00000000 Ha           0.00000000 eV
  | ---------------------------
  | Total energy                  :        -459.29441736 Ha      -12498.03698938 eV
  | Total energy, T -> 0          :        -459.29441736 Ha      -12498.03698938 eV  <-- do not rely on this value for anything but (periodic) metals
  | Electronic free energy        :        -459.29441736 Ha      -12498.03698938 eV

  Derived energy quantities:
  | Kinetic energy                :         457.82132989 Ha       12457.95223998 eV
  | Electrostatic energy          :        -861.44218943 Ha      -23441.03464123 eV
  | Energy correction for multipole
  | error in Hartree potential    :          -0.00635687 Ha          -0.17297918 eV
  | Sum of eigenvalues per atom                           :        -379.32481586 eV
  | Total energy (T->0) per atom                          :        -694.33538830 eV  <-- do not rely on this value for anything but (periodic) metals
  | Electronic free energy per atom                       :        -694.33538830 eV

  Self-consistency convergence accuracy:
  | Change of charge density      : 0.2773E+00
  | Change of sum of eigenvalues  : -.9329E+01 eV
  | Change of total energy        : 0.1455E+00 eV

  End self-consistency iteration #     3       :  max(cpu_time)    wall_clock(cpu1)
  | Time for this iteration                    :        2.774 s           2.774 s
  | Charge density update                      :        0.867 s           0.867 s
  | Density mixing                             :        0.009 s           0.009 s
  | Hartree multipole update                   :        0.006 s           0.006 s
  | Hartree multipole summation                :        0.474 s           0.474 s
  | Integration                                :        1.338 s           1.337 s
  | Solution of K.-S. eqns.                    :        0.080 s           0.081 s
  | Total energy evaluation                    :        0.000 s           0.000 s
------------------------------------------------------------

------------------------------------------------------------
          Begin self-consistency iteration #    4

  Date     :  20150727, Time     :  114153.408
------------------------------------------------------------
  Evaluating new KS density.
  Integration grid: deviation in total charge (<rho> - N_e) =  -7.105427E-15
  Pulay mixing of updated and previous charge densities.

  Evaluating partitioned Hartree potential by multipole expansion.
  | Analytical far-field extrapolation by fixed multipoles:
  | Hartree multipole sum: apparent total charge =  -0.948659E-05
  Summing up the Hartree potential.
  Time summed over all CPUs for potential: real work        3.778 s, elapsed        3.784 s
  | RMS charge density error from multipole expansion :   0.193252E-01

  Integrating Hamiltonian matrix: batch-based integration.
  Time summed over all CPUs for integration: real work       10.378 s, elapsed       10.686 s

  Updating Kohn-Sham eigenvalues, eigenvectors, occupation numbers, and Fermi level.
  Solving generalized eigenproblem
  Updating Kohn-Sham eigenvalues and eigenfunctions.
  Solving real generalised eigenvalue problem by standard LAPACK (fast)
  Determining occupation numbers for Kohn-Sham eigenstates.
  | Chemical potential (Fermi level) in eV                 : -.24862275E+01
  | Error in electron count due to remaining E_F inaccuracy: 0.00000000E+00
  | Maximum occupation number of highest empty state:  0.00E+00

  Highest occupied state (VBM) at     -3.46782202 eV
  | Occupation number:      2.00000000

  Lowest unoccupied state (CBM) at    -1.87022838 eV
  | Occupation number:      0.00000000

  Overall HOMO-LUMO gap:      1.59759364 eV.

  Total energy components:
  | Sum of eigenvalues            :        -248.53949119 Ha       -6763.10365814 eV
  | XC energy correction          :         -55.94582292 Ha       -1522.36329854 eV
  | XC potential correction       :          71.51767364 Ha        1946.09491588 eV
  | Free-atom electrostatic energy:        -214.44544988 Ha       -5835.35759099 eV
  | Hartree energy correction     :         -11.86394373 Ha        -322.83433458 eV
  | van der Waals energy corr.    :           0.00000000 Ha           0.00000000 eV
  | Entropy correction            :           0.00000000 Ha           0.00000000 eV
  | ---------------------------
  | Total energy                  :        -459.27703408 Ha      -12497.56396637 eV
  | Total energy, T -> 0          :        -459.27703408 Ha      -12497.56396637 eV  <-- do not rely on this value for anything but (periodic) metals
  | Electronic free energy        :        -459.27703408 Ha      -12497.56396637 eV

  Derived energy quantities:
  | Kinetic energy                :         458.06788201 Ha       12464.66126438 eV
  | Electrostatic energy          :        -861.39909317 Ha      -23439.86193220 eV
  | Energy correction for multipole
  | error in Hartree potential    :          -0.00889136 Ha          -0.24194628 eV
  | Sum of eigenvalues per atom                           :        -375.72798101 eV
  | Total energy (T->0) per atom                          :        -694.30910924 eV  <-- do not rely on this value for anything but (periodic) metals
  | Electronic free energy per atom                       :        -694.30910924 eV

  Self-consistency convergence accuracy:
  | Change of charge density      : 0.1635E+00
  | Change of sum of eigenvalues  : 0.6474E+02 eV
  | Change of total energy        : 0.4730E+00 eV

  End self-consistency iteration #     4       :  max(cpu_time)    wall_clock(cpu1)
  | Time for this iteration                    :        2.780 s           2.780 s
  | Charge density update                      :        0.869 s           0.869 s
  | Density mixing                             :        0.010 s           0.010 s
  | Hartree multipole update                   :        0.006 s           0.006 s
  | Hartree multipole summation                :        0.474 s           0.474 s
  | Integration                                :        1.338 s           1.338 s
  | Solution of K.-S. eqns.                    :        0.082 s           0.082 s
  | Total energy evaluation                    :        0.000 s           0.001 s
------------------------------------------------------------

------------------------------------------------------------
          Begin self-consistency iteration #    5

  Date     :  20150727, Time     :  114156.188
------------------------------------------------------------
  Evaluating new KS density.
  Integration grid: deviation in total charge (<rho> - N_e) =   2.842171E-14
  Pulay mixing of updated and previous charge densities.

  Evaluating partitioned Hartree potential by multipole expansion.
  | Analytical far-field extrapolation by fixed multipoles:
  | Hartree multipole sum: apparent total charge =  -0.947408E-05
  Summing up the Hartree potential.
  Time summed over all CPUs for potential: real work        3.779 s, elapsed        3.785 s
  | RMS charge density error from multipole expansion :   0.198329E-01

  Integrating Hamiltonian matrix: batch-based integration.
  Time summed over all CPUs for integration: real work       10.372 s, elapsed       10.681 s

  Updating Kohn-Sham eigenvalues, eigenvectors, occupation numbers, and Fermi level.
  Solving generalized eigenproblem
  Updating Kohn-Sham eigenvalues and eigenfunctions.
  Solving real generalised eigenvalue problem by standard LAPACK (fast)
  Determining occupation numbers for Kohn-Sham eigenstates.
  | Chemical potential (Fermi level) in eV                 : -.24753714E+01
  | Error in electron count due to remaining E_F inaccuracy: 0.00000000E+00
  | Maximum occupation number of highest empty state:  0.00E+00

  Highest occupied state (VBM) at     -3.42474680 eV
  | Occupation number:      2.00000000

  Lowest unoccupied state (CBM) at    -1.86141518 eV
  | Occupation number:      0.00000000

  Overall HOMO-LUMO gap:      1.56333162 eV.

  Total energy components:
  | Sum of eigenvalues            :        -248.45636312 Ha       -6760.84162842 eV
  | XC energy correction          :         -55.96205754 Ha       -1522.80506514 eV
  | XC potential correction       :          71.53831228 Ha        1946.65652199 eV
  | Free-atom electrostatic energy:        -214.44544988 Ha       -5835.35759099 eV
  | Hartree energy correction     :         -11.95131000 Ha        -325.21169162 eV
  | van der Waals energy corr.    :           0.00000000 Ha           0.00000000 eV
  | Entropy correction            :           0.00000000 Ha           0.00000000 eV
  | ---------------------------
  | Total energy                  :        -459.27686826 Ha      -12497.55945418 eV
  | Total energy, T -> 0          :        -459.27686826 Ha      -12497.55945418 eV  <-- do not rely on this value for anything but (periodic) metals
  | Electronic free energy        :        -459.27686826 Ha      -12497.55945418 eV

  Derived energy quantities:
  | Kinetic energy                :         458.14630912 Ha       12466.79537472 eV
  | Electrostatic energy          :        -861.46111984 Ha      -23441.54976376 eV
  | Energy correction for multipole
  | error in Hartree potential    :          -0.00894018 Ha          -0.24327463 eV
  | Sum of eigenvalues per atom                           :        -375.60231269 eV
  | Total energy (T->0) per atom                          :        -694.30885857 eV  <-- do not rely on this value for anything but (periodic) metals
  | Electronic free energy per atom                       :        -694.30885857 eV

  Self-consistency convergence accuracy:
  | Change of charge density      : 0.2863E-01
  | Change of sum of eigenvalues  : 0.2262E+01 eV
  | Change of total energy        : 0.4512E-02 eV

  End self-consistency iteration #     5       :  max(cpu_time)    wall_clock(cpu1)
  | Time for this iteration                    :        2.780 s           2.780 s
  | Charge density update                      :        0.869 s           0.869 s
  | Density mixing                             :        0.011 s           0.011 s
  | Hartree multipole update                   :        0.006 s           0.007 s
  | Hartree multipole summation                :        0.474 s           0.474 s
  | Integration                                :        1.337 s           1.337 s
  | Solution of K.-S. eqns.                    :        0.082 s           0.081 s
  | Total energy evaluation                    :        0.000 s           0.000 s
------------------------------------------------------------

------------------------------------------------------------
          Begin self-consistency iteration #    6

  Date     :  20150727, Time     :  114158.968
------------------------------------------------------------
  Evaluating new KS density.
  Integration grid: deviation in total charge (<rho> - N_e) =   5.684342E-14
  Pulay mixing of updated and previous charge densities.

  Evaluating partitioned Hartree potential by multipole expansion.
  | Analytical far-field extrapolation by fixed multipoles:
  | Hartree multipole sum: apparent total charge =  -0.941040E-05
  Summing up the Hartree potential.
  Time summed over all CPUs for potential: real work        3.779 s, elapsed        3.784 s
  | RMS charge density error from multipole expansion :   0.200326E-01

  Integrating Hamiltonian matrix: batch-based integration.
  Time summed over all CPUs for integration: real work       10.400 s, elapsed       10.809 s

  Updating Kohn-Sham eigenvalues, eigenvectors, occupation numbers, and Fermi level.
  Solving generalized eigenproblem
  Updating Kohn-Sham eigenvalues and eigenfunctions.
  Solving real generalised eigenvalue problem by standard LAPACK (fast)
  Determining occupation numbers for Kohn-Sham eigenstates.
  | Chemical potential (Fermi level) in eV                 : -.24807042E+01
  | Error in electron count due to remaining E_F inaccuracy: 0.00000000E+00
  | Maximum occupation number of highest empty state:  0.00E+00

  Highest occupied state (VBM) at     -3.44108840 eV
  | Occupation number:      2.00000000

  Lowest unoccupied state (CBM) at    -1.86010273 eV
  | Occupation number:      0.00000000

  Overall HOMO-LUMO gap:      1.58098567 eV.

  Total energy components:
  | Sum of eigenvalues            :        -248.46244627 Ha       -6761.00715924 eV
  | XC energy correction          :         -55.96437304 Ha       -1522.86807311 eV
  | XC potential correction       :          71.54102332 Ha        1946.73029314 eV
  | Free-atom electrostatic energy:        -214.44544988 Ha       -5835.35759099 eV
  | Hartree energy correction     :         -11.94561301 Ha        -325.05666867 eV
  | van der Waals energy corr.    :           0.00000000 Ha           0.00000000 eV
  | Entropy correction            :           0.00000000 Ha           0.00000000 eV
  | ---------------------------
  | Total energy                  :        -459.27685888 Ha      -12497.55919888 eV
  | Total energy, T -> 0          :        -459.27685888 Ha      -12497.55919888 eV  <-- do not rely on this value for anything but (periodic) metals
  | Electronic free energy        :        -459.27685888 Ha      -12497.55919888 eV

  Derived energy quantities:
  | Kinetic energy                :         458.16719287 Ha       12467.36365036 eV
  | Electrostatic energy          :        -861.47967870 Ha      -23442.05477613 eV
  | Energy correction for multipole
  | error in Hartree potential    :          -0.00893814 Ha          -0.24321908 eV
  | Sum of eigenvalues per atom                           :        -375.61150885 eV
  | Total energy (T->0) per atom                          :        -694.30884438 eV  <-- do not rely on this value for anything but (periodic) metals
  | Electronic free energy per atom                       :        -694.30884438 eV

  Self-consistency convergence accuracy:
  | Change of charge density      : 0.1430E-01
  | Change of sum of eigenvalues  : -.1655E+00 eV
  | Change of total energy        : 0.2553E-03 eV

  End self-consistency iteration #     6       :  max(cpu_time)    wall_clock(cpu1)
  | Time for this iteration                    :        2.799 s           2.798 s
  | Charge density update                      :        0.869 s           0.869 s
  | Density mixing                             :        0.013 s           0.013 s
  | Hartree multipole update                   :        0.007 s           0.006 s
  | Hartree multipole summation                :        0.473 s           0.474 s
  | Integration                                :        1.353 s           1.354 s
  | Solution of K.-S. eqns.                    :        0.082 s           0.081 s
  | Total energy evaluation                    :        0.000 s           0.001 s
------------------------------------------------------------

------------------------------------------------------------
          Begin self-consistency iteration #    7

  Date     :  20150727, Time     :  114201.767
------------------------------------------------------------
  Evaluating new KS density.
  Integration grid: deviation in total charge (<rho> - N_e) =   1.421085E-14
  Pulay mixing of updated and previous charge densities.

  Evaluating partitioned Hartree potential by multipole expansion.
  | Analytical far-field extrapolation by fixed multipoles:
  | Hartree multipole sum: apparent total charge =  -0.914335E-05
  Summing up the Hartree potential.
  Time summed over all CPUs for potential: real work        3.779 s, elapsed        3.784 s
  | RMS charge density error from multipole expansion :   0.199622E-01

  Integrating Hamiltonian matrix: batch-based integration.
  Time summed over all CPUs for integration: real work       10.370 s, elapsed       10.681 s

  Updating Kohn-Sham eigenvalues, eigenvectors, occupation numbers, and Fermi level.
  Solving generalized eigenproblem
  Updating Kohn-Sham eigenvalues and eigenfunctions.
  Solving real generalised eigenvalue problem by standard LAPACK (fast)
  Determining occupation numbers for Kohn-Sham eigenstates.
  | Chemical potential (Fermi level) in eV                 : -.25504016E+01
  | Error in electron count due to remaining E_F inaccuracy: 0.00000000E+00
  | Maximum occupation number of highest empty state:  0.00E+00

  Highest occupied state (VBM) at     -3.63963113 eV
  | Occupation number:      2.00000000

  Lowest unoccupied state (CBM) at    -1.87260249 eV
  | Occupation number:      0.00000000

  Overall HOMO-LUMO gap:      1.76702864 eV.

  Total energy components:
  | Sum of eigenvalues            :        -248.68077649 Ha       -6766.94822684 eV
  | XC energy correction          :         -55.94412008 Ha       -1522.31696203 eV
  | XC potential correction       :          71.51386153 Ha        1945.99118304 eV
  | Free-atom electrostatic energy:        -214.44544988 Ha       -5835.35759099 eV
  | Hartree energy correction     :         -11.72019733 Ha        -318.92279583 eV
  | van der Waals energy corr.    :           0.00000000 Ha           0.00000000 eV
  | Entropy correction            :           0.00000000 Ha           0.00000000 eV
  | ---------------------------
  | Total energy                  :        -459.27668225 Ha      -12497.55439266 eV
  | Total energy, T -> 0          :        -459.27668225 Ha      -12497.55439266 eV  <-- do not rely on this value for anything but (periodic) metals
  | Electronic free energy        :        -459.27668225 Ha      -12497.55439266 eV

  Derived energy quantities:
  | Kinetic energy                :         458.22793403 Ha       12469.01650160 eV
  | Electrostatic energy          :        -861.56049620 Ha      -23444.25393222 eV
  | Energy correction for multipole
  | error in Hartree potential    :          -0.00862874 Ha          -0.23480007 eV
  | Sum of eigenvalues per atom                           :        -375.94156816 eV
  | Total energy (T->0) per atom                          :        -694.30857737 eV  <-- do not rely on this value for anything but (periodic) metals
  | Electronic free energy per atom                       :        -694.30857737 eV

  Self-consistency convergence accuracy:
  | Change of charge density      : 0.1283E-01
  | Change of sum of eigenvalues  : -.5941E+01 eV
  | Change of total energy        : 0.4806E-02 eV

  End self-consistency iteration #     7       :  max(cpu_time)    wall_clock(cpu1)
  | Time for this iteration                    :        2.800 s           2.799 s
  | Charge density update                      :        0.884 s           0.883 s
  | Density mixing                             :        0.015 s           0.014 s
  | Hartree multipole update                   :        0.006 s           0.007 s
  | Hartree multipole summation                :        0.474 s           0.473 s
  | Integration                                :        1.338 s           1.338 s
  | Solution of K.-S. eqns.                    :        0.082 s           0.082 s
  | Total energy evaluation                    :        0.000 s           0.001 s
------------------------------------------------------------

------------------------------------------------------------
          Begin self-consistency iteration #    8

  Date     :  20150727, Time     :  114204.567
------------------------------------------------------------
  Evaluating new KS density.
  Integration grid: deviation in total charge (<rho> - N_e) =   3.552714E-14
  Pulay mixing of updated and previous charge densities.

  Evaluating partitioned Hartree potential by multipole expansion.
  | Analytical far-field extrapolation by fixed multipoles:
  | Hartree multipole sum: apparent total charge =  -0.916378E-05
  Summing up the Hartree potential.
  Time summed over all CPUs for potential: real work        3.779 s, elapsed        3.784 s
  | RMS charge density error from multipole expansion :   0.200458E-01

  Integrating Hamiltonian matrix: batch-based integration.
  Time summed over all CPUs for integration: real work       10.370 s, elapsed       10.664 s

  Updating Kohn-Sham eigenvalues, eigenvectors, occupation numbers, and Fermi level.
  Solving generalized eigenproblem
  Updating Kohn-Sham eigenvalues and eigenfunctions.
  Solving real generalised eigenvalue problem by standard LAPACK (fast)
  Determining occupation numbers for Kohn-Sham eigenstates.
  | Chemical potential (Fermi level) in eV                 : -.25387297E+01
  | Error in electron count due to remaining E_F inaccuracy: 0.00000000E+00
  | Maximum occupation number of highest empty state:  0.00E+00

  Highest occupied state (VBM) at     -3.59464118 eV
  | Occupation number:      2.00000000

  Lowest unoccupied state (CBM) at    -1.87161337 eV
  | Occupation number:      0.00000000

  Overall HOMO-LUMO gap:      1.72302781 eV.

  Total energy components:
  | Sum of eigenvalues            :        -248.64180371 Ha       -6765.88772348 eV
  | XC energy correction          :         -55.94799663 Ha       -1522.42244837 eV
  | XC potential correction       :          71.51892891 Ha        1946.12907366 eV
  | Free-atom electrostatic energy:        -214.44544988 Ha       -5835.35759099 eV
  | Hartree energy correction     :         -11.76035921 Ha        -320.01565630 eV
  | van der Waals energy corr.    :           0.00000000 Ha           0.00000000 eV
  | Entropy correction            :           0.00000000 Ha           0.00000000 eV
  | ---------------------------
  | Total energy                  :        -459.27668052 Ha      -12497.55434548 eV
  | Total energy, T -> 0          :        -459.27668052 Ha      -12497.55434548 eV  <-- do not rely on this value for anything but (periodic) metals
  | Electronic free energy        :        -459.27668052 Ha      -12497.55434548 eV

  Derived energy quantities:
  | Kinetic energy                :         458.22937949 Ha       12469.05583448 eV
  | Electrostatic energy          :        -861.55806338 Ha      -23444.18773159 eV
  | Energy correction for multipole
  | error in Hartree potential    :          -0.00869048 Ha          -0.23648000 eV
  | Sum of eigenvalues per atom                           :        -375.88265130 eV
  | Total energy (T->0) per atom                          :        -694.30857475 eV  <-- do not rely on this value for anything but (periodic) metals
  | Electronic free energy per atom                       :        -694.30857475 eV

  Self-consistency convergence accuracy:
  | Change of charge density      : 0.2756E-02
  | Change of sum of eigenvalues  : 0.1061E+01 eV
  | Change of total energy        : 0.4718E-04 eV

  End self-consistency iteration #     8       :  max(cpu_time)    wall_clock(cpu1)
  | Time for this iteration                    :        2.782 s           2.782 s
  | Charge density update                      :        0.868 s           0.868 s
  | Density mixing                             :        0.016 s           0.016 s
  | Hartree multipole update                   :        0.006 s           0.006 s
  | Hartree multipole summation                :        0.473 s           0.474 s
  | Integration                                :        1.335 s           1.336 s
  | Solution of K.-S. eqns.                    :        0.081 s           0.080 s
  | Total energy evaluation                    :        0.001 s           0.001 s
------------------------------------------------------------

------------------------------------------------------------
          Begin self-consistency iteration #    9

  Date     :  20150727, Time     :  114207.349
------------------------------------------------------------
  Evaluating new KS density.
  Integration grid: deviation in total charge (<rho> - N_e) =   3.552714E-14
  Pulay mixing of updated and previous charge densities.

[...]
   Pulay + GGA                   : 0.352694E+01 0.192867E+01 0.138119E+02
   Van der Waals               : -.133275E-01 -.444946E-02 -.154344E-02
   ----------------------------------------------------------------
   Total forces(  13)            : 0.805500E+00 0.480966E+00 -.142076E+01
  atom #   14
   Hellmann-Feynman + Multipole  : -.470220E+00 -.258006E+00 0.319044E+00
   Pulay + GGA                   : 0.938105E-01 0.746531E-01 0.528954E-01
   Van der Waals               : -.204044E-02 -.165551E-02 -.134152E-02
   ----------------------------------------------------------------
   Total forces(  14)            : -.378450E+00 -.185008E+00 0.370598E+00
  atom #   15
   Hellmann-Feynman + Multipole  : -.383858E+00 -.126680E+00 0.107838E+01
   Pulay + GGA                   : -.782681E-01 -.335900E-01 0.955991E-01
   Van der Waals               : -.530259E-02 -.120705E-02 -.527349E-02
   ----------------------------------------------------------------
   Total forces(  15)            : -.467428E+00 -.161477E+00 0.116871E+01
  atom #   16
   Hellmann-Feynman + Multipole  : 0.704344E+00 -.163164E+02 0.181177E+01
   Pulay + GGA                   : 0.703129E+00 0.164467E+02 -.361909E+01
   Van der Waals               : 0.835545E-02 -.927100E-02 -.717196E-02
   ----------------------------------------------------------------
   Total forces(  16)            : 0.141583E+01 0.121023E+00 -.181449E+01
  atom #   17
   Hellmann-Feynman + Multipole  : -.253443E+00 0.559644E+00 0.186689E+00
   Pulay + GGA                   : -.723274E-01 0.954573E-01 0.895448E-01
   Van der Waals               : 0.127200E-02 -.139712E-02 -.993637E-03
   ----------------------------------------------------------------
   Total forces(  17)            : -.324498E+00 0.653705E+00 0.275240E+00
  atom #   18
   Hellmann-Feynman + Multipole  : -.108040E+01 -.842525E+00 0.169193E+01
   Pulay + GGA                   : 0.607902E-01 0.711734E-01 -.114911E+00
   Van der Waals               : 0.495212E-02 -.571121E-02 -.188586E-02
   ----------------------------------------------------------------
   Total forces(  18)            : -.101466E+01 -.777062E+00 0.157513E+01
  Timings for vdw_correction_hirshfeld (Tkatchenko-Scheffler 2009):
  | CPU time:        7.346 s, Wall clock time:        7.350 s.
  Removing unitary transformations (pure translations, rotations) from forces on atoms.
  Atomic forces before filtering:
  | Net force on center of mass :  0.552937E-02 0.500401E-02 -.737492E-02 eV/A
  | Net torque on center of mass:  0.482174E-02 0.303874E-02 -.107895E-01 eV
  Atomic forces after filtering:
  | Net force on center of mass :  0.713624E-15 -.178406E-15 -.535218E-15 eV/A
  | Net torque on center of mass:  0.755268E-15 0.377634E-14 -.302107E-14 eV
 
  Energy and forces in a compact form:
  | Total energy uncorrected      :         -0.124976486993740E+05 eV
  | Total energy corrected        :         -0.124976486993740E+05 eV  <-- do not rely on this value for anything but (periodic) metals
  | Electronic free energy        :         -0.124976486993740E+05 eV
  Total atomic forces (unitary forces cleaned) [eV/Ang]:
  |   1         -0.575860624227983E+00          0.264809694269307E+01         -0.176816132689542E+01
  |   2          0.204069230576627E+01         -0.347790901729106E+01          0.137722818309349E+01
  |   3         -0.194492488145545E+01         -0.598550434918636E+00         -0.246842289626245E+00
  |   4         -0.276970942077211E+00         -0.143826613686963E+01         -0.333468195870877E+00
  |   5         -0.490875060563243E+00          0.512634770051142E+00          0.976998051280842E+00
  |   6          0.543031806321886E+00          0.794365385889666E+00          0.316956007498743E+00
  |   7          0.688211964308282E-02          0.126920504275090E+01          0.253562856187417E+01
  |   8         -0.379398650668818E+00         -0.684580869448824E+00         -0.475794899382855E+00
  |   9         -0.255476600367323E+00          0.449421863615485E+00         -0.245304954088278E+01
  |  10          0.316790578158003E+01         -0.243267463851471E-01          0.113683433839710E+01
  |  11         -0.270460875546150E+00         -0.533674237444316E+00         -0.866723873094121E+00
  |  12         -0.159767472154149E+01          0.952598547898351E+00         -0.355869550964656E+00
  |  13          0.805058012006353E+00          0.480943453181396E+00         -0.142039024371268E+01
  |  14         -0.378956216925382E+00         -0.184924877577443E+00          0.370950459618610E+00
  |  15         -0.467847152756684E+00         -0.161522589270659E+00          0.116909069744193E+01
  |  16          0.141527277658599E+01          0.120636569531099E+00         -0.181422725500462E+01
  |  17         -0.325139456449112E+00          0.653293138841624E+00          0.275460313533132E+00
  |  18         -0.101525761932477E+01         -0.777440805247019E+00          0.157538056269622E+01
 
  ------------------------------------ 
  Start decomposition of the XC Energy 
  ------------------------------------ 
  Hartree-Fock part   :          0.000000000 Ha              0.000000000 eV
  ------------------------------------ 
  X Energy            :        -53.981595921 Ha          -1468.913962521 eV
  C Energy GGA        :         -1.964721885 Ha            -53.462802654 eV
  Total XC Energy     :        -55.946317806 Ha          -1522.376765175 eV
  LDA X and C from self-consistent density 
  X Energy LDA        :        -48.649140244 Ha          -1323.810460773 eV
  C Energy LDA        :         -3.961172270 Ha           -107.788981702 eV
  ------------------------------------ 
  End decomposition of the XC Energy 
  ------------------------------------ 
  Performing Hirshfeld analysis of fragment charges and moments.
  ----------------------------------------------------------------------
  | Atom     1: O
  |   Hirshfeld charge        :     -0.40206734
  |   Free atom volume        :     23.95238533
  |   Hirshfeld volume        :     24.54660669
  |   Hirshfeld dipole vector :      0.02686531       0.06682074       0.02889079
  |   Hirshfeld dipole moment :      0.07759790
  |   Hirshfeld second moments:     -0.01234925      -0.02239605       0.01407742
  |                                 -0.02239605      -0.07420173      -0.03488690
  |                                  0.01407742      -0.03488690      -0.09298375
  ----------------------------------------------------------------------
  | Atom     2: H
  |   Hirshfeld charge        :      0.05272804
  |   Free atom volume        :     10.44207651
  |   Hirshfeld volume        :      8.72683093
  |   Hirshfeld dipole vector :     -0.02318026       0.04460247      -0.00981624
  |   Hirshfeld dipole moment :      0.05121585
  |   Hirshfeld second moments:      0.06214217       0.02732946       0.00251458
  |                                  0.02732946       0.01949136       0.00628074
  |                                  0.00251458       0.00628074       0.05629019
  ----------------------------------------------------------------------
  | Atom     3: H
  |   Hirshfeld charge        :      0.04085783
  |   Free atom volume        :     10.44207651
  |   Hirshfeld volume        :      8.98707402
  |   Hirshfeld dipole vector :      0.04598386       0.01446906       0.01720944
  |   Hirshfeld dipole moment :      0.05118627
  |   Hirshfeld second moments:      0.01700270      -0.02853597      -0.00170839
  |                                 -0.02853597       0.05805429      -0.00751686
  |                                 -0.00170839      -0.00751686       0.04543800
  ----------------------------------------------------------------------
  | Atom     4: O
  |   Hirshfeld charge        :     -0.28085002
  |   Free atom volume        :     23.95238533
  |   Hirshfeld volume        :     22.03022999
  |   Hirshfeld dipole vector :     -0.03277988       0.02006556       0.01238394
  |   Hirshfeld dipole moment :      0.04037957
  |   Hirshfeld second moments:      0.02648837       0.05750406      -0.00823214
  |                                  0.05750406       0.02999970       0.02613817
  |                                 -0.00823214       0.02613817      -0.00455857
  ----------------------------------------------------------------------
  | Atom     5: H
  |   Hirshfeld charge        :      0.11731233
  |   Free atom volume        :     10.44207651
  |   Hirshfeld volume        :      7.28598665
  |   Hirshfeld dipole vector :      0.03509725       0.08840967       0.05384762
  |   Hirshfeld dipole moment :      0.10930532
  |   Hirshfeld second moments:      0.10318587       0.02033820      -0.00619103
  |                                  0.02033820       0.08100134       0.00211825
  |                                 -0.00619103       0.00211825       0.08919473
  ----------------------------------------------------------------------
  | Atom     6: H
  |   Hirshfeld charge        :      0.13758590
  |   Free atom volume        :     10.44207651
  |   Hirshfeld volume        :      6.80061395
  |   Hirshfeld dipole vector :     -0.10289430      -0.06293328       0.01808518
  |   Hirshfeld dipole moment :      0.12196273
  |   Hirshfeld second moments:      0.09780373       0.01367729       0.00014239
  |                                  0.01367729       0.11216824       0.01276706
  |                                  0.00014239       0.01276706       0.09908057
  ----------------------------------------------------------------------
  | Atom     7: O
  |   Hirshfeld charge        :     -0.17449663
  |   Free atom volume        :     23.95238533
  |   Hirshfeld volume        :     20.09767834
  |   Hirshfeld dipole vector :      0.03178528      -0.01352971      -0.01585721
  |   Hirshfeld dipole moment :      0.03801063
  |   Hirshfeld second moments:      0.04682318       0.02159289       0.02905695
  |                                  0.02159289       0.08997033       0.01203206
  |                                  0.02905695       0.01203206       0.10800007
  ----------------------------------------------------------------------
  | Atom     8: H
  |   Hirshfeld charge        :      0.17140773
  |   Free atom volume        :     10.44207651
  |   Hirshfeld volume        :      6.27205680
  |   Hirshfeld dipole vector :      0.05720191       0.08693183       0.04024292
  |   Hirshfeld dipole moment :      0.11157372
  |   Hirshfeld second moments:      0.10687042      -0.00142787       0.00217691
  |                                 -0.00142787       0.12085275      -0.00506288
  |                                  0.00217691      -0.00506288       0.13310156
  ----------------------------------------------------------------------
  | Atom     9: H
  |   Hirshfeld charge        :      0.17023601
  |   Free atom volume        :     10.44207651
  |   Hirshfeld volume        :      5.83858105
  |   Hirshfeld dipole vector :     -0.01746108       0.00720278      -0.11928163
  |   Hirshfeld dipole moment :      0.12076786
  |   Hirshfeld second moments:      0.12357975       0.01213619       0.00884208
  |                                  0.01213619       0.13662320       0.00391735
  |                                  0.00884208       0.00391735       0.12745261
  ----------------------------------------------------------------------
  | Atom    10: O
  |   Hirshfeld charge        :     -0.21463627
  |   Free atom volume        :     23.95238533
  |   Hirshfeld volume        :     21.22040183
  |   Hirshfeld dipole vector :     -0.02201714      -0.02978681       0.03354839
  |   Hirshfeld dipole moment :      0.04997503
  |   Hirshfeld second moments:      0.06064595      -0.02751586       0.00752540
  |                                 -0.02751586       0.05761122       0.03029915
  |                                  0.00752540       0.03029915       0.02245684
  ----------------------------------------------------------------------
  | Atom    11: H
  |   Hirshfeld charge        :      0.10421420
  |   Free atom volume        :     10.44207651
  |   Hirshfeld volume        :      7.50153107
  |   Hirshfeld dipole vector :      0.00996910       0.02272726       0.04779841
  |   Hirshfeld dipole moment :      0.05385721
  |   Hirshfeld second moments:      0.10620081      -0.00029283       0.00863290
  |                                 -0.00029283       0.07124748      -0.02479036
  |                                  0.00863290      -0.02479036       0.05971948
  ----------------------------------------------------------------------
  | Atom    12: H
  |   Hirshfeld charge        :      0.15406122
  |   Free atom volume        :     10.44207651
  |   Hirshfeld volume        :      6.22420821
  |   Hirshfeld dipole vector :      0.08798160      -0.07806155       0.01368020
  |   Hirshfeld dipole moment :      0.11841248
  |   Hirshfeld second moments:      0.11611794       0.00037640       0.00066685
  |                                  0.00037640       0.11827145       0.01431880
  |                                  0.00066685       0.01431880       0.11854650
  ----------------------------------------------------------------------
  | Atom    13: O
  |   Hirshfeld charge        :     -0.22320219
  |   Free atom volume        :     23.95238533
  |   Hirshfeld volume        :     20.16103089
  |   Hirshfeld dipole vector :      0.01177829      -0.02131413       0.02421094
  |   Hirshfeld dipole moment :      0.03433933
  |   Hirshfeld second moments:      0.08886530       0.04172175      -0.01702193
  |                                  0.04172175       0.05519984       0.01026839
  |                                 -0.01702193       0.01026839       0.06726945
  ----------------------------------------------------------------------
  | Atom    14: H
  |   Hirshfeld charge        :      0.17131869
  |   Free atom volume        :     10.44207651
  |   Hirshfeld volume        :      5.62429106
  |   Hirshfeld dipole vector :      0.10012127       0.06368390       0.03399764
  |   Hirshfeld dipole moment :      0.12343317
  |   Hirshfeld second moments:      0.12992856       0.00769843      -0.01208633
  |                                  0.00769843       0.12621324      -0.00209369
  |                                 -0.01208633      -0.00209369       0.13734641
  ----------------------------------------------------------------------
  | Atom    15: H
  |   Hirshfeld charge        :      0.16593434
  |   Free atom volume        :     10.44207651
  |   Hirshfeld volume        :      6.33616817
  |   Hirshfeld dipole vector :     -0.06408176      -0.04343392       0.07979625
  |   Hirshfeld dipole moment :      0.11117742
  |   Hirshfeld second moments:      0.11416587       0.01007488       0.01104160
  |                                  0.01007488       0.11666669       0.00446211
  |                                  0.01104160       0.00446211       0.12165103
  ----------------------------------------------------------------------
  | Atom    16: O
  |   Hirshfeld charge        :     -0.28179156
  |   Free atom volume        :     23.95238533
  |   Hirshfeld volume        :     21.58081562
  |   Hirshfeld dipole vector :     -0.00636407       0.04538334      -0.00922771
  |   Hirshfeld dipole moment :      0.04674719
  |   Hirshfeld second moments:      0.00816570      -0.01786310      -0.06017434
  |                                 -0.01786310       0.02041865       0.00369786
  |                                 -0.06017434       0.00369786       0.04232843
  ----------------------------------------------------------------------
  | Atom    17: H
  |   Hirshfeld charge        :      0.14535127
  |   Free atom volume        :     10.44207651
  |   Hirshfeld volume        :      6.11086796
  |   Hirshfeld dipole vector :     -0.06514647       0.08543517       0.06638593
  |   Hirshfeld dipole moment :      0.12629459
  |   Hirshfeld second moments:      0.11150567       0.00232168      -0.01656547
  |                                  0.00232168       0.11542966      -0.00835039
  |                                 -0.01656547      -0.00835039       0.12463743
  ----------------------------------------------------------------------
  | Atom    18: H
  |   Hirshfeld charge        :      0.14602597
  |   Free atom volume        :     10.44207651
  |   Hirshfeld volume        :      6.54374014
  |   Hirshfeld dipole vector :      0.05114145       0.05199681      -0.08961176
  |   Hirshfeld dipole moment :      0.11553954
  |   Hirshfeld second moments:      0.09798831      -0.01109362      -0.00787658
  |                                 -0.01109362       0.11995079       0.00562226
  |                                 -0.00787658       0.00562226       0.10844094
  ----------------------------------------------------------------------


------------------------------------------------------------------------------
  Final output of selected total energy values:

  The following output summarizes some interesting total energy values
  at the end of a run (AFTER all relaxation, molecular dynamics, etc.).

  | Total energy of the DFT / Hartree-Fock s.c.f. calculation      :         -12497.648699374 eV
  | Final zero-broadening corrected energy (caution - metals only) :         -12497.648699374 eV
  | For reference only, the value of 1 Hartree used in FHI-aims is :             27.211384500 eV

  Before relying on these values, please be sure to understand exactly which
  total energy value is referred to by a given number. Different objects may
  all carry the same name 'total energy'. Definitions:

  Total energy of the DFT / Hartree-Fock s.c.f. calculation:
  | Note that this energy does not include ANY quantities calculated after the
  | s.c.f. cycle, in particular not ANY RPA, MP2, etc. many-body perturbation terms.

  Final zero-broadening corrected energy:
  | For metallic systems only, a broadening of the occupation numbers at the Fermi
  | level can be extrapolated back to zero broadening by an electron-gas inspired
  | formula. For all systems that are not real metals, this value can be
  | meaningless and should be avoided.

------------------------------------------------------------------------------

------------------------------------------------------------
          Leaving FHI-aims.
          Date     :  20150727, Time     :  114235.202

          Computational steps:
          | Number of self-consistency cycles          :           16

          Detailed time accounting                     :  max(cpu_time)    wall_clock(cpu1)
          | Total time                                 :       53.481 s          53.507 s
          | Preparation time                           :        0.174 s           0.556 s
          | Grid partitioning                          :        0.160 s           0.160 s
          | Preloading free-atom quantities on grid    :        0.014 s           0.013 s
          | Free-atom superposition energy             :        0.090 s           0.090 s
          | Total time for integrations                :       23.455 s          23.457 s
          | Total time for solution of K.-S. equations :        1.598 s           1.594 s
          | Total time for density & force components  :       17.697 s          17.693 s
          | Total time for mixing                      :        0.246 s           0.247 s
          | Total time for Hartree multipole update    :        0.100 s           0.103 s
          | Total time for Hartree multipole sum       :        9.150 s           9.153 s
          | Total time for total energy evaluation     :        0.008 s           0.020 s
          | Total time for scaled ZORA corrections     :        0.000 s           0.000 s
          | Total time for TS (2009) vdW correction    :        0.078 s           0.081 s

          Have a nice day.
------------------------------------------------------------
