  MPI-parallelism will be employed.
------------------------------------------------------------
          Invoking FHI-aims ...
          Version 081213
          Compiled on 2013/08/29 at 17:41:06 on host generoso.

          When using FHI-aims, please cite the following reference:

          Volker Blum, Ralf Gehrke, Felix Hanke, Paula Havu,
          Ville Havu, Xinguo Ren, Karsten Reuter, and Matthias Scheffler,
          'Ab Initio Molecular Simulations with Numeric Atom-Centered Orbitals: FHI-aims',
          Computer Physics Communications 180, 2175-2196 (2009)

          For any questions about FHI-aims, please visit the aimsclub website
          with its forums and wiki. Contributions to both the forums and the
          wiki are warmly encouraged - they are for you, and everyone is welcome there.

------------------------------------------------------------

  Date     :  20150727, Time     :  122144.083
  Time zero on CPU 1             :   0.419920000000000E-01  s.
  Internal wall clock time zero  :           207231704.083  s.

  Using        8 parallel tasks.
  Task        0 on host gen60 reporting.
  Task        1 on host gen60 reporting.
  Task        2 on host gen60 reporting.
  Task        3 on host gen60 reporting.
  Task        4 on host gen60 reporting.
  Task        5 on host gen60 reporting.
  Task        6 on host gen60 reporting.
  Task        7 on host gen60 reporting.

  Performing system and environment tests:
  | Environment variable OMP_NUM_THREADS correctly set to 1.
  | Checking for scalapack...
  | No scalapack compiled in.

  Obtaining array dimensions for all initial allocations:
  
  -----------------------------------------------------------------------
  Parsing control.in (first pass over file, find array dimensions only).
  The contents of control.in will be repeated verbatim below
  unless switched off by setting 'verbatim_writeout .false.' .
  in the first line of control.in .
  -----------------------------------------------------------------------
  
  #########################################################################################
  #
  #  Volker Blum, FHI 2008 : Test run input file control.in
  #
  #########################################################################################
  #
  #  Physical model
  #
    xc                 rpbe
    spin               none
    relativistic       atomic_zora scalar
    charge             0.
   vdw_correction_hirshfeld
  #
  #  SCF convergence
  #
    occupation_type    gaussian 0.01
    mixer              pulay
      n_max_pulay        10
      charge_mix_param   0.1
    sc_accuracy_rho    5E-5
    sc_accuracy_eev    5E-3
    sc_accuracy_etot   5E-6
    sc_iter_limit      3000
  #
  #  Eigenvalue solver
  #
    KS_method          lapack
      empty_states       8
      basis_threshold    0.e-5
  #
  #  Efficiency
  #
  #   all previous settings are now default, except stratmann still
  #   undecided. Continue to handle stratmann with care, if at all.
  #
  #  partition_type stratmann
    partition_type rho_r2
  #  hartree_partition_type stratmann
  #
  #  Oprions for large clusters (100's of atoms: memory saving / better scaling)
  #
  # for periodic systems:
  #
    density_update_method orbital
    packed_matrix_format none
  #  k_grid 6 6 6
  #  output k_eigenvalue 1
  #  distributed_spline_storage .true.
  #
  #  Relaxation
  #
  #  relax_geometry   bfgs 5.e-3
    sc_accuracy_forces 5.E-4
    final_forces_cleaned .true.
  #
  #  Output options
  #
  #  output mulliken
    output Hirshfeld
  #  output dipole
  
  #harmonic_length_scale 0.001
  
  ################################################################################
  #
  #  FHI-aims code project
  #  VB, Fritz-Haber Institut, 2007
  #
  #  Suggested "safe" defaults for H atom (to be pasted into control.in file)
  #  Basis constructed for a non-relativistic H2 molecule using the
  #  PW-LDA functional.
  #
  ################################################################################
    species        H
  #     global species definitions
      nucleus             1
      cut_pot             4.0  2.0  1.0
      cut_free_atom       finite 8.0
      logarithmic         0.00010000 100.00  1.0123
      basis_dep_cutoff    1d-4  # 1d-4 is safe default - please check 5d-4 if you wish!
      radial_base         24 7.0
      radial_multiplier   2
      angular_grids       specified
        division   0.2783  110
        division   0.3822  194
        division   0.5626  302
  #      division   0.5922  434
  #      division   0.6227  590
  #      division   0.7206  770
        outer_grid  302
      l_hartree           4
  ################################################################################
  #
  #  Definition of "minimal" basis
  #
  ################################################################################
  #     valence basis states
      valence      1  s   1.
  #     ion occupancy
      ion_occ      1  s   0.5
  ################################################################################
  #
  #  Suggested additional basis functions. For production calculations,
  #  uncomment them one after another (the most important basis functions are
  #  listed first).
  #
  ################################################################################
  #  "First tier" - improvements: -1014.90 meV to -62.69 meV
       hydro 2 s 2.1
       hydro 2 p 3.5
  #  "Second tier" - improvements: -12.89 meV to -1.83 meV
       hydro 1 s 0.85
       hydro 2 p 3.7
       hydro 2 s 1.2
       hydro 3 d 7
  #  "Third tier" - improvements: -0.25 meV to -0.12 meV
  #     hydro 4 f 11.2
  #     hydro 3 p 4.8
  #     hydro 4 d 9
  #     hydro 3 s 3.2
  
  ################################################################################
  #
  #  FHI-aims code project
  #  VB, Fritz-Haber Institut, 2007
  #
  #  Suggested "safe" defaults for O atom (to be pasted into control.in file)
  #  All values have been tested for a non-relativistic, non-spinpolarized O2
  #  molecule using the PW-LDA functional. Validity for PBE is expected.
  #
  #  Constructed for dimers: 1.0 A, 1.208 A, 1.5 A, 2.0 A, 3.0 A
  #
  ################################################################################
    species        O
  #     global species definitions
      nucleus             8
      mass                15.9994
      l_hartree           4
      cut_pot             4.0  2.0  1.0
      cut_free_atom       finite 8.0
      basis_dep_cutoff    1d-4  # 1d-4 is safe default - please check 5d-4 if you wish!
      logarithmic         0.00010000 100.00  1.0123
      radial_base         36 7.0
      radial_multiplier   2
       angular_grids specified
        division   0.4087  110
        division   0.5181  194
        division   0.6184  302
  #      division   0.7315  434
  #      division   0.7934  590
  #      division   0.9656  770
  #      division   1.4041  974
  #      outer_grid 974
        outer_grid 302
  ################################################################################
  #
  #  Definition of "minimal" basis
  #
  ################################################################################
  #     valence basis states
      valence      2  s   2.
      valence      2  p   4.
  #     ion occupancy
      ion_occ      2  s   1.
      ion_occ      2  p   3.
  ################################################################################
  #
  #  Suggested additional basis functions. For production calculations,
  #  uncomment them one after another (the most important basis functions are
  #  listed first).
  #
  ################################################################################
  #  "First tier" - improvements: -699.05 meV to -159.38 meV
       hydro 2 p 1.8
       hydro 3 d 7.6
       hydro 3 s 6.4
  #  "Second tier" - improvements: -49.91 meV to -5.39 meV
       hydro 4 f 11.6
       hydro 3 p 6.2
       hydro 3 d 5.6
       hydro 5 g 17.6
       hydro 1 s 0.75
  #  "Third tier" - improvements: -2.83 meV to -0.50 meV
  #     ionic 2 p auto
  #     hydro 4 f 10.8
  #     hydro 4 d 4.7
  #     hydro 2 s 6.8
  #  "Fourth tier" - improvements: -0.40 meV to -0.12 meV
  #     hydro 3 p 5
  #     hydro 3 s 3.3
  #     hydro 5 g 15.6
  #     hydro 4 f 17.6
  #     hydro 4 d 14
  # Further basis functions - -0.08 meV and below
  #     hydro 3 s 2.1
  #     hydro 4 d 11.6
  #     hydro 3 p 16
  #     hydro 2 s 17.2
  
  
  -----------------------------------------------------------------------
  Completed first pass over input file control.in .
  -----------------------------------------------------------------------
  
  
  -----------------------------------------------------------------------
  Parsing geometry.in (first pass over file, find array dimensions only).
  The contents of geometry.in will be repeated verbatim below
  unless switched off by setting 'verbatim_writeout .false.' .
  in the first line of geometry.in .
  -----------------------------------------------------------------------
  
  atom      -4.053030000      0.065001000     -1.525160000  O
  atom      -4.566710000      0.974813000     -1.912820000  H
  atom      -3.067820000      0.330172000     -1.477310000  H
  atom      -5.293160000      2.192130000     -2.328800000  O
  atom      -4.829300000      2.988660000     -1.973850000  H
  atom      -5.428570000      2.328640000     -3.235170000  H
  atom      -1.645860000      0.870179000     -1.502250000  O
  atom      -1.568890000      1.501730000     -0.721051000  H
  atom      -0.824432000      0.282220000     -1.377720000  H
  atom      -1.975360000      2.858040000      0.453140000  O
  atom      -1.223550000      3.375850000      0.786238000  H
  atom      -2.537520000      2.567960000      1.156120000  H
  atom      -5.628340000      3.730740000      1.385610000  O
  atom      -6.090650000      4.418470000      1.860350000  H
  atom      -5.158540000      4.200260000      0.615875000  H
  
  -----------------------------------------------------------------------
  Completed first pass over input file geometry.in .
  -----------------------------------------------------------------------
  
 
  Basic array size parameters: 
  | Number of species                 :        2
  | Number of atoms                   :       15
  | Max. basis fn. angular momentum   :        4
  | Max. atomic/ionic basis occupied n:        2
  | Max. number of basis fn. types    :        2
  | Max. radial fns per species/type  :        8
  | Max. logarithmic grid size        :     1301
  | Max. radial integration grid size :       73
  | Max. angular integration grid size:      302
  | Max. angular grid division number :        8
  | Radial grid for Hartree potential :     1301
  | Number of spin channels           :        1

------------------------------------------------------------
          Reading file control.in.
------------------------------------------------------------
  XC: Using RPBE gradient-corrected functionals.
  Spin treatment: No spin polarisation.
  Scalar relativistic treatment of kinetic energy: on-site free-atom approximation to ZORA.
  Charge =   0.000000E+00: Neutral system requested explicitly.
  Using non-empirical van der Waals correction (Hirshfeld partitioning):
  Occupation type: Gaussian broadening, width =   0.100000E-01 eV.
  Using pulay charge density mixing.
  Pulay mixing - number of memorized iterations:   10
  Charge density mixing - mixing parameter:     0.1000
  Convergence accuracy of self-consistent charge density: 0.5000E-04
  Convergence accuracy of sum of eigenvalues: 0.5000E-02
  Convergence accuracy of total energy: 0.5000E-05
  Maximum number of s.-c. iterations  :  3000
  Kohn-Sham eigenvalues and eigenfunctions calculated by lapack diagonalisation (D&C).
  Number of empty states per atom:        8
  Threshold for basis singularities: 0.0000E+00
  Partition function in integrals calculations: rho / r^2
 Using packed matrix format           0
  Convergence accuracy of forces: 0.5000E-03
  Cleaning forces before final output.
  Hirshfeld charge analysis will be performed.
 
  Reading configuration options for species H                   .
  | Found nuclear charge :   1.0000
  | Found cutoff potl. onset [A], width [A], scale factor :    4.00000    2.00000    1.00000
  | Found cutoff specification for free atom: Cutoff potential begins at    8.00000 A.
  | Found logarithmic grid data [bohr] : 0.1000E-03 0.1000E+03 0.1012E+01
  | Threshold for basis-dependent cutoff potential is   0.100000E-03
  | Found data for basic radial integration grid :    24 points, outermost radius =    7.000 A
  | Found multiplier for basic radial grid :   2
  | Found angular grid specification: user-specified.
  | Specified grid contains     4 separate shells.
  | Check grid settings after all constraints further below.
  | Found l_max for Hartree potential  :   4
  | Found free-atom valence shell :  1 s   1.000
  | No ionic wave fns used. Skipping ion_occ.
  | Found hydrogenic basis function :  2 s   2.100
  | Found hydrogenic basis function :  2 p   3.500
  | Found hydrogenic basis function :  1 s   0.850
  | Found hydrogenic basis function :  2 p   3.700
  | Found hydrogenic basis function :  2 s   1.200
  | Found hydrogenic basis function :  3 d   7.000
  Species H                   : Missing cutoff potential type.
  Defaulting to exp(1/x)/(1-x)^2 type cutoff potential.
  Species H : On-site basis accuracy parameter (for Gram-Schmidt orthonormalisation) not specified.
  Using default value basis_acc =  0.1000000E-03.
  Species H                   : Using default innermost maximum threshold i_radial=  2 for radial functions.
  Species H                   : Basic radial grid will be enhanced according to radial_multiplier =   2, to contain    49 grid points.
 
  Reading configuration options for species O                   .
  | Found nuclear charge :   8.0000
  | Found atomic mass :    15.9994000000000      amu
  | Found l_max for Hartree potential  :   4
  | Found cutoff potl. onset [A], width [A], scale factor :    4.00000    2.00000    1.00000
  | Found cutoff specification for free atom: Cutoff potential begins at    8.00000 A.
  | Threshold for basis-dependent cutoff potential is   0.100000E-03
  | Found logarithmic grid data [bohr] : 0.1000E-03 0.1000E+03 0.1012E+01
  | Found data for basic radial integration grid :    36 points, outermost radius =    7.000 A
  | Found multiplier for basic radial grid :   2
  | Found angular grid specification: user-specified.
  | Specified grid contains     4 separate shells.
  | Check grid settings after all constraints further below.
  | Found free-atom valence shell :  2 s   2.000
  | Found free-atom valence shell :  2 p   4.000
  | No ionic wave fns used. Skipping ion_occ.
  | No ionic wave fns used. Skipping ion_occ.
  | Found hydrogenic basis function :  2 p   1.800
  | Found hydrogenic basis function :  3 d   7.600
  | Found hydrogenic basis function :  3 s   6.400
  | Found hydrogenic basis function :  4 f  11.600
  | Found hydrogenic basis function :  3 p   6.200
  | Found hydrogenic basis function :  3 d   5.600
  | Found hydrogenic basis function :  5 g  17.600
  | Found hydrogenic basis function :  1 s   0.750
  Species O                   : Missing cutoff potential type.
  Defaulting to exp(1/x)/(1-x)^2 type cutoff potential.
  Species O : On-site basis accuracy parameter (for Gram-Schmidt orthonormalisation) not specified.
  Using default value basis_acc =  0.1000000E-03.
  Species O                   : Using default innermost maximum threshold i_radial=  2 for radial functions.
  Species O                   : Basic radial grid will be enhanced according to radial_multiplier =   2, to contain    73 grid points.
 
  Finished reading input file 'control.in'. Consistency checks are next.
 
  Target number of points in a grid batch is not set. Defaulting to  100
  Method for grid partitioning is not set. Defaulting to parallel hash+maxmin partitioning.
  Batch size limit is not set. Defaulting to    200
  By default, will store active basis functions for each batch.
  If in need of memory, prune_basis_once .false. can be used to disable this option.
  communication_type for Hartree potential was not specified.
  Defaulting to calc_hartree .
  Pulay mixer: Number of initial linear mixing iterations not set.
  Defaulting to    0 iterations.
  Work space size for distributed Hartree potential not set.
  Defaulting to   0.200000E+03 MB.
  Algorithm-dependent basis array size parameters:
  | n_max_pulay                         :       10
  Geometry relaxation not requested: no relaxation will be performed.
  Handling of forces: Unphysical translation and rotation will be removed from forces.
  No accuracy limit for integral partition fn. given. Defaulting to 0.1000E-14.
  No threshold value for u(r) in integrations given. Defaulting to 0.1000E-05.
  No accuracy for occupation numbers given. Defaulting to 0.1000E-07.
  No threshold value for occupation numbers given. Defaulting to 0.0000E+00.
  No accuracy for fermi level given. Defaulting to 0.1000E-19.
  Maximum # of iterations to find E_F not set. Defaulting to  200.
  Will not use alltoall communication since running on < 1024 CPUs.
  Partitioning for Hartree potential was not defined. Using partition_type for integrals.
  | Reporting present value of keyword multip_moments_threshold  :       0.10000000E-09
  | This value may affect high angular momentum components of the Hartree potential in periodic systems.
  No q(lm)/r^(l+1) cutoff set for long-range Hartree potential.
  | Using default value of  0.100000E-09 .
  | Verify using the multipole_threshold keyword.
  Defaulting to new monopole extrapolation.
  Density update method: Loop over occupied states selected for charge density update.
------------------------------------------------------------


------------------------------------------------------------
          Reading geometry description geometry.in.
------------------------------------------------------------
  Input structure read successfully.
  The structure contains       15 atoms,  and a total of         50.000 electrons.

  Input geometry:
  | No unit cell requested.
  | Atomic structure:
  |       Atom                x [A]            y [A]            z [A]
  |    1: Species O             -4.053030         0.065001        -1.525160
  |    2: Species H             -4.566710         0.974813        -1.912820
  |    3: Species H             -3.067820         0.330172        -1.477310
  |    4: Species O             -5.293160         2.192130        -2.328800
  |    5: Species H             -4.829300         2.988660        -1.973850
  |    6: Species H             -5.428570         2.328640        -3.235170
  |    7: Species O             -1.645860         0.870179        -1.502250
  |    8: Species H             -1.568890         1.501730        -0.721051
  |    9: Species H             -0.824432         0.282220        -1.377720
  |   10: Species O             -1.975360         2.858040         0.453140
  |   11: Species H             -1.223550         3.375850         0.786238
  |   12: Species H             -2.537520         2.567960         1.156120
  |   13: Species O             -5.628340         3.730740         1.385610
  |   14: Species H             -6.090650         4.418470         1.860350
  |   15: Species H             -5.158540         4.200260         0.615875
  |

  | The smallest distance between any two atoms is         0.92654057 AA.
  |
  | The first atom of this pair is atom number                      4 .
  | The second atom of this pair is atom number                     6 .

  Structure-dependent array size parameters: 
  | Maximum number of distinct radial functions  :       18
  | Maximum number of basis functions            :      345
  | Number of Kohn-Sham states (occupied + empty):       85
------------------------------------------------------------

------------------------------------------------------------
          Preparing all fixed parts of the calculation.
------------------------------------------------------------
  Determining machine precision:
    2.225073858507201E-308
  Setting up grids for atomic and cluster calculations.

  Creating wave function, potential, and density for free atoms.

  Species: H

  List of occupied orbitals and eigenvalues:
    n    l              occ      energy [Ha]    energy [eV]
    1    0           1.0000        -0.241408        -6.5691


  Species: O

  List of occupied orbitals and eigenvalues:
    n    l              occ      energy [Ha]    energy [eV]
    1    0           2.0000       -18.944147      -515.4965
    2    0           2.0000        -0.883529       -24.0421
    2    1           4.0000        -0.330176        -8.9845

  Creating fixed part of basis set: Ionic, confined, hydrogenic.
 
  H                    hydrogenic:
 
  List of hydrogenic basis orbitals: 
    n    l      effective z      eigenvalue [eV]  inner max. [A]     outer max. [A]     outer radius [A]   
    2    0         2.100000       -14.9965           0.193241           1.317192           5.372934
    2    1         3.500000       -41.6672           0.602363           0.602363           4.056010
    1    0         0.850000        -9.8292           0.624864           0.624864           5.372934
    2    1         3.700000       -46.5653           0.573616           0.573616           3.909951
    2    0         1.200000        -4.5995           0.334977           2.228160           5.505921
    3    2         7.000000       -74.0753           0.680692           0.680692           3.769152
 
 
  O                    hydrogenic:
 
  List of hydrogenic basis orbitals: 
    n    l      effective z      eigenvalue [eV]  inner max. [A]     outer max. [A]     outer radius [A]   
    2    1         1.800000       -11.0118           1.178546           1.178546           5.432516
    3    2         7.600000       -87.3182           0.624117           0.624117           3.541422
    3    0         6.400000       -61.9209           0.061166           1.081887           4.306510
    4    3        11.600000      -114.4238           0.731621           0.731621           3.584982
    3    1         6.200000       -58.1113           0.255677           1.030255           4.306510
    3    2         5.600000       -47.4081           0.847222           0.847222           4.413102
    5    4        17.600000      -168.5799           0.749730           0.749730           3.372413
    1    0         0.750000        -7.6499           0.705275           0.705275           5.366508
 

  Adding cutoff potential to free-atom effective potential.
  Creating atomic-like basis functions for current effective potential.

  Species H                   :

  List of atomic basis orbitals and eigenvalues:
    n    l      energy [Ha]    energy [eV]    outer radius [A]
    1    0        -0.241374        -6.5681       5.372934


  Species O                   :

  List of atomic basis orbitals and eigenvalues:
    n    l      energy [Ha]    energy [eV]    outer radius [A]
    1    0       -18.944147      -515.4965       1.415745
    2    0        -0.883529       -24.0421       5.048305
    2    1        -0.330173        -8.9845       5.301302

  Assembling full basis from fixed parts.
  | Species H :   atomic orbital   1 s accepted.
  | Species H :    hydro orbital   2 s accepted.
  | Species H :    hydro orbital   1 s accepted.
  | Species H :    hydro orbital   2 s accepted.
  | Species H :    hydro orbital   2 p accepted.
  | Species H :    hydro orbital   2 p accepted.
  | Species H :    hydro orbital   3 d accepted.
  | Species O :   atomic orbital   1 s accepted.
  | Species O :    hydro orbital   3 s accepted.
  | Species O :   atomic orbital   2 s accepted.
  | Species O :    hydro orbital   1 s accepted.
  | Species O :    hydro orbital   3 p accepted.
  | Species O :   atomic orbital   2 p accepted.
  | Species O :    hydro orbital   2 p accepted.
  | Species O :    hydro orbital   3 d accepted.
  | Species O :    hydro orbital   3 d accepted.
  | Species O :    hydro orbital   4 f accepted.
  | Species O :    hydro orbital   5 g accepted.
 
  Basis size parameters after reduction:
  | Total number of radial functions:       18
  | Total number of basis functions :      345
 
  Testing on-site integration grid accuracy.
  |  Species  Function  <phi|h_atom|phi> (log., in eV)  <phi|h_atom|phi> (rad., in eV)
           1        1                 -6.5683835025                 -6.5684759159
           1        2                 13.3711789951                 13.3708738703
           1        3                 23.6590910787                 23.6532055418
           1        4                 16.2963827186                 16.1870710655 ***
           1        5                 28.7627214838                 28.7627215090
           1        6                 59.5965249172                 59.5965950857
           1        7                 60.2220506392                 60.2220503827
           2        8               -515.4964576505               -515.4964530710
           2        9                 15.3030791347                 15.3030722972
           2       10                -21.7296094581                -21.7296135470
           2       11                 14.2969371730                 14.2969701621
           2       12                 21.0679693190                 21.0679697493
           2       13                 -2.3833606469                 -2.3833613176
           2       14                 13.7067136422                 13.7066766629
           2       15                 45.8013116808                 45.8013116965
           2       16                 52.2309815402                 52.2309831494
           2       17                 85.4120732416                 85.4120732763
           2       18                142.1019167745                142.1019167817
 * Note: Onsite integrals marked "***" above are less accurate than
 * onsite_accuracy_threshold =    0.03000 eV. Usually, this is harmless.
 * When in doubt, tighten the "radial" and/or "radial_multiplier" flags to check.

  Preparing densities etc. for the partition functions (integrals / Hartree potential).

  Preparations completed.
  max(cpu_time)          :      0.171 s.
  Wall clock time (cpu1) :      0.722 s.
------------------------------------------------------------

------------------------------------------------------------
          Begin self-consistency loop: Initialization.

          Date     :  20150727, Time     :  122144.843
------------------------------------------------------------

  Initializing index lists of integration centers etc. from given atomic structure:
  | Number of centers in hartree potential         :        15
  | Number of centers in hartree multipole         :        15
  | Number of centers in electron density summation:        15
  | Number of centers in basis integrals           :        15
  | Number of centers in integrals                 :        15
  Partitioning the integration grid into batches with parallel hashing+maxmin method.
  | Number of batches:     1976
  | Maximal batch size:     166
  | Minimal batch size:      53
  | Average batch size:      99.550
  | Standard deviation of batch sizes:      31.931

  Integration load balanced across     8 MPI tasks.
  Work distribution over tasks is as follows:
  Task     0 has      24531 integration points.
  Task     1 has      24639 integration points.
  Task     2 has      24540 integration points.
  Task     3 has      24646 integration points.
  Task     4 has      24541 integration points.
  Task     5 has      24584 integration points.
  Task     6 has      24639 integration points.
  Task     7 has      24590 integration points.
  Initializing partition tables, free-atom densities, potentials, etc. across the integration grid (initialize_grid_storage).
  | Net number of integration points:   196710
  | of which are non-zero points    :   196138
  Obtaining max. number of non-zero basis functions in each batch (get_n_compute_maxes).
  | Maximal number of non-zero basis functions:      341 in task     0
  | Maximal number of non-zero basis functions:      336 in task     1
  | Maximal number of non-zero basis functions:      341 in task     2
  | Maximal number of non-zero basis functions:      341 in task     3
  | Maximal number of non-zero basis functions:      342 in task     4
  | Maximal number of non-zero basis functions:      341 in task     5
  | Maximal number of non-zero basis functions:      341 in task     6
  | Maximal number of non-zero basis functions:      341 in task     7
  Integrating Hamiltonian matrix: batch-based integration.
  Time summed over all CPUs for integration: real work        6.814 s, elapsed        7.040 s
  Integrating overlap matrix.
  Time summed over all CPUs for integration: real work        3.642 s, elapsed        3.753 s

  Updating Kohn-Sham eigenvalues, eigenvectors, occupation numbers, and Fermi level.
  Solving generalized eigenproblem
  Updating Kohn-Sham eigenvalues and eigenfunctions.
  Transforming overlap matrix and checking for singularities.
  Overlap matrix is nonsingular:
  | Lowest eigenvalue:  0.234072E-03
  Solving real generalised eigenvalue problem by standard LAPACK (fast)
  Determining occupation numbers for Kohn-Sham eigenstates.
  | Chemical potential (Fermi level) in eV                 : -.34554480E+01
  | Error in electron count due to remaining E_F inaccuracy: 0.00000000E+00
  | Maximum occupation number of highest empty state:  0.00E+00

  Writing Kohn-Sham eigenvalues.

  State    Occupation    Eigenvalue [Ha]    Eigenvalue [eV]
      1       2.00000         -19.064797         -518.77953
      2       2.00000         -19.057209         -518.57305
      3       2.00000         -19.044520         -518.22775
      4       2.00000         -19.042520         -518.17335
      5       2.00000         -19.019679         -517.55180
      6       2.00000          -1.121219          -30.50992
      7       2.00000          -1.107914          -30.14787
      8       2.00000          -1.089122          -29.63652
      9       2.00000          -1.086406          -29.56262
     10       2.00000          -1.042036          -28.35525
     11       2.00000          -0.650256          -17.69437
     12       2.00000          -0.649254          -17.66711
     13       2.00000          -0.618314          -16.82518
     14       2.00000          -0.610428          -16.61058
     15       2.00000          -0.604105          -16.43852
     16       2.00000          -0.549844          -14.96203
     17       2.00000          -0.509692          -13.86943
     18       2.00000          -0.501561          -13.64818
     19       2.00000          -0.497906          -13.54872
     20       2.00000          -0.476473          -12.96548
     21       2.00000          -0.443453          -12.06697
     22       2.00000          -0.441039          -12.00128
     23       2.00000          -0.431497          -11.74163
     24       2.00000          -0.430169          -11.70551
     25       2.00000          -0.409727          -11.14924
     26       0.00000          -0.096530           -2.62673
     27       0.00000          -0.070519           -1.91892
     28       0.00000          -0.059098           -1.60813
     29       0.00000          -0.042428           -1.15451
     30       0.00000          -0.015054           -0.40965
     31       0.00000          -0.004749           -0.12923
     32       0.00000           0.016503            0.44907
     33       0.00000           0.024172            0.65776
     34       0.00000           0.043335            1.17920
     35       0.00000           0.056392            1.53450
     36       0.00000           0.071070            1.93392
     37       0.00000           0.078010            2.12277
     38       0.00000           0.092127            2.50690
     39       0.00000           0.097158            2.64382
     40       0.00000           0.098306            2.67504
     41       0.00000           0.103434            2.81457
     42       0.00000           0.108417            2.95018
     43       0.00000           0.119312            3.24665
     44       0.00000           0.133802            3.64094
     45       0.00000           0.136616            3.71750
     46       0.00000           0.143688            3.90995
     47       0.00000           0.147160            4.00444
     48       0.00000           0.154099            4.19326
     49       0.00000           0.171594            4.66930
     50       0.00000           0.179969            4.89720
     51       0.00000           0.192809            5.24659
     52       0.00000           0.203078            5.52603
     53       0.00000           0.218414            5.94334
     54       0.00000           0.236355            6.43155
     55       0.00000           0.242865            6.60869
     56       0.00000           0.265806            7.23296
     57       0.00000           0.279889            7.61617
     58       0.00000           0.295071            8.02930
     59       0.00000           0.309661            8.42631
     60       0.00000           0.323128            8.79277
     61       0.00000           0.341977            9.30567
     62       0.00000           0.350416            9.53531
     63       0.00000           0.358742            9.76187
     64       0.00000           0.368898           10.03823
     65       0.00000           0.380150           10.34440
     66       0.00000           0.393559           10.70928
     67       0.00000           0.396666           10.79384
     68       0.00000           0.409853           11.15268
     69       0.00000           0.421739           11.47610
     70       0.00000           0.426981           11.61875
     71       0.00000           0.450122           12.24845
     72       0.00000           0.452341           12.30883
     73       0.00000           0.467701           12.72680
     74       0.00000           0.497546           13.53890
     75       0.00000           0.513219           13.96540
     76       0.00000           0.516700           14.06012
     77       0.00000           0.541298           14.72946
     78       0.00000           0.553285           15.05566
     79       0.00000           0.574191           15.62454
     80       0.00000           0.593210           16.14206
     81       0.00000           0.646250           17.58535
     82       0.00000           0.674273           18.34789
     83       0.00000           0.686882           18.69102
     84       0.00000           0.728133           19.81350
     85       0.00000           0.750243           20.41515

  Highest occupied state (VBM) at    -11.14923908 eV
  | Occupation number:      2.00000000

  Lowest unoccupied state (CBM) at    -2.62672793 eV
  | Occupation number:      0.00000000

  Overall HOMO-LUMO gap:      8.52251115 eV.
  Calculating total energy contributions from superposition of free atom densities.

  Total energy components:
  | Sum of eigenvalues            :        -216.99828589 Ha       -5904.82379312 eV
  | XC energy correction          :         -45.58074548 Ha       -1240.31519106 eV
  | XC potential correction       :          58.24382350 Ha        1584.89507589 eV
  | Free-atom electrostatic energy:        -178.75548577 Ha       -4864.18425486 eV
  | Hartree energy correction     :           0.00000000 Ha           0.00000000 eV
  | van der Waals energy corr.    :           0.00000000 Ha           0.00000000 eV
  | Entropy correction            :           0.00000000 Ha           0.00000000 eV
  | ---------------------------
  | Total energy                  :        -383.09069365 Ha      -10424.42816315 eV
  | Total energy, T -> 0          :        -383.09069365 Ha      -10424.42816315 eV  <-- do not rely on this value for anything but (periodic) metals
  | Electronic free energy        :        -383.09069365 Ha      -10424.42816315 eV

  Derived energy quantities:
  | Kinetic energy                :         379.16966681 Ha       10317.73159440 eV
  | Electrostatic energy          :        -716.67961498 Ha      -19501.84456648 eV
  | Energy correction for multipole
  | error in Hartree potential    :           0.00000000 Ha           0.00000000 eV
  | Sum of eigenvalues per atom                           :        -393.65491954 eV
  | Total energy (T->0) per atom                          :        -694.96187754 eV  <-- do not rely on this value for anything but (periodic) metals
  | Electronic free energy per atom                       :        -694.96187754 eV
  Initialize hartree_potential_storage
  Max. number of atoms included in rho_multipole:           15

  End scf initialization - timings             :  max(cpu_time)    wall_clock(cpu1)
  | Time for scf. initialization               :        1.915 s           1.914 s
  | Boundary condition initialization          :        0.000 s           0.007 s
  | Integration                                :        1.354 s           1.353 s
  | Solution of K.-S. eqns.                    :        0.196 s           0.196 s
  | Grid partitioning                          :        0.144 s           0.145 s
  | Preloading free-atom quantities on grid    :        0.014 s           0.013 s
  | Free-atom superposition energy             :        0.066 s           0.066 s
  | Total energy evaluation                    :        0.000 s           0.000 s
------------------------------------------------------------

------------------------------------------------------------
          Begin self-consistency iteration #    1

  Date     :  20150727, Time     :  122146.757
------------------------------------------------------------
  Evaluating new KS density.
  Integration grid: deviation in total charge (<rho> - N_e) =  -1.421085E-14
  Pulay mixing of updated and previous charge densities.

  Evaluating partitioned Hartree potential by multipole expansion.
  | Analytical far-field extrapolation by fixed multipoles:
  | Hartree multipole sum: apparent total charge =  -0.239068E-05
  Summing up the Hartree potential.
  Time summed over all CPUs for potential: real work        2.564 s, elapsed        2.572 s
  | RMS charge density error from multipole expansion :   0.165126E-02

  Integrating Hamiltonian matrix: batch-based integration.
  Time summed over all CPUs for integration: real work        6.796 s, elapsed        7.006 s

  Updating Kohn-Sham eigenvalues, eigenvectors, occupation numbers, and Fermi level.
  Solving generalized eigenproblem
  Updating Kohn-Sham eigenvalues and eigenfunctions.
  Solving real generalised eigenvalue problem by standard LAPACK (fast)
  Determining occupation numbers for Kohn-Sham eigenstates.
  | Chemical potential (Fermi level) in eV                 : -.30168631E+01
  | Error in electron count due to remaining E_F inaccuracy: 0.00000000E+00
  | Maximum occupation number of highest empty state:  0.00E+00

  Writing Kohn-Sham eigenvalues.

  State    Occupation    Eigenvalue [Ha]    Eigenvalue [eV]
      1       2.00000         -18.996114         -516.91057
      2       2.00000         -18.985759         -516.62879
      3       2.00000         -18.971706         -516.24638
      4       2.00000         -18.967897         -516.14273
      5       2.00000         -18.921665         -514.88472
      6       2.00000          -1.088318          -29.61464
      7       2.00000          -1.074733          -29.24497
      8       2.00000          -1.051866          -28.62274
      9       2.00000          -1.049752          -28.56522
     10       2.00000          -0.987120          -26.86091
     11       2.00000          -0.622044          -16.92667
     12       2.00000          -0.621113          -16.90134
     13       2.00000          -0.586796          -15.96752
     14       2.00000          -0.578324          -15.73700
     15       2.00000          -0.564711          -15.36657
     16       2.00000          -0.512653          -13.94999
     17       2.00000          -0.474136          -12.90190
     18       2.00000          -0.463859          -12.62225
     19       2.00000          -0.459047          -12.49132
     20       2.00000          -0.434900          -11.83423
     21       2.00000          -0.408151          -11.10636
     22       2.00000          -0.398133          -10.83376
     23       2.00000          -0.390862          -10.63588
     24       2.00000          -0.387632          -10.54800
     25       2.00000          -0.353462           -9.61819
     26       0.00000          -0.089409           -2.43293
     27       0.00000          -0.063484           -1.72750
     28       0.00000          -0.051789           -1.40925
     29       0.00000          -0.035984           -0.97917
     30       0.00000          -0.008531           -0.23214
     31       0.00000           0.001805            0.04911
     32       0.00000           0.028234            0.76827
     33       0.00000           0.032277            0.87830
     34       0.00000           0.053822            1.46456
     35       0.00000           0.065212            1.77450
     36       0.00000           0.080649            2.19457
     37       0.00000           0.087476            2.38034
     38       0.00000           0.101083            2.75061
     39       0.00000           0.103164            2.80723
     40       0.00000           0.109679            2.98452
     41       0.00000           0.111871            3.04416
     42       0.00000           0.123091            3.34949
     43       0.00000           0.132637            3.60923
     44       0.00000           0.142224            3.87010
     45       0.00000           0.142701            3.88309
     46       0.00000           0.153543            4.17811
     47       0.00000           0.156175            4.24973
     48       0.00000           0.179265            4.87805
     49       0.00000           0.182235            4.95886
     50       0.00000           0.193745            5.27208
     51       0.00000           0.200496            5.45578
     52       0.00000           0.212728            5.78862
     53       0.00000           0.227882            6.20099
     54       0.00000           0.247710            6.74053
     55       0.00000           0.249258            6.78267
     56       0.00000           0.275501            7.49677
     57       0.00000           0.288878            7.86078
     58       0.00000           0.303634            8.26229
     59       0.00000           0.320890            8.73186
     60       0.00000           0.333658            9.07929
     61       0.00000           0.350052            9.52541
     62       0.00000           0.363630            9.89487
     63       0.00000           0.367812           10.00868
     64       0.00000           0.377854           10.28193
     65       0.00000           0.389031           10.58608
     66       0.00000           0.403484           10.97937
     67       0.00000           0.407705           11.09422
     68       0.00000           0.420185           11.43380
     69       0.00000           0.430841           11.72377
     70       0.00000           0.434816           11.83194
     71       0.00000           0.458508           12.47662
     72       0.00000           0.460373           12.52739
     73       0.00000           0.481760           13.10936
     74       0.00000           0.507507           13.80998
     75       0.00000           0.523007           14.23174
     76       0.00000           0.526743           14.33341
     77       0.00000           0.551608           15.01002
     78       0.00000           0.564716           15.36669
     79       0.00000           0.590103           16.05753
     80       0.00000           0.604685           16.45433
     81       0.00000           0.660994           17.98656
     82       0.00000           0.688311           18.72989
     83       0.00000           0.701346           19.08458
     84       0.00000           0.742047           20.19213
     85       0.00000           0.763926           20.78748

  Highest occupied state (VBM) at     -9.61818698 eV
  | Occupation number:      2.00000000

  Lowest unoccupied state (CBM) at    -2.43293282 eV
  | Occupation number:      0.00000000

  Overall HOMO-LUMO gap:      7.18525415 eV.

  Total energy components:
  | Sum of eigenvalues            :        -214.70150637 Ha       -5842.32524249 eV
  | XC energy correction          :         -45.82414689 Ha       -1246.93848028 eV
  | XC potential correction       :          58.56236943 Ha        1593.56315168 eV
  | Free-atom electrostatic energy:        -178.75548577 Ha       -4864.18425486 eV
  | Hartree energy correction     :          -2.22267656 Ha         -60.48210658 eV
  | van der Waals energy corr.    :           0.00000000 Ha           0.00000000 eV
  | Entropy correction            :           0.00000000 Ha           0.00000000 eV
  | ---------------------------
  | Total energy                  :        -382.94144616 Ha      -10420.36693253 eV
  | Total energy, T -> 0          :        -382.94144616 Ha      -10420.36693253 eV  <-- do not rely on this value for anything but (periodic) metals
  | Electronic free energy        :        -382.94144616 Ha      -10420.36693253 eV

  Derived energy quantities:
  | Kinetic energy                :         380.62090171 Ha       10357.22170513 eV
  | Electrostatic energy          :        -717.73820099 Ha      -19530.65015737 eV
  | Energy correction for multipole
  | error in Hartree potential    :          -0.00013624 Ha          -0.00370732 eV
  | Sum of eigenvalues per atom                           :        -389.48834950 eV
  | Total energy (T->0) per atom                          :        -694.69112884 eV  <-- do not rely on this value for anything but (periodic) metals
  | Electronic free energy per atom                       :        -694.69112884 eV

  Self-consistency convergence accuracy:
  | Change of charge density      : 0.6664E+00
  | Change of sum of eigenvalues  : 0.6250E+02 eV
  | Change of total energy        : 0.4061E+01 eV

  End self-consistency iteration #     1       :  max(cpu_time)    wall_clock(cpu1)
  | Time for this iteration                    :        1.887 s           1.887 s
  | Charge density update                      :        0.623 s           0.624 s
  | Density mixing                             :        0.004 s           0.003 s
  | Hartree multipole update                   :        0.005 s           0.005 s
  | Hartree multipole summation                :        0.322 s           0.322 s
  | Integration                                :        0.878 s           0.878 s
  | Solution of K.-S. eqns.                    :        0.054 s           0.054 s
  | Total energy evaluation                    :        0.000 s           0.000 s
------------------------------------------------------------

------------------------------------------------------------
          Begin self-consistency iteration #    2

  Date     :  20150727, Time     :  122148.644
------------------------------------------------------------
  Evaluating new KS density.
  Integration grid: deviation in total charge (<rho> - N_e) =   1.421085E-14
  Pulay mixing of updated and previous charge densities.

  Evaluating partitioned Hartree potential by multipole expansion.
  | Analytical far-field extrapolation by fixed multipoles:
  | Hartree multipole sum: apparent total charge =  -0.738081E-05
  Summing up the Hartree potential.
  Time summed over all CPUs for potential: real work        2.564 s, elapsed        2.572 s
  | RMS charge density error from multipole expansion :   0.666130E-02

  Integrating Hamiltonian matrix: batch-based integration.
  Time summed over all CPUs for integration: real work        6.767 s, elapsed        7.000 s

  Updating Kohn-Sham eigenvalues, eigenvectors, occupation numbers, and Fermi level.
  Solving generalized eigenproblem
  Updating Kohn-Sham eigenvalues and eigenfunctions.
  Solving real generalised eigenvalue problem by standard LAPACK (fast)
  Determining occupation numbers for Kohn-Sham eigenstates.
  | Chemical potential (Fermi level) in eV                 : -.21766907E+01
  | Error in electron count due to remaining E_F inaccuracy: 0.00000000E+00
  | Maximum occupation number of highest empty state:  0.00E+00

  Highest occupied state (VBM) at     -5.88863131 eV
  | Occupation number:      2.00000000

  Lowest unoccupied state (CBM) at    -1.99878276 eV
  | Occupation number:      0.00000000

  Overall HOMO-LUMO gap:      3.88984855 eV.

  Total energy components:
  | Sum of eigenvalues            :        -209.18729870 Ha       -5692.27601755 eV
  | XC energy correction          :         -46.43308335 Ha       -1263.50848460 eV
  | XC potential correction       :          59.35864716 Ha        1615.23097125 eV
  | Free-atom electrostatic energy:        -178.75548577 Ha       -4864.18425486 eV
  | Hartree energy correction     :          -7.74668416 Ha        -210.79800127 eV
  | van der Waals energy corr.    :           0.00000000 Ha           0.00000000 eV
  | Entropy correction            :           0.00000000 Ha           0.00000000 eV
  | ---------------------------
  | Total energy                  :        -382.76390483 Ha      -10415.53578702 eV
  | Total energy, T -> 0          :        -382.76390483 Ha      -10415.53578702 eV  <-- do not rely on this value for anything but (periodic) metals
  | Electronic free energy        :        -382.76390483 Ha      -10415.53578702 eV

  Derived energy quantities:
  | Kinetic energy                :         383.58041005 Ha       10437.75402466 eV
  | Electrostatic energy          :        -719.91123153 Ha      -19589.78132708 eV
  | Energy correction for multipole
  | error in Hartree potential    :          -0.00129858 Ha          -0.03533609 eV
  | Sum of eigenvalues per atom                           :        -379.48506784 eV
  | Total energy (T->0) per atom                          :        -694.36905247 eV  <-- do not rely on this value for anything but (periodic) metals
  | Electronic free energy per atom                       :        -694.36905247 eV

  Self-consistency convergence accuracy:
  | Change of charge density      : 0.5044E+00
  | Change of sum of eigenvalues  : 0.1500E+03 eV
  | Change of total energy        : 0.4831E+01 eV

  End self-consistency iteration #     2       :  max(cpu_time)    wall_clock(cpu1)
  | Time for this iteration                    :        1.876 s           1.876 s
  | Charge density update                      :        0.612 s           0.612 s
  | Density mixing                             :        0.006 s           0.006 s
  | Hartree multipole update                   :        0.005 s           0.004 s
  | Hartree multipole summation                :        0.322 s           0.323 s
  | Integration                                :        0.877 s           0.877 s
  | Solution of K.-S. eqns.                    :        0.054 s           0.054 s
  | Total energy evaluation                    :        0.000 s           0.000 s
------------------------------------------------------------

------------------------------------------------------------
          Begin self-consistency iteration #    3

  Date     :  20150727, Time     :  122150.520
------------------------------------------------------------
  Evaluating new KS density.
  Integration grid: deviation in total charge (<rho> - N_e) =   0.000000E+00
  Pulay mixing of updated and previous charge densities.

  Evaluating partitioned Hartree potential by multipole expansion.
  | Analytical far-field extrapolation by fixed multipoles:
  | Hartree multipole sum: apparent total charge =  -0.859733E-05
  Summing up the Hartree potential.
  Time summed over all CPUs for potential: real work        2.563 s, elapsed        2.569 s
  | RMS charge density error from multipole expansion :   0.132967E-01

  Integrating Hamiltonian matrix: batch-based integration.
  Time summed over all CPUs for integration: real work        6.770 s, elapsed        6.976 s

  Updating Kohn-Sham eigenvalues, eigenvectors, occupation numbers, and Fermi level.
  Solving generalized eigenproblem
  Updating Kohn-Sham eigenvalues and eigenfunctions.
  Solving real generalised eigenvalue problem by standard LAPACK (fast)
  Determining occupation numbers for Kohn-Sham eigenstates.
  | Chemical potential (Fermi level) in eV                 : -.19961509E+01
  | Error in electron count due to remaining E_F inaccuracy: 0.14620127E-09
  | Maximum occupation number of highest empty state:  0.00E+00

  Highest occupied state (VBM) at     -5.52129863 eV
  | Occupation number:      2.00000000

  Lowest unoccupied state (CBM) at    -1.95083042 eV
  | Occupation number:      0.00000000

  Overall HOMO-LUMO gap:      3.57046821 eV.

  Total energy components:
  | Sum of eigenvalues            :        -209.39885117 Ha       -5698.03265302 eV
  | XC energy correction          :         -46.39765590 Ha       -1262.54445448 eV
  | XC potential correction       :          59.30747275 Ha        1613.83844462 eV
  | Free-atom electrostatic energy:        -178.75548577 Ha       -4864.18425486 eV
  | Hartree energy correction     :          -7.51352434 Ha        -204.45339989 eV
  | van der Waals energy corr.    :           0.00000000 Ha           0.00000000 eV
  | Entropy correction            :           0.00000000 Ha           0.00000000 eV
  | ---------------------------
  | Total energy                  :        -382.75804444 Ha      -10415.37631762 eV
  | Total energy, T -> 0          :        -382.75804444 Ha      -10415.37631762 eV  <-- do not rely on this value for anything but (periodic) metals
  | Electronic free energy        :        -382.75804444 Ha      -10415.37631762 eV

  Derived energy quantities:
  | Kinetic energy                :         381.48302488 Ha       10380.68127019 eV
  | Electrostatic energy          :        -717.84341342 Ha      -19533.51313333 eV
  | Energy correction for multipole
  | error in Hartree potential    :          -0.00582119 Ha          -0.15840259 eV
  | Sum of eigenvalues per atom                           :        -379.86884353 eV
  | Total energy (T->0) per atom                          :        -694.35842117 eV  <-- do not rely on this value for anything but (periodic) metals
  | Electronic free energy per atom                       :        -694.35842117 eV

  Self-consistency convergence accuracy:
  | Change of charge density      : 0.2487E+00
  | Change of sum of eigenvalues  : -.5757E+01 eV
  | Change of total energy        : 0.1595E+00 eV

  End self-consistency iteration #     3       :  max(cpu_time)    wall_clock(cpu1)
  | Time for this iteration                    :        1.874 s           1.874 s
  | Charge density update                      :        0.612 s           0.612 s
  | Density mixing                             :        0.007 s           0.007 s
  | Hartree multipole update                   :        0.005 s           0.005 s
  | Hartree multipole summation                :        0.322 s           0.322 s
  | Integration                                :        0.874 s           0.874 s
  | Solution of K.-S. eqns.                    :        0.054 s           0.054 s
  | Total energy evaluation                    :        0.000 s           0.000 s
------------------------------------------------------------

------------------------------------------------------------
          Begin self-consistency iteration #    4

  Date     :  20150727, Time     :  122152.395
------------------------------------------------------------
  Evaluating new KS density.
  Integration grid: deviation in total charge (<rho> - N_e) =   1.461800E-10
  Pulay mixing of updated and previous charge densities.

  Evaluating partitioned Hartree potential by multipole expansion.
  | Analytical far-field extrapolation by fixed multipoles:
  | Hartree multipole sum: apparent total charge =  -0.106562E-04
  Summing up the Hartree potential.
  Time summed over all CPUs for potential: real work        2.563 s, elapsed        2.572 s
  | RMS charge density error from multipole expansion :   0.174681E-01

  Integrating Hamiltonian matrix: batch-based integration.
  Time summed over all CPUs for integration: real work        6.766 s, elapsed        6.980 s

  Updating Kohn-Sham eigenvalues, eigenvectors, occupation numbers, and Fermi level.
  Solving generalized eigenproblem
  Updating Kohn-Sham eigenvalues and eigenfunctions.
  Solving real generalised eigenvalue problem by standard LAPACK (fast)
  Determining occupation numbers for Kohn-Sham eigenstates.
  | Chemical potential (Fermi level) in eV                 : -.28168874E+01
  | Error in electron count due to remaining E_F inaccuracy: 0.00000000E+00
  | Maximum occupation number of highest empty state:  0.00E+00

  Highest occupied state (VBM) at     -4.15194345 eV
  | Occupation number:      2.00000000

  Lowest unoccupied state (CBM) at    -1.81787775 eV
  | Occupation number:      0.00000000

  Overall HOMO-LUMO gap:      2.33406570 eV.

  Total energy components:
  | Sum of eigenvalues            :        -207.64799516 Ha       -5650.38943707 eV
  | XC energy correction          :         -46.60876733 Ha       -1268.28908877 eV
  | XC potential correction       :          59.58282227 Ha        1621.33108643 eV
  | Free-atom electrostatic energy:        -178.75548577 Ha       -4864.18425486 eV
  | Hartree energy correction     :          -9.31628090 Ha        -253.50890159 eV
  | van der Waals energy corr.    :           0.00000000 Ha           0.00000000 eV
  | Entropy correction            :           0.00000000 Ha           0.00000000 eV
  | ---------------------------
  | Total energy                  :        -382.74570689 Ha      -10415.04059585 eV
  | Total energy, T -> 0          :        -382.74570689 Ha      -10415.04059585 eV  <-- do not rely on this value for anything but (periodic) metals
  | Electronic free energy        :        -382.74570689 Ha      -10415.04059585 eV

  Derived energy quantities:
  | Kinetic energy                :         381.65436144 Ha       10385.34357531 eV
  | Electrostatic energy          :        -717.79130100 Ha      -19532.09508240 eV
  | Energy correction for multipole
  | error in Hartree potential    :          -0.00798029 Ha          -0.21715469 eV
  | Sum of eigenvalues per atom                           :        -376.69262914 eV
  | Total energy (T->0) per atom                          :        -694.33603972 eV  <-- do not rely on this value for anything but (periodic) metals
  | Electronic free energy per atom                       :        -694.33603972 eV

  Self-consistency convergence accuracy:
  | Change of charge density      : 0.1392E+00
  | Change of sum of eigenvalues  : 0.4764E+02 eV
  | Change of total energy        : 0.3357E+00 eV

  End self-consistency iteration #     4       :  max(cpu_time)    wall_clock(cpu1)
  | Time for this iteration                    :        1.853 s           1.852 s
  | Charge density update                      :        0.589 s           0.588 s
  | Density mixing                             :        0.008 s           0.008 s
  | Hartree multipole update                   :        0.005 s           0.005 s
  | Hartree multipole summation                :        0.322 s           0.322 s
  | Integration                                :        0.874 s           0.875 s
  | Solution of K.-S. eqns.                    :        0.054 s           0.054 s
  | Total energy evaluation                    :        0.000 s           0.000 s
------------------------------------------------------------

------------------------------------------------------------
          Begin self-consistency iteration #    5

  Date     :  20150727, Time     :  122154.247
------------------------------------------------------------
  Evaluating new KS density.
  Integration grid: deviation in total charge (<rho> - N_e) =  -7.105427E-15
  Pulay mixing of updated and previous charge densities.

  Evaluating partitioned Hartree potential by multipole expansion.
  | Analytical far-field extrapolation by fixed multipoles:
  | Hartree multipole sum: apparent total charge =  -0.107803E-04
  Summing up the Hartree potential.
  Time summed over all CPUs for potential: real work        2.563 s, elapsed        2.570 s
  | RMS charge density error from multipole expansion :   0.179697E-01

  Integrating Hamiltonian matrix: batch-based integration.
  Time summed over all CPUs for integration: real work        6.764 s, elapsed        6.962 s

  Updating Kohn-Sham eigenvalues, eigenvectors, occupation numbers, and Fermi level.
  Solving generalized eigenproblem
  Updating Kohn-Sham eigenvalues and eigenfunctions.
  Solving real generalised eigenvalue problem by standard LAPACK (fast)
  Determining occupation numbers for Kohn-Sham eigenstates.
  | Chemical potential (Fermi level) in eV                 : -.28016023E+01
  | Error in electron count due to remaining E_F inaccuracy: 0.00000000E+00
  | Maximum occupation number of highest empty state:  0.00E+00

  Highest occupied state (VBM) at     -4.09100712 eV
  | Occupation number:      2.00000000

  Lowest unoccupied state (CBM) at    -1.80882571 eV
  | Occupation number:      0.00000000

  Overall HOMO-LUMO gap:      2.28218141 eV.

  Total energy components:
  | Sum of eigenvalues            :        -207.58235837 Ha       -5648.60336900 eV
  | XC energy correction          :         -46.62225665 Ha       -1268.65615200 eV
  | XC potential correction       :          59.59990892 Ha        1621.79603766 eV
  | Free-atom electrostatic energy:        -178.75548577 Ha       -4864.18425486 eV
  | Hartree energy correction     :          -9.38536218 Ha        -255.38869902 eV
  | van der Waals energy corr.    :           0.00000000 Ha           0.00000000 eV
  | Entropy correction            :           0.00000000 Ha           0.00000000 eV
  | ---------------------------
  | Total energy                  :        -382.74555406 Ha      -10415.03643722 eV
  | Total energy, T -> 0          :        -382.74555406 Ha      -10415.03643722 eV  <-- do not rely on this value for anything but (periodic) metals
  | Electronic free energy        :        -382.74555406 Ha      -10415.03643722 eV

  Derived energy quantities:
  | Kinetic energy                :         381.71314807 Ha       10386.94324089 eV
  | Electrostatic energy          :        -717.83644548 Ha      -19533.32352611 eV
  | Energy correction for multipole
  | error in Hartree potential    :          -0.00807691 Ha          -0.21978393 eV
  | Sum of eigenvalues per atom                           :        -376.57355793 eV
  | Total energy (T->0) per atom                          :        -694.33576248 eV  <-- do not rely on this value for anything but (periodic) metals
  | Electronic free energy per atom                       :        -694.33576248 eV

  Self-consistency convergence accuracy:
  | Change of charge density      : 0.2647E-01
  | Change of sum of eigenvalues  : 0.1786E+01 eV
  | Change of total energy        : 0.4159E-02 eV

  End self-consistency iteration #     5       :  max(cpu_time)    wall_clock(cpu1)
  | Time for this iteration                    :        1.877 s           1.877 s
  | Charge density update                      :        0.614 s           0.614 s
  | Density mixing                             :        0.010 s           0.010 s
  | Hartree multipole update                   :        0.005 s           0.005 s
  | Hartree multipole summation                :        0.322 s           0.322 s
  | Integration                                :        0.872 s           0.872 s
  | Solution of K.-S. eqns.                    :        0.054 s           0.054 s
  | Total energy evaluation                    :        0.000 s           0.000 s
------------------------------------------------------------

------------------------------------------------------------
          Begin self-consistency iteration #    6

  Date     :  20150727, Time     :  122156.124
------------------------------------------------------------
  Evaluating new KS density.
  Integration grid: deviation in total charge (<rho> - N_e) =   7.105427E-15
  Pulay mixing of updated and previous charge densities.

  Evaluating partitioned Hartree potential by multipole expansion.
  | Analytical far-field extrapolation by fixed multipoles:
  | Hartree multipole sum: apparent total charge =  -0.108190E-04
  Summing up the Hartree potential.
  Time summed over all CPUs for potential: real work        2.564 s, elapsed        2.571 s
  | RMS charge density error from multipole expansion :   0.181506E-01

  Integrating Hamiltonian matrix: batch-based integration.
  Time summed over all CPUs for integration: real work        6.764 s, elapsed        6.961 s

  Updating Kohn-Sham eigenvalues, eigenvectors, occupation numbers, and Fermi level.
  Solving generalized eigenproblem
  Updating Kohn-Sham eigenvalues and eigenfunctions.
  Solving real generalised eigenvalue problem by standard LAPACK (fast)
  Determining occupation numbers for Kohn-Sham eigenstates.
  | Chemical potential (Fermi level) in eV                 : -.27982963E+01
  | Error in electron count due to remaining E_F inaccuracy: 0.00000000E+00
  | Maximum occupation number of highest empty state:  0.00E+00

  Highest occupied state (VBM) at     -4.08556632 eV
  | Occupation number:      2.00000000

  Lowest unoccupied state (CBM) at    -1.80617731 eV
  | Occupation number:      0.00000000

  Overall HOMO-LUMO gap:      2.27938901 eV.

  Total energy components:
  | Sum of eigenvalues            :        -207.56857243 Ha       -5648.22823451 eV
  | XC energy correction          :         -46.62554417 Ha       -1268.74561002 eV
  | XC potential correction       :          59.60400882 Ha        1621.90760179 eV
  | Free-atom electrostatic energy:        -178.75548577 Ha       -4864.18425486 eV
  | Hartree energy correction     :          -9.39998689 Ha        -255.78665745 eV
  | van der Waals energy corr.    :           0.00000000 Ha           0.00000000 eV
  | Entropy correction            :           0.00000000 Ha           0.00000000 eV
  | ---------------------------
  | Total energy                  :        -382.74558044 Ha      -10415.03715504 eV
  | Total energy, T -> 0          :        -382.74558044 Ha      -10415.03715504 eV  <-- do not rely on this value for anything but (periodic) metals
  | Electronic free energy        :        -382.74558044 Ha      -10415.03715504 eV

  Derived energy quantities:
  | Kinetic energy                :         381.72155833 Ha       10387.17209560 eV
  | Electrostatic energy          :        -717.84159460 Ha      -19533.46364062 eV
  | Energy correction for multipole
  | error in Hartree potential    :          -0.00811810 Ha          -0.22090483 eV
  | Sum of eigenvalues per atom                           :        -376.54854897 eV
  | Total energy (T->0) per atom                          :        -694.33581034 eV  <-- do not rely on this value for anything but (periodic) metals
  | Electronic free energy per atom                       :        -694.33581034 eV

  Self-consistency convergence accuracy:
  | Change of charge density      : 0.1188E-01
  | Change of sum of eigenvalues  : 0.3751E+00 eV
  | Change of total energy        : -.7178E-03 eV

  End self-consistency iteration #     6       :  max(cpu_time)    wall_clock(cpu1)
  | Time for this iteration                    :        1.880 s           1.880 s
  | Charge density update                      :        0.615 s           0.615 s
  | Density mixing                             :        0.011 s           0.011 s
  | Hartree multipole update                   :        0.005 s           0.005 s
  | Hartree multipole summation                :        0.322 s           0.322 s
  | Integration                                :        0.873 s           0.872 s
  | Solution of K.-S. eqns.                    :        0.054 s           0.054 s
  | Total energy evaluation                    :        0.000 s           0.001 s
------------------------------------------------------------

------------------------------------------------------------
          Begin self-consistency iteration #    7

  Date     :  20150727, Time     :  122158.004
------------------------------------------------------------
  Evaluating new KS density.
  Integration grid: deviation in total charge (<rho> - N_e) =  -1.421085E-14
  Pulay mixing of updated and previous charge densities.

  Evaluating partitioned Hartree potential by multipole expansion.
  | Analytical far-field extrapolation by fixed multipoles:
  | Hartree multipole sum: apparent total charge =  -0.106171E-04
  Summing up the Hartree potential.
  Time summed over all CPUs for potential: real work        2.563 s, elapsed        2.570 s
  | RMS charge density error from multipole expansion :   0.180794E-01

  Integrating Hamiltonian matrix: batch-based integration.
  Time summed over all CPUs for integration: real work        6.765 s, elapsed        6.976 s

  Updating Kohn-Sham eigenvalues, eigenvectors, occupation numbers, and Fermi level.
  Solving generalized eigenproblem
  Updating Kohn-Sham eigenvalues and eigenfunctions.
  Solving real generalised eigenvalue problem by standard LAPACK (fast)
  Determining occupation numbers for Kohn-Sham eigenstates.
  | Chemical potential (Fermi level) in eV                 : -.28603590E+01
  | Error in electron count due to remaining E_F inaccuracy: 0.00000000E+00
  | Maximum occupation number of highest empty state:  0.00E+00

  Highest occupied state (VBM) at     -4.26763803 eV
  | Occupation number:      2.00000000

  Lowest unoccupied state (CBM) at    -1.81855839 eV
  | Occupation number:      0.00000000

  Overall HOMO-LUMO gap:      2.44907964 eV.

  Total energy components:
  | Sum of eigenvalues            :        -207.74021006 Ha       -5652.89873219 eV
  | XC energy correction          :         -46.60813712 Ha       -1268.27193993 eV
  | XC potential correction       :          59.58066990 Ha        1621.27251750 eV
  | Free-atom electrostatic energy:        -178.75548577 Ha       -4864.18425486 eV
  | Hartree energy correction     :          -9.22227691 Ha        -250.95092303 eV
  | van der Waals energy corr.    :           0.00000000 Ha           0.00000000 eV
  | Entropy correction            :           0.00000000 Ha           0.00000000 eV
  | ---------------------------
  | Total energy                  :        -382.74543996 Ha      -10415.03333249 eV
  | Total energy, T -> 0          :        -382.74543996 Ha      -10415.03333249 eV  <-- do not rely on this value for anything but (periodic) metals
  | Electronic free energy        :        -382.74543996 Ha      -10415.03333249 eV

  Derived energy quantities:
  | Kinetic energy                :         381.76975409 Ha       10388.48356909 eV
  | Electrostatic energy          :        -717.90705694 Ha      -19535.24496166 eV
  | Energy correction for multipole
  | error in Hartree potential    :          -0.00787703 Ha          -0.21434485 eV
  | Sum of eigenvalues per atom                           :        -376.85991548 eV
  | Total energy (T->0) per atom                          :        -694.33555550 eV  <-- do not rely on this value for anything but (periodic) metals
  | Electronic free energy per atom                       :        -694.33555550 eV

  Self-consistency convergence accuracy:
  | Change of charge density      : 0.1163E-01
  | Change of sum of eigenvalues  : -.4670E+01 eV
  | Change of total energy        : 0.3823E-02 eV

  End self-consistency iteration #     7       :  max(cpu_time)    wall_clock(cpu1)
  | Time for this iteration                    :        1.884 s           1.884 s
  | Charge density update                      :        0.616 s           0.616 s
  | Density mixing                             :        0.013 s           0.012 s
  | Hartree multipole update                   :        0.005 s           0.005 s
  | Hartree multipole summation                :        0.322 s           0.322 s
  | Integration                                :        0.874 s           0.874 s
  | Solution of K.-S. eqns.                    :        0.054 s           0.054 s
  | Total energy evaluation                    :        0.000 s           0.001 s
------------------------------------------------------------

------------------------------------------------------------
          Begin self-consistency iteration #    8

  Date     :  20150727, Time     :  122159.888
------------------------------------------------------------
  Evaluating new KS density.
  Integration grid: deviation in total charge (<rho> - N_e) =  -2.131628E-14
  Pulay mixing of updated and previous charge densities.

  Evaluating partitioned Hartree potential by multipole expansion.
  | Analytical far-field extrapolation by fixed multipoles:
  | Hartree multipole sum: apparent total charge =  -0.106527E-04
  Summing up the Hartree potential.
  Time summed over all CPUs for potential: real work        2.563 s, elapsed        2.570 s
  | RMS charge density error from multipole expansion :   0.181578E-01

  Integrating Hamiltonian matrix: batch-based integration.
  Time summed over all CPUs for integration: real work        6.763 s, elapsed        6.974 s

  Updating Kohn-Sham eigenvalues, eigenvectors, occupation numbers, and Fermi level.
  Solving generalized eigenproblem
  Updating Kohn-Sham eigenvalues and eigenfunctions.
  Solving real generalised eigenvalue problem by standard LAPACK (fast)
  Determining occupation numbers for Kohn-Sham eigenstates.
  | Chemical potential (Fermi level) in eV                 : -.28492109E+01
  | Error in electron count due to remaining E_F inaccuracy: 0.00000000E+00
  | Maximum occupation number of highest empty state:  0.00E+00

  Highest occupied state (VBM) at     -4.22478289 eV
  | Occupation number:      2.00000000

  Lowest unoccupied state (CBM) at    -1.81729076 eV
  | Occupation number:      0.00000000

  Overall HOMO-LUMO gap:      2.40749213 eV.

  Total energy components:
  | Sum of eigenvalues            :        -207.70845042 Ha       -5652.03450840 eV
  | XC energy correction          :         -46.61161642 Ha       -1268.36661661 eV
  | XC potential correction       :          59.58521283 Ha        1621.39613672 eV
  | Free-atom electrostatic energy:        -178.75548577 Ha       -4864.18425486 eV
  | Hartree energy correction     :          -9.25509905 Ha        -251.84405890 eV
  | van der Waals energy corr.    :           0.00000000 Ha           0.00000000 eV
  | Entropy correction            :           0.00000000 Ha           0.00000000 eV
  | ---------------------------
  | Total energy                  :        -382.74543885 Ha      -10415.03330205 eV
  | Total energy, T -> 0          :        -382.74543885 Ha      -10415.03330205 eV  <-- do not rely on this value for anything but (periodic) metals
  | Electronic free energy        :        -382.74543885 Ha      -10415.03330205 eV

  Derived energy quantities:
  | Kinetic energy                :         381.77175183 Ha       10388.53793016 eV
  | Electrostatic energy          :        -717.90557425 Ha      -19535.20461559 eV
  | Energy correction for multipole
  | error in Hartree potential    :          -0.00793530 Ha          -0.21593042 eV
  | Sum of eigenvalues per atom                           :        -376.80230056 eV
  | Total energy (T->0) per atom                          :        -694.33555347 eV  <-- do not rely on this value for anything but (periodic) metals
  | Electronic free energy per atom                       :        -694.33555347 eV

  Self-consistency convergence accuracy:
  | Change of charge density      : 0.2550E-02
  | Change of sum of eigenvalues  : 0.8642E+00 eV
  | Change of total energy        : 0.3045E-04 eV

  End self-consistency iteration #     8       :  max(cpu_time)    wall_clock(cpu1)
  | Time for this iteration                    :        1.885 s           1.885 s
  | Charge density update                      :        0.616 s           0.616 s
  | Density mixing                             :        0.014 s           0.013 s
  | Hartree multipole update                   :        0.005 s           0.005 s
  | Hartree multipole summation                :        0.322 s           0.322 s
  | Integration                                :        0.874 s           0.874 s
  | Solution of K.-S. eqns.                    :        0.054 s           0.054 s
  | Total energy evaluation                    :        0.000 s           0.000 s
------------------------------------------------------------

------------------------------------------------------------
          Begin self-consistency iteration #    9

  Date     :  20150727, Time     :  122201.773
------------------------------------------------------------
  Evaluating new KS density.
  Integration grid: deviation in total charge (<rho> - N_e) =  -7.105427E-15
  Pulay mixing of updated and previous charge densities.

  Evaluating partitioned Hartree potential by multipole expansion.
  | Analytical far-field extrapolation by fixed multipoles:
  | Hartree multipole sum: apparent total charge =  -0.106463E-04
  Summing up the Hartree potential.
  Time summed over all CPUs for potential: real work        2.575 s, elapsed        2.629 s
  | RMS charge density error from multipole expansion :   0.181535E-01

  Integrating Hamiltonian matrix: batch-based integration.
  Time summed over all CPUs for integration: real work        6.766 s, elapsed        6.978 s

  Updating Kohn-Sham eigenvalues, eigenvectors, occupation numbers, and Fermi level.
  Solving generalized eigenproblem
  Updating Kohn-Sham eigenvalues and eigenfunctions.
  Solving real generalised eigenvalue problem by standard LAPACK (fast)
  Determining occupation numbers for Kohn-Sham eigenstates.
  | Chemical potential (Fermi level) in eV                 : -.28501435E+01
  | Error in electron count due to remaining E_F inaccuracy: 0.00000000E+00
  | Maximum occupation number of highest empty state:  0.00E+00

  Highest occupied state (VBM) at     -4.22787125 eV
  | Occupation number:      2.00000000

  Lowest unoccupied state (CBM) at    -1.81780308 eV
  | Occupation number:      0.00000000

  Overall HOMO-LUMO gap:      2.41006817 eV.

  Total energy components:
  | Sum of eigenvalues            :        -207.71049031 Ha       -5652.09001639 eV
  | XC energy correction          :         -46.61127798 Ha       -1268.35740720 eV
  | XC potential correction       :          59.58475529 Ha        1621.38368660 eV
  | Free-atom electrostatic energy:        -178.75548577 Ha       -4864.18425486 eV
  | Hartree energy correction     :          -9.25293874 Ha        -251.78527378 eV
  | van der Waals energy corr.    :           0.00000000 Ha           0.00000000 eV
  | Entropy correction            :           0.00000000 Ha           0.00000000 eV
  | ---------------------------
  | Total energy                  :        -382.74543751 Ha      -10415.03326562 eV
  | Total energy, T -> 0          :        -382.74543751 Ha      -10415.03326562 eV  <-- do not rely on this value for anything but (periodic) metals
  | Electronic free energy        :        -382.74543751 Ha      -10415.03326562 eV

  Derived energy quantities:
  | Kinetic energy                :         381.77642712 Ha       10388.66515131 eV
  | Electrostatic energy          :        -717.91058664 Ha      -19535.34100973 eV
  | Energy correction for multipole
[...]
   ----------------------------------------------------------------
   Total forces(   4)            : 0.730024E-01 0.119227E+01 0.254288E+01
  atom #    5
   Hellmann-Feynman + Multipole  : -.432679E+00 -.808529E+00 -.506359E+00
   Pulay + GGA                   : 0.457101E-01 0.127917E+00 0.389263E-01
   Van der Waals               : 0.320342E-02 0.123814E-02 0.382702E-02
   ----------------------------------------------------------------
   Total forces(   5)            : -.383766E+00 -.679374E+00 -.463606E+00
  atom #    6
   Hellmann-Feynman + Multipole  : -.226320E+00 0.406165E+00 -.232738E+01
   Pulay + GGA                   : -.401935E-01 0.425059E-01 -.124929E+00
   Van der Waals               : 0.121550E-02 0.112042E-03 0.104902E-02
   ----------------------------------------------------------------
   Total forces(   6)            : -.265298E+00 0.448783E+00 -.245126E+01
  atom #    7
   Hellmann-Feynman + Multipole  : -.602159E+01 0.967162E+00 -.961593E+01
   Pulay + GGA                   : 0.913399E+01 -.104856E+01 0.107421E+02
   Van der Waals               : 0.758242E-03 0.232032E-02 0.382772E-03
   ----------------------------------------------------------------
   Total forces(   7)            : 0.311316E+01 -.790763E-01 0.112650E+01
  atom #    8
   Hellmann-Feynman + Multipole  : -.330245E+00 -.532143E+00 -.897578E+00
   Pulay + GGA                   : 0.510474E-01 0.473401E-01 0.688405E-01
   Van der Waals               : 0.284084E-03 0.443815E-03 -.222390E-02
   ----------------------------------------------------------------
   Total forces(   8)            : -.278914E+00 -.484359E+00 -.830962E+00
  atom #    9
   Hellmann-Feynman + Multipole  : -.172081E+01 0.100591E+01 -.391984E+00
   Pulay + GGA                   : 0.123593E+00 -.489212E-01 0.228659E-01
   Van der Waals               : -.200077E-02 0.320458E-02 0.201697E-02
   ----------------------------------------------------------------
   Total forces(   9)            : -.159922E+01 0.960198E+00 -.367101E+00
  atom #   10
   Hellmann-Feynman + Multipole  : -.276998E+01 -.137508E+01 -.151243E+02
   Pulay + GGA                   : 0.361967E+01 0.184724E+01 0.136838E+02
   Van der Waals               : -.101370E-01 -.891643E-03 -.251223E-02
   ----------------------------------------------------------------
   Total forces(  10)            : 0.839558E+00 0.471263E+00 -.144306E+01
  atom #   11
   Hellmann-Feynman + Multipole  : -.478669E+00 -.257002E+00 0.313074E+00
   Pulay + GGA                   : 0.950479E-01 0.735414E-01 0.526863E-01
   Van der Waals               : -.164577E-02 -.124464E-02 -.139749E-02
   ----------------------------------------------------------------
   Total forces(  11)            : -.385266E+00 -.184706E+00 0.364363E+00
  atom #   12
   Hellmann-Feynman + Multipole  : -.444131E+00 -.172494E+00 0.109968E+01
   Pulay + GGA                   : -.739070E-01 -.309324E-01 0.926709E-01
   Van der Waals               : -.550695E-02 -.120184E-02 -.482635E-02
   ----------------------------------------------------------------
   Total forces(  12)            : -.523545E+00 -.204628E+00 0.118752E+01
  atom #   13
   Hellmann-Feynman + Multipole  : 0.798428E+00 -.163755E+02 0.195237E+01
   Pulay + GGA                   : 0.601352E+00 0.165158E+02 -.377992E+01
   Van der Waals               : 0.690571E-02 -.441067E-02 -.705314E-02
   ----------------------------------------------------------------
   Total forces(  13)            : 0.140669E+01 0.135863E+00 -.183460E+01
  atom #   14
   Hellmann-Feynman + Multipole  : -.255235E+00 0.558099E+00 0.187691E+00
   Pulay + GGA                   : -.732517E-01 0.983639E-01 0.879809E-01
   Van der Waals               : 0.106377E-02 -.794173E-03 -.920539E-03
   ----------------------------------------------------------------
   Total forces(  14)            : -.327423E+00 0.655669E+00 0.274751E+00
  atom #   15
   Hellmann-Feynman + Multipole  : -.107572E+01 -.837362E+00 0.170445E+01
   Pulay + GGA                   : 0.590690E-01 0.738927E-01 -.117068E+00
   Van der Waals               : 0.474585E-02 -.439720E-02 -.210319E-02
   ----------------------------------------------------------------
   Total forces(  15)            : -.101190E+01 -.767866E+00 0.158528E+01
  Timings for vdw_correction_hirshfeld (Tkatchenko-Scheffler 2009):
  | CPU time:        5.061 s, Wall clock time:        5.062 s.
  Removing unitary transformations (pure translations, rotations) from forces on atoms.
  Atomic forces before filtering:
  | Net force on center of mass :  0.291498E-02 0.601798E-02 -.904963E-02 eV/A
  | Net torque on center of mass:  0.175832E-03 -.186286E-02 -.920707E-02 eV
  Atomic forces after filtering:
  | Net force on center of mass :  -.535218E-15 -.267609E-15 0.356812E-15 eV/A
  | Net torque on center of mass:  -.302107E-14 0.113290E-14 0.264344E-14 eV
 
  Energy and forces in a compact form:
  | Total energy uncorrected      :         -0.104150942645960E+05 eV
  | Total energy corrected        :         -0.104150942645960E+05 eV  <-- do not rely on this value for anything but (periodic) metals
  | Electronic free energy        :         -0.104150942645960E+05 eV
  Total atomic forces (unitary forces cleaned) [eV/Ang]:
  |   1         -0.751420063012347E+00          0.246057909789565E+01         -0.855110703869251E+00
  |   2          0.194648403811310E+01         -0.336490075221092E+01          0.138360912922099E+01
  |   3         -0.184927066297752E+01         -0.555074905204913E+00         -0.226300274229701E+00
  |   4          0.727043646506588E-01          0.119161193722094E+01          0.254358551510135E+01
  |   5         -0.384151030534345E+00         -0.679965630997840E+00         -0.462940547571017E+00
  |   6         -0.265669823185153E+00          0.448089371527919E+00         -0.245055104128937E+01
  |   7          0.311308941656473E+01         -0.792249215985969E-01          0.112700889813782E+01
  |   8         -0.279019807447063E+00         -0.484485039360891E+00         -0.830470494717566E+00
  |   9         -0.159920112851397E+01          0.960163908955642E+00         -0.366635562215694E+00
  |  10          0.839337925813030E+00          0.471100306634834E+00         -0.144256705003675E+01
  |  11         -0.385536814654588E+00         -0.184759600078052E+00          0.364803106548218E+00
  |  12         -0.523682588015401E+00         -0.204856149182767E+00          0.118805318360309E+01
  |  13          0.140640334788042E+01          0.135216617864549E+00         -0.183389818281564E+01
  |  14         -0.327770359063741E+00          0.654966770259549E+00          0.275470136128690E+00
  |  15         -0.101229681561781E+01         -0.768461011725098E+00          0.158594388800483E+01
 
  ------------------------------------ 
  Start decomposition of the XC Energy 
  ------------------------------------ 
  Hartree-Fock part   :          0.000000000 Ha              0.000000000 eV
  ------------------------------------ 
  X Energy            :        -44.973053407 Ha          -1223.779048385 eV
  C Energy GGA        :         -1.637380207 Ha            -44.555382394 eV
  Total XC Energy     :        -46.610433614 Ha          -1268.334430779 eV
  LDA X and C from self-consistent density 
  X Energy LDA        :        -40.530642246 Ha          -1102.894890191 eV
  C Energy LDA        :         -3.300415599 Ha            -89.808877879 eV
  ------------------------------------ 
  End decomposition of the XC Energy 
  ------------------------------------ 
  Performing Hirshfeld analysis of fragment charges and moments.
  ----------------------------------------------------------------------
  | Atom     1: O
  |   Hirshfeld charge        :     -0.43306593
  |   Free atom volume        :     23.95238533
  |   Hirshfeld volume        :     25.48371789
  |   Hirshfeld dipole vector :      0.04194903       0.07845076      -0.02273230
  |   Hirshfeld dipole moment :      0.09182048
  |   Hirshfeld second moments:     -0.02804594      -0.02980348       0.02912489
  |                                 -0.02980348      -0.09204741      -0.02171710
  |                                  0.02912489      -0.02171710      -0.13809058
  ----------------------------------------------------------------------
  | Atom     2: H
  |   Hirshfeld charge        :      0.05401042
  |   Free atom volume        :     10.44207651
  |   Hirshfeld volume        :      8.91552603
  |   Hirshfeld dipole vector :     -0.02052568       0.04613824      -0.02094680
  |   Hirshfeld dipole moment :      0.05467001
  |   Hirshfeld second moments:      0.06254453       0.02553384       0.00276793
  |                                  0.02553384       0.01699993       0.01442341
  |                                  0.00276793       0.01442341       0.04837195
  ----------------------------------------------------------------------
  | Atom     3: H
  |   Hirshfeld charge        :      0.03833825
  |   Free atom volume        :     10.44207651
  |   Hirshfeld volume        :      9.16519394
  |   Hirshfeld dipole vector :      0.05066565       0.01592353       0.00544902
  |   Hirshfeld dipole moment :      0.05338781
  |   Hirshfeld second moments:      0.01060822      -0.03128320       0.00657891
  |                                 -0.03128320       0.05660171      -0.00430369
  |                                  0.00657891      -0.00430369       0.04084050
  ----------------------------------------------------------------------
  | Atom     4: O
  |   Hirshfeld charge        :     -0.17293452
  |   Free atom volume        :     23.95238533
  |   Hirshfeld volume        :     20.03730189
  |   Hirshfeld dipole vector :      0.03072587      -0.01213358      -0.01667787
  |   Hirshfeld dipole moment :      0.03700614
  |   Hirshfeld second moments:      0.04939006       0.02073463       0.02855945
  |                                  0.02073463       0.09199173       0.01313724
  |                                  0.02855945       0.01313724       0.10848092
  ----------------------------------------------------------------------
  | Atom     5: H
  |   Hirshfeld charge        :      0.17393014
  |   Free atom volume        :     10.44207651
  |   Hirshfeld volume        :      6.23911815
  |   Hirshfeld dipole vector :      0.05684503       0.08827582       0.03958218
  |   Hirshfeld dipole moment :      0.11220840
  |   Hirshfeld second moments:      0.10868485      -0.00180415       0.00196003
  |                                 -0.00180415       0.12188333      -0.00459392
  |                                  0.00196003      -0.00459392       0.13363265
  ----------------------------------------------------------------------
  | Atom     6: H
  |   Hirshfeld charge        :      0.17280915
  |   Free atom volume        :     10.44207651
  |   Hirshfeld volume        :      5.72134580
  |   Hirshfeld dipole vector :     -0.01765067       0.00725753      -0.12011909
  |   Hirshfeld dipole moment :      0.12162571
  |   Hirshfeld second moments:      0.12644023       0.01125967       0.00821243
  |                                  0.01125967       0.14005438       0.00471468
  |                                  0.00821243       0.00471468       0.12895210
  ----------------------------------------------------------------------
  | Atom     7: O
  |   Hirshfeld charge        :     -0.21469244
  |   Free atom volume        :     23.95238533
  |   Hirshfeld volume        :     21.17266541
  |   Hirshfeld dipole vector :     -0.02051814      -0.02805001       0.03205720
  |   Hirshfeld dipole moment :      0.04728067
  |   Hirshfeld second moments:      0.06160816      -0.02730755       0.00885181
  |                                 -0.02730755       0.05845552       0.03040459
  |                                  0.00885181       0.03040459       0.02359986
  ----------------------------------------------------------------------
  | Atom     8: H
  |   Hirshfeld charge        :      0.10510660
  |   Free atom volume        :     10.44207651
  |   Hirshfeld volume        :      7.49344613
  |   Hirshfeld dipole vector :      0.01152491       0.02303633       0.04693754
  |   Hirshfeld dipole moment :      0.05354091
  |   Hirshfeld second moments:      0.10550837      -0.00082398       0.00909959
  |                                 -0.00082398       0.07132413      -0.02519785
  |                                  0.00909959      -0.02519785       0.06060081
  ----------------------------------------------------------------------
  | Atom     9: H
  |   Hirshfeld charge        :      0.15565828
  |   Free atom volume        :     10.44207651
  |   Hirshfeld volume        :      6.14467051
  |   Hirshfeld dipole vector :      0.08909587      -0.07768791       0.01343759
  |   Hirshfeld dipole moment :      0.11897082
  |   Hirshfeld second moments:      0.11723293       0.00089913       0.00105194
  |                                  0.00089913       0.11990302       0.01402900
  |                                  0.00105194       0.01402900       0.12051041
  ----------------------------------------------------------------------
  | Atom    10: O
  |   Hirshfeld charge        :     -0.22463629
  |   Free atom volume        :     23.95238533
  |   Hirshfeld volume        :     20.17253936
  |   Hirshfeld dipole vector :      0.01084473      -0.02101513       0.02630750
  |   Hirshfeld dipole moment :      0.03537412
  |   Hirshfeld second moments:      0.08825128       0.04137411      -0.01751932
  |                                  0.04137411       0.05450222       0.01024207
  |                                 -0.01751932       0.01024207       0.06719133
  ----------------------------------------------------------------------
  | Atom    11: H
  |   Hirshfeld charge        :      0.17088835
  |   Free atom volume        :     10.44207651
  |   Hirshfeld volume        :      5.61159668
  |   Hirshfeld dipole vector :      0.09982789       0.06372768       0.03462080
  |   Hirshfeld dipole moment :      0.12339135
  |   Hirshfeld second moments:      0.13005259       0.00770154      -0.01238754
  |                                  0.00770154       0.12628406      -0.00215835
  |                                 -0.01238754      -0.00215835       0.13755118
  ----------------------------------------------------------------------
  | Atom    12: H
  |   Hirshfeld charge        :      0.16934240
  |   Free atom volume        :     10.44207651
  |   Hirshfeld volume        :      6.33016129
  |   Hirshfeld dipole vector :     -0.06396043      -0.04375883       0.08223242
  |   Hirshfeld dipole moment :      0.11299532
  |   Hirshfeld second moments:      0.11281180       0.00916383       0.01054024
  |                                  0.00916383       0.11826042       0.00253514
  |                                  0.01054024       0.00253514       0.12320451
  ----------------------------------------------------------------------
  | Atom    13: O
  |   Hirshfeld charge        :     -0.28327004
  |   Free atom volume        :     23.95238533
  |   Hirshfeld volume        :     21.74783700
  |   Hirshfeld dipole vector :     -0.00622420       0.04881123      -0.00813079
  |   Hirshfeld dipole moment :      0.04987371
  |   Hirshfeld second moments:      0.00716613      -0.01676713      -0.06061373
  |                                 -0.01676713       0.01157468       0.00478516
  |                                 -0.06061373       0.00478516       0.04128940
  ----------------------------------------------------------------------
  | Atom    14: H
  |   Hirshfeld charge        :      0.14453884
  |   Free atom volume        :     10.44207651
  |   Hirshfeld volume        :      6.15871538
  |   Hirshfeld dipole vector :     -0.06497154       0.08563511       0.06690481
  |   Hirshfeld dipole moment :      0.12661330
  |   Hirshfeld second moments:      0.11120783       0.00255774      -0.01658643
  |                                  0.00255774       0.11344110      -0.00839718
  |                                 -0.01658643      -0.00839718       0.12431986
  ----------------------------------------------------------------------
  | Atom    15: H
  |   Hirshfeld charge        :      0.14396869
  |   Free atom volume        :     10.44207651
  |   Hirshfeld volume        :      6.59899991
  |   Hirshfeld dipole vector :      0.05142254       0.05239037      -0.08939867
  |   Hirshfeld dipole moment :      0.11567692
  |   Hirshfeld second moments:      0.09736830      -0.01121939      -0.00776883
  |                                 -0.01121939       0.11729809       0.00615290
  |                                 -0.00776883       0.00615290       0.10810552
  ----------------------------------------------------------------------


------------------------------------------------------------------------------
  Final output of selected total energy values:

  The following output summarizes some interesting total energy values
  at the end of a run (AFTER all relaxation, molecular dynamics, etc.).

  | Total energy of the DFT / Hartree-Fock s.c.f. calculation      :         -10415.094264596 eV
  | Final zero-broadening corrected energy (caution - metals only) :         -10415.094264596 eV
  | For reference only, the value of 1 Hartree used in FHI-aims is :             27.211384500 eV

  Before relying on these values, please be sure to understand exactly which
  total energy value is referred to by a given number. Different objects may
  all carry the same name 'total energy'. Definitions:

  Total energy of the DFT / Hartree-Fock s.c.f. calculation:
  | Note that this energy does not include ANY quantities calculated after the
  | s.c.f. cycle, in particular not ANY RPA, MP2, etc. many-body perturbation terms.

  Final zero-broadening corrected energy:
  | For metallic systems only, a broadening of the occupation numbers at the Fermi
  | level can be extrapolated back to zero broadening by an electron-gas inspired
  | formula. For all systems that are not real metals, this value can be
  | meaningless and should be avoided.

------------------------------------------------------------------------------

------------------------------------------------------------
          Leaving FHI-aims.
          Date     :  20150727, Time     :  122218.849

          Computational steps:
          | Number of self-consistency cycles          :           15

          Detailed time accounting                     :  max(cpu_time)    wall_clock(cpu1)
          | Total time                                 :       34.735 s          34.766 s
          | Preparation time                           :        0.171 s           0.722 s
          | Grid partitioning                          :        0.144 s           0.145 s
          | Preloading free-atom quantities on grid    :        0.014 s           0.013 s
          | Free-atom superposition energy             :        0.066 s           0.066 s
          | Total time for integrations                :       14.467 s          14.467 s
          | Total time for solution of K.-S. equations :        1.006 s           1.006 s
          | Total time for density & force components  :       11.839 s          11.838 s
          | Total time for mixing                      :        0.195 s           0.188 s
          | Total time for Hartree multipole update    :        0.073 s           0.074 s
          | Total time for Hartree multipole sum       :        5.914 s           5.916 s
          | Total time for total energy evaluation     :        0.004 s           0.004 s
          | Total time for scaled ZORA corrections     :        0.000 s           0.000 s
          | Total time for TS (2009) vdW correction    :        0.051 s           0.052 s

          Have a nice day.
------------------------------------------------------------
