  MPI-parallelism will be employed.
------------------------------------------------------------
          Invoking FHI-aims ...
          Version 081213
          Compiled on 2013/08/29 at 17:41:06 on host generoso.

          When using FHI-aims, please cite the following reference:

          Volker Blum, Ralf Gehrke, Felix Hanke, Paula Havu,
          Ville Havu, Xinguo Ren, Karsten Reuter, and Matthias Scheffler,
          'Ab Initio Molecular Simulations with Numeric Atom-Centered Orbitals: FHI-aims',
          Computer Physics Communications 180, 2175-2196 (2009)

          For any questions about FHI-aims, please visit the aimsclub website
          with its forums and wiki. Contributions to both the forums and the
          wiki are warmly encouraged - they are for you, and everyone is welcome there.

------------------------------------------------------------

  Date     :  20150727, Time     :  113924.465
  Time zero on CPU 1             :   0.509910000000000E-01  s.
  Internal wall clock time zero  :           207229164.465  s.

  Using        8 parallel tasks.
  Task        0 on host gen60 reporting.
  Task        1 on host gen60 reporting.
  Task        2 on host gen60 reporting.
  Task        3 on host gen60 reporting.
  Task        4 on host gen60 reporting.
  Task        5 on host gen60 reporting.
  Task        6 on host gen60 reporting.
  Task        7 on host gen60 reporting.

  Performing system and environment tests:
  | Environment variable OMP_NUM_THREADS correctly set to 1.
  | Checking for scalapack...
  | No scalapack compiled in.

  Obtaining array dimensions for all initial allocations:
  
  -----------------------------------------------------------------------
  Parsing control.in (first pass over file, find array dimensions only).
  The contents of control.in will be repeated verbatim below
  unless switched off by setting 'verbatim_writeout .false.' .
  in the first line of control.in .
  -----------------------------------------------------------------------
  
  #########################################################################################
  #
  #  Volker Blum, FHI 2008 : Test run input file control.in
  #
  #########################################################################################
  #
  #  Physical model
  #
    xc                 rpbe
    spin               none
    relativistic       atomic_zora scalar
    charge             0.
   vdw_correction_hirshfeld
  #
  #  SCF convergence
  #
    occupation_type    gaussian 0.01
    mixer              pulay
      n_max_pulay        10
      charge_mix_param   0.1
    sc_accuracy_rho    5E-5
    sc_accuracy_eev    5E-3
    sc_accuracy_etot   5E-6
    sc_iter_limit      3000
  #
  #  Eigenvalue solver
  #
    KS_method          lapack
      empty_states       8
      basis_threshold    0.e-5
  #
  #  Efficiency
  #
  #   all previous settings are now default, except stratmann still
  #   undecided. Continue to handle stratmann with care, if at all.
  #
  #  partition_type stratmann
    partition_type rho_r2
  #  hartree_partition_type stratmann
  #
  #  Oprions for large clusters (100's of atoms: memory saving / better scaling)
  #
  # for periodic systems:
  #
    density_update_method orbital
    packed_matrix_format none
  #  k_grid 6 6 6
  #  output k_eigenvalue 1
  #  distributed_spline_storage .true.
  #
  #  Relaxation
  #
  #  relax_geometry   bfgs 5.e-3
    sc_accuracy_forces 5.E-4
    final_forces_cleaned .true.
  #
  #  Output options
  #
  #  output mulliken
    output Hirshfeld
  #  output dipole
  
  #harmonic_length_scale 0.001
  
  ################################################################################
  #
  #  FHI-aims code project
  #  VB, Fritz-Haber Institut, 2007
  #
  #  Suggested "safe" defaults for H atom (to be pasted into control.in file)
  #  Basis constructed for a non-relativistic H2 molecule using the
  #  PW-LDA functional.
  #
  ################################################################################
    species        H
  #     global species definitions
      nucleus             1
      cut_pot             4.0  2.0  1.0
      cut_free_atom       finite 8.0
      logarithmic         0.00010000 100.00  1.0123
      basis_dep_cutoff    1d-4  # 1d-4 is safe default - please check 5d-4 if you wish!
      radial_base         24 7.0
      radial_multiplier   2
      angular_grids       specified
        division   0.2783  110
        division   0.3822  194
        division   0.5626  302
  #      division   0.5922  434
  #      division   0.6227  590
  #      division   0.7206  770
        outer_grid  302
      l_hartree           4
  ################################################################################
  #
  #  Definition of "minimal" basis
  #
  ################################################################################
  #     valence basis states
      valence      1  s   1.
  #     ion occupancy
      ion_occ      1  s   0.5
  ################################################################################
  #
  #  Suggested additional basis functions. For production calculations,
  #  uncomment them one after another (the most important basis functions are
  #  listed first).
  #
  ################################################################################
  #  "First tier" - improvements: -1014.90 meV to -62.69 meV
       hydro 2 s 2.1
       hydro 2 p 3.5
  #  "Second tier" - improvements: -12.89 meV to -1.83 meV
       hydro 1 s 0.85
       hydro 2 p 3.7
       hydro 2 s 1.2
       hydro 3 d 7
  #  "Third tier" - improvements: -0.25 meV to -0.12 meV
  #     hydro 4 f 11.2
  #     hydro 3 p 4.8
  #     hydro 4 d 9
  #     hydro 3 s 3.2
  
  ################################################################################
  #
  #  FHI-aims code project
  #  VB, Fritz-Haber Institut, 2007
  #
  #  Suggested "safe" defaults for O atom (to be pasted into control.in file)
  #  All values have been tested for a non-relativistic, non-spinpolarized O2
  #  molecule using the PW-LDA functional. Validity for PBE is expected.
  #
  #  Constructed for dimers: 1.0 A, 1.208 A, 1.5 A, 2.0 A, 3.0 A
  #
  ################################################################################
    species        O
  #     global species definitions
      nucleus             8
      mass                15.9994
      l_hartree           4
      cut_pot             4.0  2.0  1.0
      cut_free_atom       finite 8.0
      basis_dep_cutoff    1d-4  # 1d-4 is safe default - please check 5d-4 if you wish!
      logarithmic         0.00010000 100.00  1.0123
      radial_base         36 7.0
      radial_multiplier   2
       angular_grids specified
        division   0.4087  110
        division   0.5181  194
        division   0.6184  302
  #      division   0.7315  434
  #      division   0.7934  590
  #      division   0.9656  770
  #      division   1.4041  974
  #      outer_grid 974
        outer_grid 302
  ################################################################################
  #
  #  Definition of "minimal" basis
  #
  ################################################################################
  #     valence basis states
      valence      2  s   2.
      valence      2  p   4.
  #     ion occupancy
      ion_occ      2  s   1.
      ion_occ      2  p   3.
  ################################################################################
  #
  #  Suggested additional basis functions. For production calculations,
  #  uncomment them one after another (the most important basis functions are
  #  listed first).
  #
  ################################################################################
  #  "First tier" - improvements: -699.05 meV to -159.38 meV
       hydro 2 p 1.8
       hydro 3 d 7.6
       hydro 3 s 6.4
  #  "Second tier" - improvements: -49.91 meV to -5.39 meV
       hydro 4 f 11.6
       hydro 3 p 6.2
       hydro 3 d 5.6
       hydro 5 g 17.6
       hydro 1 s 0.75
  #  "Third tier" - improvements: -2.83 meV to -0.50 meV
  #     ionic 2 p auto
  #     hydro 4 f 10.8
  #     hydro 4 d 4.7
  #     hydro 2 s 6.8
  #  "Fourth tier" - improvements: -0.40 meV to -0.12 meV
  #     hydro 3 p 5
  #     hydro 3 s 3.3
  #     hydro 5 g 15.6
  #     hydro 4 f 17.6
  #     hydro 4 d 14
  # Further basis functions - -0.08 meV and below
  #     hydro 3 s 2.1
  #     hydro 4 d 11.6
  #     hydro 3 p 16
  #     hydro 2 s 17.2
  
  
  -----------------------------------------------------------------------
  Completed first pass over input file control.in .
  -----------------------------------------------------------------------
  
  
  -----------------------------------------------------------------------
  Parsing geometry.in (first pass over file, find array dimensions only).
  The contents of geometry.in will be repeated verbatim below
  unless switched off by setting 'verbatim_writeout .false.' .
  in the first line of geometry.in .
  -----------------------------------------------------------------------
  
  atom      -4.053030000      0.065001000     -1.525160000  O
  atom      -4.566710000      0.974813000     -1.912820000  H
  atom      -3.067820000      0.330172000     -1.477310000  H
  atom      -4.581760000     -0.256435000      0.939478000  O
  atom      -4.349860000      0.471090000      1.504340000  H
  atom      -5.393870000     -0.726611000      1.228070000  H
  atom      -5.293160000      2.192130000     -2.328800000  O
  atom      -4.829300000      2.988660000     -1.973850000  H
  atom      -5.428570000      2.328640000     -3.235170000  H
  atom      -1.645860000      0.870179000     -1.502250000  O
  atom      -1.568890000      1.501730000     -0.721051000  H
  atom      -0.824432000      0.282220000     -1.377720000  H
  atom      -1.975360000      2.858040000      0.453140000  O
  atom      -1.223550000      3.375850000      0.786238000  H
  atom      -2.537520000      2.567960000      1.156120000  H
  atom      -4.066610000      4.258280000     -0.900064000  O
  atom      -3.224110000      3.876870000     -0.569443000  H
  atom      -3.737450000      5.116530000     -1.322720000  H
  atom      -5.628340000      3.730740000      1.385610000  O
  atom      -6.090650000      4.418470000      1.860350000  H
  atom      -5.158540000      4.200260000      0.615875000  H
  
  -----------------------------------------------------------------------
  Completed first pass over input file geometry.in .
  -----------------------------------------------------------------------
  
 
  Basic array size parameters: 
  | Number of species                 :        2
  | Number of atoms                   :       21
  | Max. basis fn. angular momentum   :        4
  | Max. atomic/ionic basis occupied n:        2
  | Max. number of basis fn. types    :        2
  | Max. radial fns per species/type  :        8
  | Max. logarithmic grid size        :     1301
  | Max. radial integration grid size :       73
  | Max. angular integration grid size:      302
  | Max. angular grid division number :        8
  | Radial grid for Hartree potential :     1301
  | Number of spin channels           :        1

------------------------------------------------------------
          Reading file control.in.
------------------------------------------------------------
  XC: Using RPBE gradient-corrected functionals.
  Spin treatment: No spin polarisation.
  Scalar relativistic treatment of kinetic energy: on-site free-atom approximation to ZORA.
  Charge =   0.000000E+00: Neutral system requested explicitly.
  Using non-empirical van der Waals correction (Hirshfeld partitioning):
  Occupation type: Gaussian broadening, width =   0.100000E-01 eV.
  Using pulay charge density mixing.
  Pulay mixing - number of memorized iterations:   10
  Charge density mixing - mixing parameter:     0.1000
  Convergence accuracy of self-consistent charge density: 0.5000E-04
  Convergence accuracy of sum of eigenvalues: 0.5000E-02
  Convergence accuracy of total energy: 0.5000E-05
  Maximum number of s.-c. iterations  :  3000
  Kohn-Sham eigenvalues and eigenfunctions calculated by lapack diagonalisation (D&C).
  Number of empty states per atom:        8
  Threshold for basis singularities: 0.0000E+00
  Partition function in integrals calculations: rho / r^2
 Using packed matrix format           0
  Convergence accuracy of forces: 0.5000E-03
  Cleaning forces before final output.
  Hirshfeld charge analysis will be performed.
 
  Reading configuration options for species H                   .
  | Found nuclear charge :   1.0000
  | Found cutoff potl. onset [A], width [A], scale factor :    4.00000    2.00000    1.00000
  | Found cutoff specification for free atom: Cutoff potential begins at    8.00000 A.
  | Found logarithmic grid data [bohr] : 0.1000E-03 0.1000E+03 0.1012E+01
  | Threshold for basis-dependent cutoff potential is   0.100000E-03
  | Found data for basic radial integration grid :    24 points, outermost radius =    7.000 A
  | Found multiplier for basic radial grid :   2
  | Found angular grid specification: user-specified.
  | Specified grid contains     4 separate shells.
  | Check grid settings after all constraints further below.
  | Found l_max for Hartree potential  :   4
  | Found free-atom valence shell :  1 s   1.000
  | No ionic wave fns used. Skipping ion_occ.
  | Found hydrogenic basis function :  2 s   2.100
  | Found hydrogenic basis function :  2 p   3.500
  | Found hydrogenic basis function :  1 s   0.850
  | Found hydrogenic basis function :  2 p   3.700
  | Found hydrogenic basis function :  2 s   1.200
  | Found hydrogenic basis function :  3 d   7.000
  Species H                   : Missing cutoff potential type.
  Defaulting to exp(1/x)/(1-x)^2 type cutoff potential.
  Species H : On-site basis accuracy parameter (for Gram-Schmidt orthonormalisation) not specified.
  Using default value basis_acc =  0.1000000E-03.
  Species H                   : Using default innermost maximum threshold i_radial=  2 for radial functions.
  Species H                   : Basic radial grid will be enhanced according to radial_multiplier =   2, to contain    49 grid points.
 
  Reading configuration options for species O                   .
  | Found nuclear charge :   8.0000
  | Found atomic mass :    15.9994000000000      amu
  | Found l_max for Hartree potential  :   4
  | Found cutoff potl. onset [A], width [A], scale factor :    4.00000    2.00000    1.00000
  | Found cutoff specification for free atom: Cutoff potential begins at    8.00000 A.
  | Threshold for basis-dependent cutoff potential is   0.100000E-03
  | Found logarithmic grid data [bohr] : 0.1000E-03 0.1000E+03 0.1012E+01
  | Found data for basic radial integration grid :    36 points, outermost radius =    7.000 A
  | Found multiplier for basic radial grid :   2
  | Found angular grid specification: user-specified.
  | Specified grid contains     4 separate shells.
  | Check grid settings after all constraints further below.
  | Found free-atom valence shell :  2 s   2.000
  | Found free-atom valence shell :  2 p   4.000
  | No ionic wave fns used. Skipping ion_occ.
  | No ionic wave fns used. Skipping ion_occ.
  | Found hydrogenic basis function :  2 p   1.800
  | Found hydrogenic basis function :  3 d   7.600
  | Found hydrogenic basis function :  3 s   6.400
  | Found hydrogenic basis function :  4 f  11.600
  | Found hydrogenic basis function :  3 p   6.200
  | Found hydrogenic basis function :  3 d   5.600
  | Found hydrogenic basis function :  5 g  17.600
  | Found hydrogenic basis function :  1 s   0.750
  Species O                   : Missing cutoff potential type.
  Defaulting to exp(1/x)/(1-x)^2 type cutoff potential.
  Species O : On-site basis accuracy parameter (for Gram-Schmidt orthonormalisation) not specified.
  Using default value basis_acc =  0.1000000E-03.
  Species O                   : Using default innermost maximum threshold i_radial=  2 for radial functions.
  Species O                   : Basic radial grid will be enhanced according to radial_multiplier =   2, to contain    73 grid points.
 
  Finished reading input file 'control.in'. Consistency checks are next.
 
  Target number of points in a grid batch is not set. Defaulting to  100
  Method for grid partitioning is not set. Defaulting to parallel hash+maxmin partitioning.
  Batch size limit is not set. Defaulting to    200
  By default, will store active basis functions for each batch.
  If in need of memory, prune_basis_once .false. can be used to disable this option.
  communication_type for Hartree potential was not specified.
  Defaulting to calc_hartree .
  Pulay mixer: Number of initial linear mixing iterations not set.
  Defaulting to    0 iterations.
  Work space size for distributed Hartree potential not set.
  Defaulting to   0.200000E+03 MB.
  Algorithm-dependent basis array size parameters:
  | n_max_pulay                         :       10
  Geometry relaxation not requested: no relaxation will be performed.
  Handling of forces: Unphysical translation and rotation will be removed from forces.
  No accuracy limit for integral partition fn. given. Defaulting to 0.1000E-14.
  No threshold value for u(r) in integrations given. Defaulting to 0.1000E-05.
  No accuracy for occupation numbers given. Defaulting to 0.1000E-07.
  No threshold value for occupation numbers given. Defaulting to 0.0000E+00.
  No accuracy for fermi level given. Defaulting to 0.1000E-19.
  Maximum # of iterations to find E_F not set. Defaulting to  200.
  Will not use alltoall communication since running on < 1024 CPUs.
  Partitioning for Hartree potential was not defined. Using partition_type for integrals.
  | Reporting present value of keyword multip_moments_threshold  :       0.10000000E-09
  | This value may affect high angular momentum components of the Hartree potential in periodic systems.
  No q(lm)/r^(l+1) cutoff set for long-range Hartree potential.
  | Using default value of  0.100000E-09 .
  | Verify using the multipole_threshold keyword.
  Defaulting to new monopole extrapolation.
  Density update method: Loop over occupied states selected for charge density update.
------------------------------------------------------------


------------------------------------------------------------
          Reading geometry description geometry.in.
------------------------------------------------------------
  Input structure read successfully.
  The structure contains       21 atoms,  and a total of         70.000 electrons.

  Input geometry:
  | No unit cell requested.
  | Atomic structure:
  |       Atom                x [A]            y [A]            z [A]
  |    1: Species O             -4.053030         0.065001        -1.525160
  |    2: Species H             -4.566710         0.974813        -1.912820
  |    3: Species H             -3.067820         0.330172        -1.477310
  |    4: Species O             -4.581760        -0.256435         0.939478
  |    5: Species H             -4.349860         0.471090         1.504340
  |    6: Species H             -5.393870        -0.726611         1.228070
  |    7: Species O             -5.293160         2.192130        -2.328800
  |    8: Species H             -4.829300         2.988660        -1.973850
  |    9: Species H             -5.428570         2.328640        -3.235170
  |   10: Species O             -1.645860         0.870179        -1.502250
  |   11: Species H             -1.568890         1.501730        -0.721051
  |   12: Species H             -0.824432         0.282220        -1.377720
  |   13: Species O             -1.975360         2.858040         0.453140
  |   14: Species H             -1.223550         3.375850         0.786238
  |   15: Species H             -2.537520         2.567960         1.156120
  |   16: Species O             -4.066610         4.258280        -0.900064
  |   17: Species H             -3.224110         3.876870        -0.569443
  |   18: Species H             -3.737450         5.116530        -1.322720
  |   19: Species O             -5.628340         3.730740         1.385610
  |   20: Species H             -6.090650         4.418470         1.860350
  |   21: Species H             -5.158540         4.200260         0.615875
  |

  | The smallest distance between any two atoms is         0.92654057 AA.
  |
  | The first atom of this pair is atom number                      7 .
  | The second atom of this pair is atom number                     9 .

  Structure-dependent array size parameters: 
  | Maximum number of distinct radial functions  :       18
  | Maximum number of basis functions            :      483
  | Number of Kohn-Sham states (occupied + empty):      119
------------------------------------------------------------

------------------------------------------------------------
          Preparing all fixed parts of the calculation.
------------------------------------------------------------
  Determining machine precision:
    2.225073858507201E-308
  Setting up grids for atomic and cluster calculations.

  Creating wave function, potential, and density for free atoms.

  Species: H

  List of occupied orbitals and eigenvalues:
    n    l              occ      energy [Ha]    energy [eV]
    1    0           1.0000        -0.241408        -6.5691


  Species: O

  List of occupied orbitals and eigenvalues:
    n    l              occ      energy [Ha]    energy [eV]
    1    0           2.0000       -18.944147      -515.4965
    2    0           2.0000        -0.883529       -24.0421
    2    1           4.0000        -0.330176        -8.9845

  Creating fixed part of basis set: Ionic, confined, hydrogenic.
 
  H                    hydrogenic:
 
  List of hydrogenic basis orbitals: 
    n    l      effective z      eigenvalue [eV]  inner max. [A]     outer max. [A]     outer radius [A]   
    2    0         2.100000       -14.9965           0.193241           1.317192           5.372934
    2    1         3.500000       -41.6672           0.602363           0.602363           4.056010
    1    0         0.850000        -9.8292           0.624864           0.624864           5.372934
    2    1         3.700000       -46.5653           0.573616           0.573616           3.909951
    2    0         1.200000        -4.5995           0.334977           2.228160           5.505921
    3    2         7.000000       -74.0753           0.680692           0.680692           3.769152
 
 
  O                    hydrogenic:
 
  List of hydrogenic basis orbitals: 
    n    l      effective z      eigenvalue [eV]  inner max. [A]     outer max. [A]     outer radius [A]   
    2    1         1.800000       -11.0118           1.178546           1.178546           5.432516
    3    2         7.600000       -87.3182           0.624117           0.624117           3.541422
    3    0         6.400000       -61.9209           0.061166           1.081887           4.306510
    4    3        11.600000      -114.4238           0.731621           0.731621           3.584982
    3    1         6.200000       -58.1113           0.255677           1.030255           4.306510
    3    2         5.600000       -47.4081           0.847222           0.847222           4.413102
    5    4        17.600000      -168.5799           0.749730           0.749730           3.372413
    1    0         0.750000        -7.6499           0.705275           0.705275           5.366508
 

  Adding cutoff potential to free-atom effective potential.
  Creating atomic-like basis functions for current effective potential.

  Species H                   :

  List of atomic basis orbitals and eigenvalues:
    n    l      energy [Ha]    energy [eV]    outer radius [A]
    1    0        -0.241374        -6.5681       5.372934


  Species O                   :

  List of atomic basis orbitals and eigenvalues:
    n    l      energy [Ha]    energy [eV]    outer radius [A]
    1    0       -18.944147      -515.4965       1.415745
    2    0        -0.883529       -24.0421       5.048305
    2    1        -0.330173        -8.9845       5.301302

  Assembling full basis from fixed parts.
  | Species H :   atomic orbital   1 s accepted.
  | Species H :    hydro orbital   2 s accepted.
  | Species H :    hydro orbital   1 s accepted.
  | Species H :    hydro orbital   2 s accepted.
  | Species H :    hydro orbital   2 p accepted.
  | Species H :    hydro orbital   2 p accepted.
  | Species H :    hydro orbital   3 d accepted.
  | Species O :   atomic orbital   1 s accepted.
  | Species O :    hydro orbital   3 s accepted.
  | Species O :   atomic orbital   2 s accepted.
  | Species O :    hydro orbital   1 s accepted.
  | Species O :    hydro orbital   3 p accepted.
  | Species O :   atomic orbital   2 p accepted.
  | Species O :    hydro orbital   2 p accepted.
  | Species O :    hydro orbital   3 d accepted.
  | Species O :    hydro orbital   3 d accepted.
  | Species O :    hydro orbital   4 f accepted.
  | Species O :    hydro orbital   5 g accepted.
 
  Basis size parameters after reduction:
  | Total number of radial functions:       18
  | Total number of basis functions :      483
 
  Testing on-site integration grid accuracy.
  |  Species  Function  <phi|h_atom|phi> (log., in eV)  <phi|h_atom|phi> (rad., in eV)
           1        1                 -6.5683835025                 -6.5684759159
           1        2                 13.3711789951                 13.3708738703
           1        3                 23.6590910787                 23.6532055418
           1        4                 16.2963827186                 16.1870710655 ***
           1        5                 28.7627214838                 28.7627215090
           1        6                 59.5965249172                 59.5965950857
           1        7                 60.2220506392                 60.2220503827
           2        8               -515.4964576505               -515.4964530710
           2        9                 15.3030791347                 15.3030722972
           2       10                -21.7296094581                -21.7296135470
           2       11                 14.2969371730                 14.2969701621
           2       12                 21.0679693190                 21.0679697493
           2       13                 -2.3833606469                 -2.3833613176
           2       14                 13.7067136422                 13.7066766629
           2       15                 45.8013116808                 45.8013116965
           2       16                 52.2309815402                 52.2309831494
           2       17                 85.4120732416                 85.4120732763
           2       18                142.1019167745                142.1019167817
 * Note: Onsite integrals marked "***" above are less accurate than
 * onsite_accuracy_threshold =    0.03000 eV. Usually, this is harmless.
 * When in doubt, tighten the "radial" and/or "radial_multiplier" flags to check.

  Preparing densities etc. for the partition functions (integrals / Hartree potential).

  Preparations completed.
  max(cpu_time)          :      0.173 s.
  Wall clock time (cpu1) :      0.504 s.
------------------------------------------------------------

------------------------------------------------------------
          Begin self-consistency loop: Initialization.

          Date     :  20150727, Time     :  113924.984
------------------------------------------------------------

  Initializing index lists of integration centers etc. from given atomic structure:
  | Number of centers in hartree potential         :        21
  | Number of centers in hartree multipole         :        21
  | Number of centers in electron density summation:        21
  | Number of centers in basis integrals           :        21
  | Number of centers in integrals                 :        21
  Partitioning the integration grid into batches with parallel hashing+maxmin method.
  | Number of batches:     2715
  | Maximal batch size:     178
  | Minimal batch size:      55
  | Average batch size:     101.434
  | Standard deviation of batch sizes:      35.473

  Integration load balanced across     8 MPI tasks.
  Work distribution over tasks is as follows:
  Task     0 has      34454 integration points.
  Task     1 has      34467 integration points.
  Task     2 has      34477 integration points.
  Task     3 has      34340 integration points.
  Task     4 has      34455 integration points.
  Task     5 has      34409 integration points.
  Task     6 has      34466 integration points.
  Task     7 has      34326 integration points.
  Initializing partition tables, free-atom densities, potentials, etc. across the integration grid (initialize_grid_storage).
  | Net number of integration points:   275394
  | of which are non-zero points    :   274801
  Obtaining max. number of non-zero basis functions in each batch (get_n_compute_maxes).
  | Maximal number of non-zero basis functions:      478 in task     0
  | Maximal number of non-zero basis functions:      477 in task     1
  | Maximal number of non-zero basis functions:      477 in task     2
  | Maximal number of non-zero basis functions:      476 in task     3
  | Maximal number of non-zero basis functions:      472 in task     4
  | Maximal number of non-zero basis functions:      477 in task     5
  | Maximal number of non-zero basis functions:      477 in task     6
  | Maximal number of non-zero basis functions:      477 in task     7
  Integrating Hamiltonian matrix: batch-based integration.
  Time summed over all CPUs for integration: real work       15.545 s, elapsed       15.799 s
  Integrating overlap matrix.
  Time summed over all CPUs for integration: real work        8.578 s, elapsed        8.653 s

  Updating Kohn-Sham eigenvalues, eigenvectors, occupation numbers, and Fermi level.
  Solving generalized eigenproblem
  Updating Kohn-Sham eigenvalues and eigenfunctions.
  Transforming overlap matrix and checking for singularities.
  Overlap matrix is nonsingular:
  | Lowest eigenvalue:  0.204118E-03
  Solving real generalised eigenvalue problem by standard LAPACK (fast)
  Determining occupation numbers for Kohn-Sham eigenstates.
  | Chemical potential (Fermi level) in eV                 : -.34059180E+01
  | Error in electron count due to remaining E_F inaccuracy: 0.00000000E+00
  | Maximum occupation number of highest empty state:  0.00E+00

  Writing Kohn-Sham eigenvalues.

  State    Occupation    Eigenvalue [Ha]    Eigenvalue [eV]
      1       2.00000         -19.064911         -518.78264
      2       2.00000         -19.059416         -518.63311
      3       2.00000         -19.051956         -518.43011
      4       2.00000         -19.045458         -518.25329
      5       2.00000         -19.044648         -518.23125
      6       2.00000         -19.042537         -518.17380
      7       2.00000         -19.019935         -517.55877
      8       2.00000          -1.122294          -30.53916
      9       2.00000          -1.111790          -30.25334
     10       2.00000          -1.098596          -29.89433
     11       2.00000          -1.093585          -29.75796
     12       2.00000          -1.086839          -29.57438
     13       2.00000          -1.085754          -29.54488
     14       2.00000          -1.042390          -28.36487
     15       2.00000          -0.653600          -17.78536
     16       2.00000          -0.652043          -17.74301
     17       2.00000          -0.644494          -17.53757
     18       2.00000          -0.623654          -16.97049
     19       2.00000          -0.611494          -16.63960
     20       2.00000          -0.609832          -16.59437
     21       2.00000          -0.604520          -16.44982
     22       2.00000          -0.551898          -15.01790
     23       2.00000          -0.524072          -14.26074
     24       2.00000          -0.509498          -13.86414
     25       2.00000          -0.504845          -13.73754
     26       2.00000          -0.498831          -13.57390
     27       2.00000          -0.497673          -13.54238
     28       2.00000          -0.475676          -12.94381
     29       2.00000          -0.448489          -12.20400
     30       2.00000          -0.441261          -12.00732
     31       2.00000          -0.439639          -11.96319
     32       2.00000          -0.438736          -11.93862
     33       2.00000          -0.430487          -11.71415
     34       2.00000          -0.430154          -11.70510
     35       2.00000          -0.402854          -10.96222
     36       0.00000          -0.101676           -2.76675
     37       0.00000          -0.069341           -1.88685
     38       0.00000          -0.062966           -1.71339
     39       0.00000          -0.055891           -1.52088
     40       0.00000          -0.042878           -1.16677
     41       0.00000          -0.033354           -0.90760
     42       0.00000          -0.011641           -0.31676
     43       0.00000           0.015158            0.41248
     44       0.00000           0.027190            0.73987
     45       0.00000           0.030877            0.84020
     46       0.00000           0.041087            1.11804
     47       0.00000           0.044725            1.21703
     48       0.00000           0.052262            1.42211
     49       0.00000           0.054943            1.49508
     50       0.00000           0.070111            1.90782
     51       0.00000           0.080564            2.19225
     52       0.00000           0.086190            2.34535
     53       0.00000           0.088419            2.40600
     54       0.00000           0.094985            2.58467
     55       0.00000           0.100488            2.73440
     56       0.00000           0.103246            2.80946
     57       0.00000           0.111320            3.02918
     58       0.00000           0.121156            3.29683
     59       0.00000           0.125942            3.42706
     60       0.00000           0.127204            3.46138
     61       0.00000           0.129610            3.52687
     62       0.00000           0.134991            3.67328
     63       0.00000           0.139327            3.79128
     64       0.00000           0.149734            4.07448
     65       0.00000           0.153014            4.16371
     66       0.00000           0.163124            4.43882
     67       0.00000           0.177440            4.82838
     68       0.00000           0.182573            4.96808
     69       0.00000           0.197140            5.36444
     70       0.00000           0.204606            5.56761
     71       0.00000           0.213776            5.81715
     72       0.00000           0.224416            6.10666
     73       0.00000           0.237912            6.47392
     74       0.00000           0.243968            6.63872
     75       0.00000           0.250119            6.80610
     76       0.00000           0.275545            7.49797
     77       0.00000           0.284382            7.73842
     78       0.00000           0.299784            8.15755
     79       0.00000           0.305855            8.32273
     80       0.00000           0.310586            8.45147
     81       0.00000           0.329487            8.96579
     82       0.00000           0.331340            9.01621
     83       0.00000           0.340132            9.25546
     84       0.00000           0.343910            9.35827
     85       0.00000           0.354608            9.64937
     86       0.00000           0.364117            9.90812
     87       0.00000           0.373239           10.15635
     88       0.00000           0.381185           10.37258
     89       0.00000           0.388757           10.57863
     90       0.00000           0.401164           10.91622
     91       0.00000           0.405677           11.03904
     92       0.00000           0.418964           11.40060
     93       0.00000           0.423490           11.52375
     94       0.00000           0.437979           11.91802
     95       0.00000           0.443682           12.07320
     96       0.00000           0.455668           12.39936
     97       0.00000           0.465146           12.65726
     98       0.00000           0.471749           12.83696
     99       0.00000           0.485293           13.20550
    100       0.00000           0.495863           13.49313
    101       0.00000           0.508512           13.83733
    102       0.00000           0.520793           14.17151
    103       0.00000           0.529934           14.42025
    104       0.00000           0.537961           14.63867
    105       0.00000           0.552536           15.03528
    106       0.00000           0.559207           15.21680
    107       0.00000           0.585556           15.93380
    108       0.00000           0.593080           16.13854
    109       0.00000           0.614947           16.73355
    110       0.00000           0.645007           17.55155
    111       0.00000           0.656993           17.87770
    112       0.00000           0.679281           18.48416
    113       0.00000           0.696751           18.95957
    114       0.00000           0.707322           19.24721
    115       0.00000           0.720750           19.61260
    116       0.00000           0.736312           20.03607
    117       0.00000           0.746175           20.30445
    118       0.00000           0.775062           21.09051
    119       0.00000           0.793005           21.57877

  Highest occupied state (VBM) at    -10.96221837 eV
  | Occupation number:      2.00000000

  Lowest unoccupied state (CBM) at    -2.76674692 eV
  | Occupation number:      0.00000000

  Overall HOMO-LUMO gap:      8.19547145 eV.
  Calculating total energy contributions from superposition of free atom densities.

  Total energy components:
  | Sum of eigenvalues            :        -303.92772435 Ha       -8270.29416746 eV
  | XC energy correction          :         -63.84536195 Ha       -1737.32069252 eV
  | XC potential correction       :          81.59126813 Ha        2220.21136889 eV
  | Free-atom electrostatic energy:        -250.14234163 Ha       -6806.71943784 eV
  | Hartree energy correction     :           0.00000000 Ha           0.00000000 eV
  | van der Waals energy corr.    :           0.00000000 Ha           0.00000000 eV
  | Entropy correction            :           0.00000000 Ha           0.00000000 eV
  | ---------------------------
  | Total energy                  :        -536.32415980 Ha      -14594.12292893 eV
  | Total energy, T -> 0          :        -536.32415980 Ha      -14594.12292893 eV  <-- do not rely on this value for anything but (periodic) metals
  | Electronic free energy        :        -536.32415980 Ha      -14594.12292893 eV

  Derived energy quantities:
  | Kinetic energy                :         530.90043773 Ha       14446.53594238 eV
  | Electrostatic energy          :       -1003.37923558 Ha      -27303.33817879 eV
  | Energy correction for multipole
  | error in Hartree potential    :           0.00000000 Ha           0.00000000 eV
  | Sum of eigenvalues per atom                           :        -393.82353178 eV
  | Total energy (T->0) per atom                          :        -694.95823471 eV  <-- do not rely on this value for anything but (periodic) metals
  | Electronic free energy per atom                       :        -694.95823471 eV
  Initialize hartree_potential_storage
  Max. number of atoms included in rho_multipole:           21

  End scf initialization - timings             :  max(cpu_time)    wall_clock(cpu1)
  | Time for scf. initialization               :        4.093 s           4.093 s
  | Boundary condition initialization          :        0.000 s           0.000 s
  | Integration                                :        3.064 s           3.063 s
  | Solution of K.-S. eqns.                    :        0.439 s           0.439 s
  | Grid partitioning                          :        0.192 s           0.193 s
  | Preloading free-atom quantities on grid    :        0.013 s           0.013 s
  | Free-atom superposition energy             :        0.118 s           0.118 s
  | Total energy evaluation                    :        0.000 s           0.001 s
------------------------------------------------------------

------------------------------------------------------------
          Begin self-consistency iteration #    1

  Date     :  20150727, Time     :  113929.077
------------------------------------------------------------
  Evaluating new KS density.
  Integration grid: deviation in total charge (<rho> - N_e) =   4.263256E-14
  Pulay mixing of updated and previous charge densities.

  Evaluating partitioned Hartree potential by multipole expansion.
  | Analytical far-field extrapolation by fixed multipoles:
  | Hartree multipole sum: apparent total charge =  -0.219043E-05
  Summing up the Hartree potential.
  Time summed over all CPUs for potential: real work        4.983 s, elapsed        5.007 s
  | RMS charge density error from multipole expansion :   0.197520E-02

  Integrating Hamiltonian matrix: batch-based integration.
  Time summed over all CPUs for integration: real work       15.489 s, elapsed       15.686 s

  Updating Kohn-Sham eigenvalues, eigenvectors, occupation numbers, and Fermi level.
  Solving generalized eigenproblem
  Updating Kohn-Sham eigenvalues and eigenfunctions.
  Solving real generalised eigenvalue problem by standard LAPACK (fast)
  Determining occupation numbers for Kohn-Sham eigenstates.
  | Chemical potential (Fermi level) in eV                 : -.30217348E+01
  | Error in electron count due to remaining E_F inaccuracy: 0.00000000E+00
  | Maximum occupation number of highest empty state:  0.00E+00

  Writing Kohn-Sham eigenvalues.

  State    Occupation    Eigenvalue [Ha]    Eigenvalue [eV]
      1       2.00000         -18.994759         -516.87368
      2       2.00000         -18.989526         -516.73130
      3       2.00000         -18.981716         -516.51878
      4       2.00000         -18.971085         -516.22948
      5       2.00000         -18.963481         -516.02257
      6       2.00000         -18.962496         -515.99577
      7       2.00000         -18.916288         -514.73839
      8       2.00000          -1.084514          -29.51113
      9       2.00000          -1.082698          -29.46171
     10       2.00000          -1.061498          -28.88484
     11       2.00000          -1.051005          -28.59930
     12       2.00000          -1.049120          -28.54800
     13       2.00000          -1.047291          -28.49824
     14       2.00000          -0.982734          -26.74155
     15       2.00000          -0.628336          -17.09789
     16       2.00000          -0.619746          -16.86415
     17       2.00000          -0.603011          -16.40876
     18       2.00000          -0.591446          -16.09406
     19       2.00000          -0.582885          -15.86112
     20       2.00000          -0.577846          -15.72400
     21       2.00000          -0.561511          -15.27949
     22       2.00000          -0.511839          -13.92786
     23       2.00000          -0.493458          -13.42769
     24       2.00000          -0.476500          -12.96621
     25       2.00000          -0.461363          -12.55434
     26       2.00000          -0.457602          -12.45199
     27       2.00000          -0.451598          -12.28861
     28       2.00000          -0.430923          -11.72601
     29       2.00000          -0.417171          -11.35179
     30       2.00000          -0.406477          -11.06080
     31       2.00000          -0.394746          -10.74158
     32       2.00000          -0.389748          -10.60557
     33       2.00000          -0.387474          -10.54371
     34       2.00000          -0.382012          -10.39507
     35       2.00000          -0.341512           -9.29302
     36       0.00000          -0.093419           -2.54206
     37       0.00000          -0.061608           -1.67643
     38       0.00000          -0.052952           -1.44089
     39       0.00000          -0.046642           -1.26920
     40       0.00000          -0.035059           -0.95399
     41       0.00000          -0.026139           -0.71128
     42       0.00000          -0.004137           -0.11257
     43       0.00000           0.028255            0.76886
     44       0.00000           0.039122            1.06457
     45       0.00000           0.039946            1.08698
     46       0.00000           0.051826            1.41026
     47       0.00000           0.053625            1.45922
     48       0.00000           0.061499            1.67348
     49       0.00000           0.064750            1.76194
     50       0.00000           0.079754            2.17020
     51       0.00000           0.090066            2.45083
     52       0.00000           0.097760            2.66020
     53       0.00000           0.100296            2.72920
     54       0.00000           0.105249            2.86397
     55       0.00000           0.112692            3.06652
     56       0.00000           0.118927            3.23616
     57       0.00000           0.125550            3.41639
     58       0.00000           0.130184            3.54248
     59       0.00000           0.135812            3.69562
     60       0.00000           0.138717            3.77468
     61       0.00000           0.141728            3.85662
     62       0.00000           0.146840            3.99571
     63       0.00000           0.150153            4.08588
     64       0.00000           0.159323            4.33541
     65       0.00000           0.172024            4.68101
     66       0.00000           0.181436            4.93713
     67       0.00000           0.191323            5.20617
     68       0.00000           0.193836            5.27455
     69       0.00000           0.210044            5.71558
     70       0.00000           0.215728            5.87025
     71       0.00000           0.223644            6.08566
     72       0.00000           0.238976            6.50287
     73       0.00000           0.250077            6.80493
     74       0.00000           0.254521            6.92587
     75       0.00000           0.261563            7.11749
     76       0.00000           0.284410            7.73919
     77       0.00000           0.295442            8.03939
     78       0.00000           0.307313            8.36243
     79       0.00000           0.319833            8.70311
     80       0.00000           0.322417            8.77341
     81       0.00000           0.340277            9.25942
     82       0.00000           0.342064            9.30805
     83       0.00000           0.351252            9.55806
     84       0.00000           0.355775            9.68114
     85       0.00000           0.362655            9.86833
     86       0.00000           0.373312           10.15833
     87       0.00000           0.382305           10.40304
     88       0.00000           0.391454           10.65201
     89       0.00000           0.399307           10.86570
     90       0.00000           0.413983           11.26505
     91       0.00000           0.419517           11.41564
     92       0.00000           0.429414           11.68495
     93       0.00000           0.436729           11.88400
     94       0.00000           0.447969           12.18985
     95       0.00000           0.453252           12.33363
     96       0.00000           0.467649           12.72538
     97       0.00000           0.477583           12.99570
     98       0.00000           0.483587           13.15907
     99       0.00000           0.497116           13.52722
    100       0.00000           0.508379           13.83369
    101       0.00000           0.521290           14.18503
    102       0.00000           0.532313           14.48497
    103       0.00000           0.544868           14.82660
    104       0.00000           0.551612           15.01013
    105       0.00000           0.567286           15.43664
    106       0.00000           0.574915           15.64424
    107       0.00000           0.598987           16.29926
    108       0.00000           0.607060           16.51894
    109       0.00000           0.630781           17.16443
    110       0.00000           0.656947           17.87645
    111       0.00000           0.672486           18.29927
    112       0.00000           0.695491           18.92528
    113       0.00000           0.712984           19.40128
    114       0.00000           0.721959           19.64550
    115       0.00000           0.738580           20.09778
    116       0.00000           0.750272           20.41593
    117       0.00000           0.759427           20.66506
    118       0.00000           0.786870           21.41183
    119       0.00000           0.804407           21.88904

  Highest occupied state (VBM) at     -9.29301780 eV
  | Occupation number:      2.00000000

  Lowest unoccupied state (CBM) at    -2.54205994 eV
  | Occupation number:      0.00000000

  Overall HOMO-LUMO gap:      6.75095786 eV.

  Total energy components:
  | Sum of eigenvalues            :        -300.61083183 Ha       -8180.03692991 eV
  | XC energy correction          :         -64.18375507 Ha       -1746.52883780 eV
  | XC potential correction       :          82.03333313 Ha        2232.24056950 eV
  | Free-atom electrostatic energy:        -250.14234163 Ha       -6806.71943784 eV
  | Hartree energy correction     :          -3.21292680 Ha         -87.42818649 eV
  | van der Waals energy corr.    :           0.00000000 Ha           0.00000000 eV
  | Entropy correction            :           0.00000000 Ha           0.00000000 eV
  | ---------------------------
  | Total energy                  :        -536.11652221 Ha      -14588.47282255 eV
  | Total energy, T -> 0          :        -536.11652221 Ha      -14588.47282255 eV  <-- do not rely on this value for anything but (periodic) metals
  | Electronic free energy        :        -536.11652221 Ha      -14588.47282255 eV

  Derived energy quantities:
  | Kinetic energy                :         532.92726465 Ha       14501.68870896 eV
  | Electrostatic energy          :       -1004.86003179 Ha      -27343.63269371 eV
  | Energy correction for multipole
  | error in Hartree potential    :           0.00007353 Ha           0.00200089 eV
  | Sum of eigenvalues per atom                           :        -389.52556809 eV
  | Total energy (T->0) per atom                          :        -694.68918203 eV  <-- do not rely on this value for anything but (periodic) metals
  | Electronic free energy per atom                       :        -694.68918203 eV

  Self-consistency convergence accuracy:
  | Change of charge density      : 0.7875E+00
  | Change of sum of eigenvalues  : 0.9026E+02 eV
  | Change of total energy        : 0.5650E+01 eV

  End self-consistency iteration #     1       :  max(cpu_time)    wall_clock(cpu1)
  | Time for this iteration                    :        4.065 s           4.065 s
  | Charge density update                      :        1.338 s           1.337 s
  | Density mixing                             :        0.005 s           0.005 s
  | Hartree multipole update                   :        0.007 s           0.007 s
  | Hartree multipole summation                :        0.627 s           0.627 s
  | Integration                                :        1.964 s           1.963 s
  | Solution of K.-S. eqns.                    :        0.120 s           0.120 s
  | Total energy evaluation                    :        0.000 s           0.000 s
------------------------------------------------------------

------------------------------------------------------------
          Begin self-consistency iteration #    2

  Date     :  20150727, Time     :  113933.143
------------------------------------------------------------
  Evaluating new KS density.
  Integration grid: deviation in total charge (<rho> - N_e) =   1.421085E-14
  Pulay mixing of updated and previous charge densities.

  Evaluating partitioned Hartree potential by multipole expansion.
  | Analytical far-field extrapolation by fixed multipoles:
  | Hartree multipole sum: apparent total charge =  -0.597327E-05
  Summing up the Hartree potential.
  Time summed over all CPUs for potential: real work        4.984 s, elapsed        5.008 s
  | RMS charge density error from multipole expansion :   0.800205E-02

  Integrating Hamiltonian matrix: batch-based integration.
  Time summed over all CPUs for integration: real work       15.544 s, elapsed       15.803 s

  Updating Kohn-Sham eigenvalues, eigenvectors, occupation numbers, and Fermi level.
  Solving generalized eigenproblem
  Updating Kohn-Sham eigenvalues and eigenfunctions.
  Solving real generalised eigenvalue problem by standard LAPACK (fast)
  Determining occupation numbers for Kohn-Sham eigenstates.
  | Chemical potential (Fermi level) in eV                 : -.29474701E+01
  | Error in electron count due to remaining E_F inaccuracy: 0.00000000E+00
  | Maximum occupation number of highest empty state:  0.00E+00

  Highest occupied state (VBM) at     -5.15938667 eV
  | Occupation number:      2.00000000

  Lowest unoccupied state (CBM) at    -2.11789480 eV
  | Occupation number:      0.00000000

  Overall HOMO-LUMO gap:      3.04149187 eV.

  Total energy components:
  | Sum of eigenvalues            :        -292.56360884 Ha       -7961.06085077 eV
  | XC energy correction          :         -65.03853992 Ha       -1769.78871707 eV
  | XC potential correction       :          83.14880910 Ha        2262.59421510 eV
  | Free-atom electrostatic energy:        -250.14234163 Ha       -6806.71943784 eV
  | Hartree energy correction     :         -11.27217205 Ha        -306.73140793 eV
  | van der Waals energy corr.    :           0.00000000 Ha           0.00000000 eV
  | Entropy correction            :           0.00000000 Ha           0.00000000 eV
  | ---------------------------
  | Total energy                  :        -535.86785334 Ha      -14581.70619850 eV
  | Total energy, T -> 0          :        -535.86785334 Ha      -14581.70619850 eV  <-- do not rely on this value for anything but (periodic) metals
  | Electronic free energy        :        -535.86785334 Ha      -14581.70619850 eV

  Derived energy quantities:
  | Kinetic energy                :         537.10238342 Ha       14615.29947120 eV
  | Electrostatic energy          :       -1007.93169685 Ha      -27427.21695264 eV
  | Energy correction for multipole
  | error in Hartree potential    :          -0.00084406 Ha          -0.02296800 eV
  | Sum of eigenvalues per atom                           :        -379.09813575 eV
  | Total energy (T->0) per atom                          :        -694.36696183 eV  <-- do not rely on this value for anything but (periodic) metals
  | Electronic free energy per atom                       :        -694.36696183 eV

  Self-consistency convergence accuracy:
  | Change of charge density      : 0.5970E+00
  | Change of sum of eigenvalues  : 0.2190E+03 eV
  | Change of total energy        : 0.6767E+01 eV

  End self-consistency iteration #     2       :  max(cpu_time)    wall_clock(cpu1)
  | Time for this iteration                    :        4.073 s           4.073 s
  | Charge density update                      :        1.333 s           1.332 s
  | Density mixing                             :        0.008 s           0.008 s
  | Hartree multipole update                   :        0.006 s           0.007 s
  | Hartree multipole summation                :        0.627 s           0.627 s
  | Integration                                :        1.978 s           1.978 s
  | Solution of K.-S. eqns.                    :        0.120 s           0.119 s
  | Total energy evaluation                    :        0.001 s           0.001 s
------------------------------------------------------------

------------------------------------------------------------
          Begin self-consistency iteration #    3

  Date     :  20150727, Time     :  113937.216
------------------------------------------------------------
  Evaluating new KS density.
  Integration grid: deviation in total charge (<rho> - N_e) =   0.000000E+00
  Pulay mixing of updated and previous charge densities.

  Evaluating partitioned Hartree potential by multipole expansion.
  | Analytical far-field extrapolation by fixed multipoles:
  | Hartree multipole sum: apparent total charge =  -0.410134E-05
  Summing up the Hartree potential.
  Time summed over all CPUs for potential: real work        4.984 s, elapsed        5.009 s
  | RMS charge density error from multipole expansion :   0.157313E-01

  Integrating Hamiltonian matrix: batch-based integration.
  Time summed over all CPUs for integration: real work       15.502 s, elapsed       15.724 s

  Updating Kohn-Sham eigenvalues, eigenvectors, occupation numbers, and Fermi level.
  Solving generalized eigenproblem
  Updating Kohn-Sham eigenvalues and eigenfunctions.
  Solving real generalised eigenvalue problem by standard LAPACK (fast)
  Determining occupation numbers for Kohn-Sham eigenstates.
  | Chemical potential (Fermi level) in eV                 : -.27508213E+01
  | Error in electron count due to remaining E_F inaccuracy: 0.00000000E+00
  | Maximum occupation number of highest empty state:  0.00E+00

  Highest occupied state (VBM) at     -4.81922249 eV
  | Occupation number:      2.00000000

  Lowest unoccupied state (CBM) at    -2.15213250 eV
  | Occupation number:      0.00000000

  Overall HOMO-LUMO gap:      2.66708999 eV.

  Total energy components:
  | Sum of eigenvalues            :        -292.81454983 Ha       -7967.88930273 eV
  | XC energy correction          :         -64.99838291 Ha       -1768.69598924 eV
  | XC potential correction       :          83.08839999 Ha        2260.95039965 eV
  | Free-atom electrostatic energy:        -250.14234163 Ha       -6806.71943784 eV
  | Hartree energy correction     :         -10.99267116 Ha        -299.12580162 eV
  | van der Waals energy corr.    :           0.00000000 Ha           0.00000000 eV
  | Entropy correction            :           0.00000000 Ha           0.00000000 eV
  | ---------------------------
  | Total energy                  :        -535.85954554 Ha      -14581.48013178 eV
  | Total energy, T -> 0          :        -535.85954554 Ha      -14581.48013178 eV  <-- do not rely on this value for anything but (periodic) metals
  | Electronic free energy        :        -535.85954554 Ha      -14581.48013178 eV

  Derived energy quantities:
  | Kinetic energy                :         534.28474751 Ha       14538.62769708 eV
  | Electrostatic energy          :       -1005.14591015 Ha      -27351.41183961 eV
  | Energy correction for multipole
  | error in Hartree potential    :          -0.00652300 Ha          -0.17749986 eV
  | Sum of eigenvalues per atom                           :        -379.42330013 eV
  | Total energy (T->0) per atom                          :        -694.35619675 eV  <-- do not rely on this value for anything but (periodic) metals
  | Electronic free energy per atom                       :        -694.35619675 eV

  Self-consistency convergence accuracy:
  | Change of charge density      : 0.2930E+00
  | Change of sum of eigenvalues  : -.6828E+01 eV
  | Change of total energy        : 0.2261E+00 eV

  End self-consistency iteration #     3       :  max(cpu_time)    wall_clock(cpu1)
  | Time for this iteration                    :        4.064 s           4.064 s
  | Charge density update                      :        1.332 s           1.331 s
  | Density mixing                             :        0.010 s           0.010 s
  | Hartree multipole update                   :        0.006 s           0.007 s
  | Hartree multipole summation                :        0.627 s           0.627 s
  | Integration                                :        1.968 s           1.968 s
  | Solution of K.-S. eqns.                    :        0.120 s           0.120 s
  | Total energy evaluation                    :        0.001 s           0.001 s
------------------------------------------------------------

------------------------------------------------------------
          Begin self-consistency iteration #    4

  Date     :  20150727, Time     :  113941.281
------------------------------------------------------------
  Evaluating new KS density.
  Integration grid: deviation in total charge (<rho> - N_e) =   4.263256E-14
  Pulay mixing of updated and previous charge densities.

  Evaluating partitioned Hartree potential by multipole expansion.
  | Analytical far-field extrapolation by fixed multipoles:
  | Hartree multipole sum: apparent total charge =  -0.454185E-05
  Summing up the Hartree potential.
  Time summed over all CPUs for potential: real work        4.983 s, elapsed        5.009 s
  | RMS charge density error from multipole expansion :   0.207657E-01

  Integrating Hamiltonian matrix: batch-based integration.
  Time summed over all CPUs for integration: real work       15.502 s, elapsed       15.724 s

  Updating Kohn-Sham eigenvalues, eigenvectors, occupation numbers, and Fermi level.
  Solving generalized eigenproblem
  Updating Kohn-Sham eigenvalues and eigenfunctions.
  Solving real generalised eigenvalue problem by standard LAPACK (fast)
  Determining occupation numbers for Kohn-Sham eigenstates.
  | Chemical potential (Fermi level) in eV                 : -.31384947E+01
  | Error in electron count due to remaining E_F inaccuracy: 0.00000000E+00
  | Maximum occupation number of highest empty state:  0.00E+00

  Highest occupied state (VBM) at     -3.34903247 eV
  | Occupation number:      2.00000000

  Lowest unoccupied state (CBM) at    -2.06902395 eV
  | Occupation number:      0.00000000

  Overall HOMO-LUMO gap:      1.28000851 eV.

  Total energy components:
  | Sum of eigenvalues            :        -290.33332139 Ha       -7900.37164147 eV
  | XC energy correction          :         -65.28687901 Ha       -1776.54636762 eV
  | XC potential correction       :          83.46310788 Ha        2271.14672020 eV
  | Free-atom electrostatic energy:        -250.14234163 Ha       -6806.71943784 eV
  | Hartree energy correction     :         -13.54367169 Ha        -368.54205784 eV
  | van der Waals energy corr.    :           0.00000000 Ha           0.00000000 eV
  | Entropy correction            :           0.00000000 Ha           0.00000000 eV
  | ---------------------------
  | Total energy                  :        -535.84310584 Ha      -14581.03278456 eV
  | Total energy, T -> 0          :        -535.84310584 Ha      -14581.03278456 eV  <-- do not rely on this value for anything but (periodic) metals
  | Electronic free energy        :        -535.84310584 Ha      -14581.03278456 eV

  Derived energy quantities:
  | Kinetic energy                :         534.46692728 Ha       14543.58506072 eV
  | Electrostatic energy          :       -1005.02315410 Ha      -27348.07147766 eV
  | Energy correction for multipole
  | error in Hartree potential    :          -0.00921407 Ha          -0.25072759 eV
  | Sum of eigenvalues per atom                           :        -376.20817340 eV
  | Total energy (T->0) per atom                          :        -694.33489450 eV  <-- do not rely on this value for anything but (periodic) metals
  | Electronic free energy per atom                       :        -694.33489450 eV

  Self-consistency convergence accuracy:
  | Change of charge density      : 0.1623E+00
  | Change of sum of eigenvalues  : 0.6752E+02 eV
  | Change of total energy        : 0.4473E+00 eV

  End self-consistency iteration #     4       :  max(cpu_time)    wall_clock(cpu1)
  | Time for this iteration                    :        4.068 s           4.068 s
  | Charge density update                      :        1.334 s           1.333 s
  | Density mixing                             :        0.012 s           0.012 s
  | Hartree multipole update                   :        0.007 s           0.007 s
  | Hartree multipole summation                :        0.627 s           0.627 s
  | Integration                                :        1.969 s           1.968 s
  | Solution of K.-S. eqns.                    :        0.119 s           0.119 s
  | Total energy evaluation                    :        0.001 s           0.001 s
------------------------------------------------------------

------------------------------------------------------------
          Begin self-consistency iteration #    5

  Date     :  20150727, Time     :  113945.349
------------------------------------------------------------
  Evaluating new KS density.
  Integration grid: deviation in total charge (<rho> - N_e) =   5.684342E-14
  Pulay mixing of updated and previous charge densities.

  Evaluating partitioned Hartree potential by multipole expansion.
  | Analytical far-field extrapolation by fixed multipoles:
  | Hartree multipole sum: apparent total charge =  -0.427771E-05
  Summing up the Hartree potential.
  Time summed over all CPUs for potential: real work        4.983 s, elapsed        5.011 s
  | RMS charge density error from multipole expansion :   0.213871E-01

  Integrating Hamiltonian matrix: batch-based integration.
  Time summed over all CPUs for integration: real work       15.506 s, elapsed       15.732 s

  Updating Kohn-Sham eigenvalues, eigenvectors, occupation numbers, and Fermi level.
  Solving generalized eigenproblem
  Updating Kohn-Sham eigenvalues and eigenfunctions.
  Solving real generalised eigenvalue problem by standard LAPACK (fast)
  Determining occupation numbers for Kohn-Sham eigenstates.
  | Chemical potential (Fermi level) in eV                 : -.31272078E+01
  | Error in electron count due to remaining E_F inaccuracy: 0.00000000E+00
  | Maximum occupation number of highest empty state:  0.00E+00

  Highest occupied state (VBM) at     -3.27028995 eV
  | Occupation number:      2.00000000

  Lowest unoccupied state (CBM) at    -2.05407393 eV
  | Occupation number:      0.00000000

  Overall HOMO-LUMO gap:      1.21621602 eV.

  Total energy components:
  | Sum of eigenvalues            :        -290.19726311 Ha       -7896.66930744 eV
  | XC energy correction          :         -65.31069440 Ha       -1777.19441729 eV
  | XC potential correction       :          83.49344481 Ha        2271.97222987 eV
  | Free-atom electrostatic energy:        -250.14234163 Ha       -6806.71943784 eV
  | Hartree energy correction     :         -13.68607963 Ha        -372.41717509 eV
  | van der Waals energy corr.    :           0.00000000 Ha           0.00000000 eV
  | Entropy correction            :           0.00000000 Ha           0.00000000 eV
  | ---------------------------
  | Total energy                  :        -535.84293397 Ha      -14581.02810779 eV
  | Total energy, T -> 0          :        -535.84293397 Ha      -14581.02810779 eV  <-- do not rely on this value for anything but (periodic) metals
  | Electronic free energy        :        -535.84293397 Ha      -14581.02810779 eV

  Derived energy quantities:
  | Kinetic energy                :         534.55224350 Ha       14545.90663335 eV
  | Electrostatic energy          :       -1005.08448307 Ha      -27349.74032385 eV
  | Energy correction for multipole
  | error in Hartree potential    :          -0.00939441 Ha          -0.25563487 eV
  | Sum of eigenvalues per atom                           :        -376.03187178 eV
  | Total energy (T->0) per atom                          :        -694.33467180 eV  <-- do not rely on this value for anything but (periodic) metals
  | Electronic free energy per atom                       :        -694.33467180 eV

  Self-consistency convergence accuracy:
  | Change of charge density      : 0.3191E-01
  | Change of sum of eigenvalues  : 0.3702E+01 eV
  | Change of total energy        : 0.4677E-02 eV

  End self-consistency iteration #     5       :  max(cpu_time)    wall_clock(cpu1)
  | Time for this iteration                    :        4.066 s           4.066 s
  | Charge density update                      :        1.329 s           1.328 s
  | Density mixing                             :        0.014 s           0.013 s
  | Hartree multipole update                   :        0.006 s           0.007 s
  | Hartree multipole summation                :        0.627 s           0.627 s
  | Integration                                :        1.970 s           1.970 s
  | Solution of K.-S. eqns.                    :        0.119 s           0.118 s
  | Total energy evaluation                    :        0.000 s           0.001 s
------------------------------------------------------------

------------------------------------------------------------
          Begin self-consistency iteration #    6

  Date     :  20150727, Time     :  113949.415
------------------------------------------------------------
  Evaluating new KS density.
  Integration grid: deviation in total charge (<rho> - N_e) =   1.421085E-14
  Pulay mixing of updated and previous charge densities.

  Evaluating partitioned Hartree potential by multipole expansion.
  | Analytical far-field extrapolation by fixed multipoles:
  | Hartree multipole sum: apparent total charge =  -0.414123E-05
  Summing up the Hartree potential.
  Time summed over all CPUs for potential: real work        4.983 s, elapsed        5.010 s
  | RMS charge density error from multipole expansion :   0.215604E-01

  Integrating Hamiltonian matrix: batch-based integration.
  Time summed over all CPUs for integration: real work       15.503 s, elapsed       15.727 s

  Updating Kohn-Sham eigenvalues, eigenvectors, occupation numbers, and Fermi level.
  Solving generalized eigenproblem
  Updating Kohn-Sham eigenvalues and eigenfunctions.
  Solving real generalised eigenvalue problem by standard LAPACK (fast)
  Determining occupation numbers for Kohn-Sham eigenstates.
  | Chemical potential (Fermi level) in eV                 : -.30815689E+01
  | Error in electron count due to remaining E_F inaccuracy: 0.00000000E+00
  | Maximum occupation number of highest empty state:  0.00E+00

  Highest occupied state (VBM) at     -3.29902254 eV
  | Occupation number:      2.00000000

  Lowest unoccupied state (CBM) at    -2.05144401 eV
  | Occupation number:      0.00000000

  Overall HOMO-LUMO gap:      1.24757853 eV.

  Total energy components:
  | Sum of eigenvalues            :        -290.22661557 Ha       -7897.46802854 eV
  | XC energy correction          :         -65.31076263 Ha       -1777.19627382 eV
  | XC potential correction       :          83.49316023 Ha        2271.96448603 eV
  | Free-atom electrostatic energy:        -250.14234163 Ha       -6806.71943784 eV
  | Hartree energy correction     :         -13.65633798 Ha        -371.60786355 eV
  | van der Waals energy corr.    :           0.00000000 Ha           0.00000000 eV
  | Entropy correction            :           0.00000000 Ha           0.00000000 eV
  | ---------------------------
  | Total energy                  :        -535.84289758 Ha      -14581.02711771 eV
  | Total energy, T -> 0          :        -535.84289758 Ha      -14581.02711771 eV  <-- do not rely on this value for anything but (periodic) metals
  | Electronic free energy        :        -535.84289758 Ha      -14581.02711771 eV

  Derived energy quantities:
  | Kinetic energy                :         534.56562602 Ha       14546.27079003 eV
  | Electrostatic energy          :       -1005.09776097 Ha      -27350.10163392 eV
  | Energy correction for multipole
  | error in Hartree potential    :          -0.00942230 Ha          -0.25639371 eV
  | Sum of eigenvalues per atom                           :        -376.06990612 eV
  | Total energy (T->0) per atom                          :        -694.33462465 eV  <-- do not rely on this value for anything but (periodic) metals
  | Electronic free energy per atom                       :        -694.33462465 eV

  Self-consistency convergence accuracy:
  | Change of charge density      : 0.1495E-01
  | Change of sum of eigenvalues  : -.7987E+00 eV
  | Change of total energy        : 0.9901E-03 eV

  End self-consistency iteration #     6       :  max(cpu_time)    wall_clock(cpu1)
  | Time for this iteration                    :        4.064 s           4.064 s
  | Charge density update                      :        1.326 s           1.325 s
  | Density mixing                             :        0.016 s           0.015 s
  | Hartree multipole update                   :        0.006 s           0.007 s
  | Hartree multipole summation                :        0.627 s           0.627 s
  | Integration                                :        1.969 s           1.969 s
  | Solution of K.-S. eqns.                    :        0.119 s           0.119 s
  | Total energy evaluation                    :        0.000 s           0.000 s
------------------------------------------------------------

------------------------------------------------------------
          Begin self-consistency iteration #    7

  Date     :  20150727, Time     :  113953.480
------------------------------------------------------------
  Evaluating new KS density.
  Integration grid: deviation in total charge (<rho> - N_e) =   0.000000E+00
  Pulay mixing of updated and previous charge densities.

  Evaluating partitioned Hartree potential by multipole expansion.
  | Analytical far-field extrapolation by fixed multipoles:
  | Hartree multipole sum: apparent total charge =  -0.381313E-05
  Summing up the Hartree potential.
  Time summed over all CPUs for potential: real work        4.983 s, elapsed        5.008 s
  | RMS charge density error from multipole expansion :   0.215331E-01

  Integrating Hamiltonian matrix: batch-based integration.
  Time summed over all CPUs for integration: real work       15.511 s, elapsed       15.759 s

  Updating Kohn-Sham eigenvalues, eigenvectors, occupation numbers, and Fermi level.
  Solving generalized eigenproblem
  Updating Kohn-Sham eigenvalues and eigenfunctions.
  Solving real generalised eigenvalue problem by standard LAPACK (fast)
  Determining occupation numbers for Kohn-Sham eigenstates.
  | Chemical potential (Fermi level) in eV                 : -.31160009E+01
  | Error in electron count due to remaining E_F inaccuracy: 0.00000000E+00
  | Maximum occupation number of highest empty state:  0.00E+00

  Highest occupied state (VBM) at     -3.48646076 eV
  | Occupation number:      2.00000000

  Lowest unoccupied state (CBM) at    -2.05512397 eV
  | Occupation number:      0.00000000

  Overall HOMO-LUMO gap:      1.43133679 eV.

  Total energy components:
  | Sum of eigenvalues            :        -290.43510739 Ha       -7903.14137940 eV
  | XC energy correction          :         -65.29261337 Ha       -1776.70240751 eV
  | XC potential correction       :          83.46875324 Ha        2271.30033815 eV
  | Free-atom electrostatic energy:        -250.14234163 Ha       -6806.71943784 eV
  | Hartree energy correction     :         -13.44144582 Ha        -365.76035040 eV
  | van der Waals energy corr.    :           0.00000000 Ha           0.00000000 eV
  | Entropy correction            :           0.00000000 Ha           0.00000000 eV
  | ---------------------------
  | Total energy                  :        -535.84275497 Ha      -14581.02323699 eV
  | Total energy, T -> 0          :        -535.84275497 Ha      -14581.02323699 eV  <-- do not rely on this value for anything but (periodic) metals
  | Electronic free energy        :        -535.84275497 Ha      -14581.02323699 eV

  Derived energy quantities:
  | Kinetic energy                :         534.63779425 Ha       14548.23458762 eV
  | Electrostatic energy          :       -1005.18793585 Ha      -27352.55541710 eV
  | Energy correction for multipole
  | error in Hartree potential    :          -0.00922626 Ha          -0.25105917 eV
  | Sum of eigenvalues per atom                           :        -376.34006569 eV
  | Total energy (T->0) per atom                          :        -694.33443986 eV  <-- do not rely on this value for anything but (periodic) metals
  | Electronic free energy per atom                       :        -694.33443986 eV

  Self-consistency convergence accuracy:
  | Change of charge density      : 0.1220E-01
  | Change of sum of eigenvalues  : -.5673E+01 eV
  | Change of total energy        : 0.3881E-02 eV

  End self-consistency iteration #     7       :  max(cpu_time)    wall_clock(cpu1)
  | Time for this iteration                    :        4.071 s           4.072 s
  | Charge density update                      :        1.327 s           1.327 s
  | Density mixing                             :        0.018 s           0.018 s
  | Hartree multipole update                   :        0.006 s           0.006 s
  | Hartree multipole summation                :        0.627 s           0.627 s
  | Integration                                :        1.973 s           1.973 s
  | Solution of K.-S. eqns.                    :        0.119 s           0.120 s
  | Total energy evaluation                    :        0.001 s           0.001 s
------------------------------------------------------------

------------------------------------------------------------
          Begin self-consistency iteration #    8

  Date     :  20150727, Time     :  113957.553
------------------------------------------------------------
  Evaluating new KS density.
  Integration grid: deviation in total charge (<rho> - N_e) =  -1.421085E-14
  Pulay mixing of updated and previous charge densities.

  Evaluating partitioned Hartree potential by multipole expansion.
  | Analytical far-field extrapolation by fixed multipoles:
  | Hartree multipole sum: apparent total charge =  -0.379780E-05
  Summing up the Hartree potential.
  Time summed over all CPUs for potential: real work        4.983 s, elapsed        5.009 s
  | RMS charge density error from multipole expansion :   0.216178E-01

  Integrating Hamiltonian matrix: batch-based integration.
  Time summed over all CPUs for integration: real work       15.498 s, elapsed       15.747 s

  Updating Kohn-Sham eigenvalues, eigenvectors, occupation numbers, and Fermi level.
  Solving generalized eigenproblem
  Updating Kohn-Sham eigenvalues and eigenfunctions.
  Solving real generalised eigenvalue problem by standard LAPACK (fast)
  Determining occupation numbers for Kohn-Sham eigenstates.
  | Chemical potential (Fermi level) in eV                 : -.31095931E+01
  | Error in electron count due to remaining E_F inaccuracy: 0.00000000E+00
  | Maximum occupation number of highest empty state:  0.00E+00

  Highest occupied state (VBM) at     -3.45046039 eV
  | Occupation number:      2.00000000

  Lowest unoccupied state (CBM) at    -2.05515057 eV
  | Occupation number:      0.00000000

  Overall HOMO-LUMO gap:      1.39530982 eV.

  Total energy components:
  | Sum of eigenvalues            :        -290.40346557 Ha       -7902.28036182 eV
  | XC energy correction          :         -65.29601741 Ha       -1776.79503613 eV
  | XC potential correction       :          83.47315319 Ha        2271.42006692 eV
  | Free-atom electrostatic energy:        -250.14234163 Ha       -6806.71943784 eV
  | Hartree energy correction     :         -13.47408126 Ha        -366.64840587 eV
  | van der Waals energy corr.    :           0.00000000 Ha           0.00000000 eV
[...]
  Timings for vdw_correction_hirshfeld (Tkatchenko-Scheffler 2009):
  | CPU time:       10.978 s, Wall clock time:       10.983 s.
  Removing unitary transformations (pure translations, rotations) from forces on atoms.
  Atomic forces before filtering:
  | Net force on center of mass :  0.706360E-02 0.305878E-02 -.976425E-02 eV/A
  | Net torque on center of mass:  0.399066E-03 0.115168E-01 -.199877E-01 eV
  Atomic forces after filtering:
  | Net force on center of mass :  -.356812E-15 0.624421E-15 -.356812E-15 eV/A
  | Net torque on center of mass:  0.311548E-14 0.207699E-14 -.490924E-14 eV
 
  Energy and forces in a compact form:
  | Total energy uncorrected      :         -0.145811612332197E+05 eV
  | Total energy corrected        :         -0.145811612332197E+05 eV  <-- do not rely on this value for anything but (periodic) metals
  | Electronic free energy        :         -0.145811612332197E+05 eV
  Total atomic forces (unitary forces cleaned) [eV/Ang]:
  |   1         -0.361243571600222E+00          0.254265217324009E+01         -0.168034213197043E+01
  |   2          0.184683036684583E+01         -0.319923541465304E+01          0.125526017130861E+01
  |   3         -0.210106849687812E+01         -0.660521561493916E+00         -0.264084585151458E+00
  |   4         -0.228937634119842E+00         -0.145930746213360E+01         -0.324922927333988E+00
  |   5         -0.535189674451545E+00          0.522921470392977E+00          0.977758430234959E+00
  |   6          0.534607427081728E+00          0.807081624924929E+00          0.312874367493372E+00
  |   7         -0.147862225902349E+00          0.744445102755282E+00          0.210677275230714E+01
  |   8         -0.271295122672440E+00         -0.282612834965080E+00         -0.155572572200190E+00
  |   9         -0.283937739957817E+00          0.335327244130417E+00         -0.237376498925281E+01
  |  10          0.322967492510231E+01          0.979182650779806E-01          0.119455970606028E+01
  |  11         -0.230817016005473E+00         -0.708980976121602E+00         -0.970984752207585E+00
  |  12         -0.157889941729306E+01          0.942149825306610E+00         -0.353797956697414E+00
  |  13          0.867457034747340E+00          0.588479916801505E+00         -0.140323532077481E+01
  |  14         -0.306146708460543E+00         -0.193041586142878E+00          0.396608496574100E+00
  |  15         -0.545031486315574E+00         -0.234936665500615E+00          0.124357472463491E+01
  |  16          0.101149173823109E+01          0.189751035475233E+01         -0.879172503183217E+00
  |  17         -0.618693837014910E-01         -0.318001828006731E+00          0.132251345550081E+00
  |  18         -0.786771002269917E+00         -0.135516840448193E+01          0.608574544718955E+00
  |  19          0.116140411242874E+01          0.168229335186401E+00         -0.131918680942794E+01
  |  20         -0.337036825613803E+00          0.534203824981979E+00          0.324103675684530E+00
  |  21         -0.875359299194835E+00         -0.769112404051113E+00          0.117272633363291E+01
 
  ------------------------------------ 
  Start decomposition of the XC Energy 
  ------------------------------------ 
  Hartree-Fock part   :          0.000000000 Ha              0.000000000 eV
  ------------------------------------ 
  X Energy            :        -62.995140525 Ha          -1714.184990467 eV
  C Energy GGA        :         -2.300167584 Ha            -62.590744533 eV
  Total XC Energy     :        -65.295308109 Ha          -1776.775735000 eV
  LDA X and C from self-consistent density 
  X Energy LDA        :        -56.793524400 Ha          -1545.430429561 eV
  C Energy LDA        :         -4.625176124 Ha           -125.857445901 eV
  ------------------------------------ 
  End decomposition of the XC Energy 
  ------------------------------------ 
  Performing Hirshfeld analysis of fragment charges and moments.
  ----------------------------------------------------------------------
  | Atom     1: O
  |   Hirshfeld charge        :     -0.40504336
  |   Free atom volume        :     23.95238533
  |   Hirshfeld volume        :     24.60350732
  |   Hirshfeld dipole vector :      0.02261235       0.06947649       0.02755052
  |   Hirshfeld dipole moment :      0.07808542
  |   Hirshfeld second moments:     -0.01257764      -0.02124951       0.01370046
  |                                 -0.02124951      -0.07744651      -0.03415590
  |                                  0.01370046      -0.03415590      -0.09418972
  ----------------------------------------------------------------------
  | Atom     2: H
  |   Hirshfeld charge        :      0.05294176
  |   Free atom volume        :     10.44207651
  |   Hirshfeld volume        :      8.83716541
  |   Hirshfeld dipole vector :     -0.02219517       0.04226559      -0.00811953
  |   Hirshfeld dipole moment :      0.04842450
  |   Hirshfeld second moments:      0.06002725       0.02770268       0.00202084
  |                                  0.02770268       0.01626816       0.00659398
  |                                  0.00202084       0.00659398       0.05511728
  ----------------------------------------------------------------------
  | Atom     3: H
  |   Hirshfeld charge        :      0.03797547
  |   Free atom volume        :     10.44207651
  |   Hirshfeld volume        :      9.01894307
  |   Hirshfeld dipole vector :      0.04670469       0.01577123       0.01681355
  |   Hirshfeld dipole moment :      0.05208412
  |   Hirshfeld second moments:      0.01736799      -0.02842939      -0.00182154
  |                                 -0.02842939       0.05647770      -0.00733609
  |                                 -0.00182154      -0.00733609       0.04423202
  ----------------------------------------------------------------------
  | Atom     4: O
  |   Hirshfeld charge        :     -0.28171564
  |   Free atom volume        :     23.95238533
  |   Hirshfeld volume        :     22.06891612
  |   Hirshfeld dipole vector :     -0.03616977       0.02138743       0.01139372
  |   Hirshfeld dipole moment :      0.04353725
  |   Hirshfeld second moments:      0.02529774       0.05753819      -0.00793113
  |                                  0.05753819       0.02928194       0.02592595
  |                                 -0.00793113       0.02592595      -0.00540364
  ----------------------------------------------------------------------
  | Atom     5: H
  |   Hirshfeld charge        :      0.11550049
  |   Free atom volume        :     10.44207651
  |   Hirshfeld volume        :      7.35419431
  |   Hirshfeld dipole vector :      0.03407731       0.08827477       0.05253041
  |   Hirshfeld dipole moment :      0.10822727
  |   Hirshfeld second moments:      0.10235370       0.02144940      -0.00601158
  |                                  0.02144940       0.07894331       0.00147751
  |                                 -0.00601158       0.00147751       0.08758499
  ----------------------------------------------------------------------
  | Atom     6: H
  |   Hirshfeld charge        :      0.13816796
  |   Free atom volume        :     10.44207651
  |   Hirshfeld volume        :      6.82907059
  |   Hirshfeld dipole vector :     -0.10377022      -0.06226234       0.01744763
  |   Hirshfeld dipole moment :      0.12226724
  |   Hirshfeld second moments:      0.09734976       0.01383949       0.00013360
  |                                  0.01383949       0.11193656       0.01254888
  |                                  0.00013360       0.01254888       0.09876722
  ----------------------------------------------------------------------
  | Atom     7: O
  |   Hirshfeld charge        :     -0.20160910
  |   Free atom volume        :     23.95238533
  |   Hirshfeld volume        :     20.58325461
  |   Hirshfeld dipole vector :      0.03131840      -0.01270064      -0.01337203
  |   Hirshfeld dipole moment :      0.03634501
  |   Hirshfeld second moments:      0.03310299       0.01293914       0.02654179
  |                                  0.01293914       0.07278358       0.00573072
  |                                  0.02654179       0.00573072       0.09762648
  ----------------------------------------------------------------------
  | Atom     8: H
  |   Hirshfeld charge        :      0.11467229
  |   Free atom volume        :     10.44207651
  |   Hirshfeld volume        :      7.37175082
  |   Hirshfeld dipole vector :      0.02870288       0.04004463       0.01076427
  |   Hirshfeld dipole moment :      0.05043111
  |   Hirshfeld second moments:      0.07999480      -0.02029858      -0.00623441
  |                                 -0.02029858       0.07105242      -0.02632350
  |                                 -0.00623441      -0.02632350       0.10187328
  ----------------------------------------------------------------------
  | Atom     9: H
  |   Hirshfeld charge        :      0.15712658
  |   Free atom volume        :     10.44207651
  |   Hirshfeld volume        :      6.11179656
  |   Hirshfeld dipole vector :     -0.01757731       0.00832572      -0.11802386
  |   Hirshfeld dipole moment :      0.11961568
  |   Hirshfeld second moments:      0.11584393       0.00980285       0.00842414
  |                                  0.00980285       0.12929373       0.00234305
  |                                  0.00842414       0.00234305       0.12123396
  ----------------------------------------------------------------------
  | Atom    10: O
  |   Hirshfeld charge        :     -0.21132334
  |   Free atom volume        :     23.95238533
  |   Hirshfeld volume        :     21.17208362
  |   Hirshfeld dipole vector :     -0.02370364      -0.03196652       0.03137943
  |   Hirshfeld dipole moment :      0.05067928
  |   Hirshfeld second moments:      0.06047650      -0.02873930       0.00759768
  |                                 -0.02873930       0.05980563       0.03072368
  |                                  0.00759768       0.03072368       0.02471841
  ----------------------------------------------------------------------
  | Atom    11: H
  |   Hirshfeld charge        :      0.10452423
  |   Free atom volume        :     10.44207651
  |   Hirshfeld volume        :      7.38746726
  |   Hirshfeld dipole vector :      0.00799017       0.02553647       0.04968608
  |   Hirshfeld dipole moment :      0.05643280
  |   Hirshfeld second moments:      0.10719299      -0.00205005       0.00925318
  |                                 -0.00205005       0.07588598      -0.02465087
  |                                  0.00925318      -0.02465087       0.06282355
  ----------------------------------------------------------------------
  | Atom    12: H
  |   Hirshfeld charge        :      0.15508622
  |   Free atom volume        :     10.44207651
  |   Hirshfeld volume        :      6.21676858
  |   Hirshfeld dipole vector :      0.08712303      -0.07921672       0.01320488
  |   Hirshfeld dipole moment :      0.11849084
  |   Hirshfeld second moments:      0.11595890      -0.00002797       0.00071237
  |                                 -0.00002797       0.11839218       0.01443010
  |                                  0.00071237       0.01443010       0.11941100
  ----------------------------------------------------------------------
  | Atom    13: O
  |   Hirshfeld charge        :     -0.17378662
  |   Free atom volume        :     23.95238533
  |   Hirshfeld volume        :     19.32840990
  |   Hirshfeld dipole vector :     -0.00667100      -0.00523357       0.00845850
  |   Hirshfeld dipole moment :      0.01197659
  |   Hirshfeld second moments:      0.11489846       0.02986500      -0.00570385
  |                                  0.02986500       0.08731097      -0.00279853
  |                                 -0.00570385      -0.00279853       0.09797321
  ----------------------------------------------------------------------
  | Atom    14: H
  |   Hirshfeld charge        :      0.18650680
  |   Free atom volume        :     10.44207651
  |   Hirshfeld volume        :      5.30251382
  |   Hirshfeld dipole vector :      0.09708777       0.06489304       0.03302183
  |   Hirshfeld dipole moment :      0.12135725
  |   Hirshfeld second moments:      0.13907415       0.00374162      -0.00815580
  |                                  0.00374162       0.13575513      -0.00591472
  |                                 -0.00815580      -0.00591472       0.14761247
  ----------------------------------------------------------------------
  | Atom    15: H
  |   Hirshfeld charge        :      0.18453696
  |   Free atom volume        :     10.44207651
  |   Hirshfeld volume        :      6.15384478
  |   Hirshfeld dipole vector :     -0.06320074      -0.04156233       0.07803043
  |   Hirshfeld dipole moment :      0.10867616
  |   Hirshfeld second moments:      0.11924505       0.00891018       0.01360605
  |                                  0.00891018       0.12562730       0.00156185
  |                                  0.01360605       0.00156185       0.12974898
  ----------------------------------------------------------------------
  | Atom    16: O
  |   Hirshfeld charge        :     -0.18357990
  |   Free atom volume        :     23.95238533
  |   Hirshfeld volume        :     19.95952454
  |   Hirshfeld dipole vector :     -0.00227516      -0.01407796      -0.00081229
  |   Hirshfeld dipole moment :      0.01428373
  |   Hirshfeld second moments:      0.07852217       0.00074527       0.00219033
  |                                  0.00074527       0.10142183      -0.02334582
  |                                  0.00219033      -0.02334582       0.06613652
  ----------------------------------------------------------------------
  | Atom    17: H
  |   Hirshfeld charge        :      0.12455557
  |   Free atom volume        :     10.44207651
  |   Hirshfeld volume        :      6.98189761
  |   Hirshfeld dipole vector :      0.05059103      -0.02004162       0.00714047
  |   Hirshfeld dipole moment :      0.05488265
  |   Hirshfeld second moments:      0.08215449       0.02840627      -0.02124576
  |                                  0.02840627       0.10631823       0.00534666
  |                                 -0.02124576       0.00534666       0.09368594
  ----------------------------------------------------------------------
  | Atom    18: H
  |   Hirshfeld charge        :      0.17226497
  |   Free atom volume        :     10.44207651
  |   Hirshfeld volume        :      5.53454741
  |   Hirshfeld dipole vector :      0.03289033       0.10097725      -0.05258624
  |   Hirshfeld dipole moment :      0.11850524
  |   Hirshfeld second moments:      0.14195130      -0.00555148       0.00491637
  |                                 -0.00555148       0.12984182      -0.00102205
  |                                  0.00491637      -0.00102205       0.12873879
  ----------------------------------------------------------------------
  | Atom    19: O
  |   Hirshfeld charge        :     -0.31322793
  |   Free atom volume        :     23.95238533
  |   Hirshfeld volume        :     22.21896007
  |   Hirshfeld dipole vector :     -0.00906763       0.04855968      -0.01734839
  |   Hirshfeld dipole moment :      0.05235677
  |   Hirshfeld second moments:     -0.00865796      -0.02214604      -0.05582737
  |                                 -0.02214604       0.00574680       0.00975214
  |                                 -0.05582737       0.00975214       0.01960911
  ----------------------------------------------------------------------
  | Atom    20: H
  |   Hirshfeld charge        :      0.13013344
  |   Free atom volume        :     10.44207651
  |   Hirshfeld volume        :      6.48581442
  |   Hirshfeld dipole vector :     -0.06561879       0.08627946       0.06253831
  |   Hirshfeld dipole moment :      0.12514396
  |   Hirshfeld second moments:      0.10151651       0.00119114      -0.01656153
  |                                  0.00119114       0.10656534      -0.00681622
  |                                 -0.01656153      -0.00681622       0.11507084
  ----------------------------------------------------------------------
  | Atom    21: H
  |   Hirshfeld charge        :      0.09627762
  |   Free atom volume        :     10.44207651
  |   Hirshfeld volume        :      7.64386795
  |   Hirshfeld dipole vector :      0.01920049       0.03952178      -0.04462937
  |   Hirshfeld dipole moment :      0.06262915
  |   Hirshfeld second moments:      0.07006644      -0.01934206       0.01505411
  |                                 -0.01934206       0.09917121       0.01380491
  |                                  0.01505411       0.01380491       0.05350985
  ----------------------------------------------------------------------


------------------------------------------------------------------------------
  Final output of selected total energy values:

  The following output summarizes some interesting total energy values
  at the end of a run (AFTER all relaxation, molecular dynamics, etc.).

  | Total energy of the DFT / Hartree-Fock s.c.f. calculation      :         -14581.161233220 eV
  | Final zero-broadening corrected energy (caution - metals only) :         -14581.161233220 eV
  | For reference only, the value of 1 Hartree used in FHI-aims is :             27.211384500 eV

  Before relying on these values, please be sure to understand exactly which
  total energy value is referred to by a given number. Different objects may
  all carry the same name 'total energy'. Definitions:

  Total energy of the DFT / Hartree-Fock s.c.f. calculation:
  | Note that this energy does not include ANY quantities calculated after the
  | s.c.f. cycle, in particular not ANY RPA, MP2, etc. many-body perturbation terms.

  Final zero-broadening corrected energy:
  | For metallic systems only, a broadening of the occupation numbers at the Fermi
  | level can be extrapolated back to zero broadening by an electron-gas inspired
  | formula. For all systems that are not real metals, this value can be
  | meaningless and should be avoided.

------------------------------------------------------------------------------

------------------------------------------------------------
          Leaving FHI-aims.
          Date     :  20150727, Time     :  114042.446

          Computational steps:
          | Number of self-consistency cycles          :           16

          Detailed time accounting                     :  max(cpu_time)    wall_clock(cpu1)
          | Total time                                 :       77.943 s          77.981 s
          | Preparation time                           :        0.173 s           0.504 s
          | Grid partitioning                          :        0.192 s           0.193 s
          | Preloading free-atom quantities on grid    :        0.013 s           0.013 s
          | Free-atom superposition energy             :        0.118 s           0.118 s
          | Total time for integrations                :       34.567 s          34.569 s
          | Total time for solution of K.-S. equations :        2.350 s           2.348 s
          | Total time for density & force components  :       27.119 s          27.109 s
          | Total time for mixing                      :        0.299 s           0.295 s
          | Total time for Hartree multipole update    :        0.100 s           0.109 s
          | Total time for Hartree multipole sum       :       12.128 s          12.127 s
          | Total time for total energy evaluation     :        0.010 s           0.023 s
          | Total time for scaled ZORA corrections     :        0.000 s           0.000 s
          | Total time for TS (2009) vdW correction    :        0.103 s           0.108 s

          Have a nice day.
------------------------------------------------------------
