  MPI-parallelism will be employed.
------------------------------------------------------------
          Invoking FHI-aims ...
          Version 081213
          Compiled on 2013/08/29 at 17:41:06 on host generoso.

          When using FHI-aims, please cite the following reference:

          Volker Blum, Ralf Gehrke, Felix Hanke, Paula Havu,
          Ville Havu, Xinguo Ren, Karsten Reuter, and Matthias Scheffler,
          'Ab Initio Molecular Simulations with Numeric Atom-Centered Orbitals: FHI-aims',
          Computer Physics Communications 180, 2175-2196 (2009)

          For any questions about FHI-aims, please visit the aimsclub website
          with its forums and wiki. Contributions to both the forums and the
          wiki are warmly encouraged - they are for you, and everyone is welcome there.

------------------------------------------------------------

  Date     :  20150727, Time     :  115314.637
  Time zero on CPU 1             :   0.429920000000000E-01  s.
  Internal wall clock time zero  :           207229994.637  s.

  Using        8 parallel tasks.
  Task        0 on host gen60 reporting.
  Task        1 on host gen60 reporting.
  Task        2 on host gen60 reporting.
  Task        3 on host gen60 reporting.
  Task        4 on host gen60 reporting.
  Task        5 on host gen60 reporting.
  Task        6 on host gen60 reporting.
  Task        7 on host gen60 reporting.

  Performing system and environment tests:
  | Environment variable OMP_NUM_THREADS correctly set to 1.
  | Checking for scalapack...
  | No scalapack compiled in.

  Obtaining array dimensions for all initial allocations:
  
  -----------------------------------------------------------------------
  Parsing control.in (first pass over file, find array dimensions only).
  The contents of control.in will be repeated verbatim below
  unless switched off by setting 'verbatim_writeout .false.' .
  in the first line of control.in .
  -----------------------------------------------------------------------
  
  #########################################################################################
  #
  #  Volker Blum, FHI 2008 : Test run input file control.in
  #
  #########################################################################################
  #
  #  Physical model
  #
    xc                 rpbe
    spin               none
    relativistic       atomic_zora scalar
    charge             0.
   vdw_correction_hirshfeld
  #
  #  SCF convergence
  #
    occupation_type    gaussian 0.01
    mixer              pulay
      n_max_pulay        10
      charge_mix_param   0.1
    sc_accuracy_rho    5E-5
    sc_accuracy_eev    5E-3
    sc_accuracy_etot   5E-6
    sc_iter_limit      3000
  #
  #  Eigenvalue solver
  #
    KS_method          lapack
      empty_states       8
      basis_threshold    0.e-5
  #
  #  Efficiency
  #
  #   all previous settings are now default, except stratmann still
  #   undecided. Continue to handle stratmann with care, if at all.
  #
  #  partition_type stratmann
    partition_type rho_r2
  #  hartree_partition_type stratmann
  #
  #  Oprions for large clusters (100's of atoms: memory saving / better scaling)
  #
  # for periodic systems:
  #
    density_update_method orbital
    packed_matrix_format none
  #  k_grid 6 6 6
  #  output k_eigenvalue 1
  #  distributed_spline_storage .true.
  #
  #  Relaxation
  #
  #  relax_geometry   bfgs 5.e-3
    sc_accuracy_forces 5.E-4
    final_forces_cleaned .true.
  #
  #  Output options
  #
  #  output mulliken
    output Hirshfeld
  #  output dipole
  
  #harmonic_length_scale 0.001
  
  ################################################################################
  #
  #  FHI-aims code project
  #  VB, Fritz-Haber Institut, 2007
  #
  #  Suggested "safe" defaults for H atom (to be pasted into control.in file)
  #  Basis constructed for a non-relativistic H2 molecule using the
  #  PW-LDA functional.
  #
  ################################################################################
    species        H
  #     global species definitions
      nucleus             1
      cut_pot             4.0  2.0  1.0
      cut_free_atom       finite 8.0
      logarithmic         0.00010000 100.00  1.0123
      basis_dep_cutoff    1d-4  # 1d-4 is safe default - please check 5d-4 if you wish!
      radial_base         24 7.0
      radial_multiplier   2
      angular_grids       specified
        division   0.2783  110
        division   0.3822  194
        division   0.5626  302
  #      division   0.5922  434
  #      division   0.6227  590
  #      division   0.7206  770
        outer_grid  302
      l_hartree           4
  ################################################################################
  #
  #  Definition of "minimal" basis
  #
  ################################################################################
  #     valence basis states
      valence      1  s   1.
  #     ion occupancy
      ion_occ      1  s   0.5
  ################################################################################
  #
  #  Suggested additional basis functions. For production calculations,
  #  uncomment them one after another (the most important basis functions are
  #  listed first).
  #
  ################################################################################
  #  "First tier" - improvements: -1014.90 meV to -62.69 meV
       hydro 2 s 2.1
       hydro 2 p 3.5
  #  "Second tier" - improvements: -12.89 meV to -1.83 meV
       hydro 1 s 0.85
       hydro 2 p 3.7
       hydro 2 s 1.2
       hydro 3 d 7
  #  "Third tier" - improvements: -0.25 meV to -0.12 meV
  #     hydro 4 f 11.2
  #     hydro 3 p 4.8
  #     hydro 4 d 9
  #     hydro 3 s 3.2
  
  ################################################################################
  #
  #  FHI-aims code project
  #  VB, Fritz-Haber Institut, 2007
  #
  #  Suggested "safe" defaults for O atom (to be pasted into control.in file)
  #  All values have been tested for a non-relativistic, non-spinpolarized O2
  #  molecule using the PW-LDA functional. Validity for PBE is expected.
  #
  #  Constructed for dimers: 1.0 A, 1.208 A, 1.5 A, 2.0 A, 3.0 A
  #
  ################################################################################
    species        O
  #     global species definitions
      nucleus             8
      mass                15.9994
      l_hartree           4
      cut_pot             4.0  2.0  1.0
      cut_free_atom       finite 8.0
      basis_dep_cutoff    1d-4  # 1d-4 is safe default - please check 5d-4 if you wish!
      logarithmic         0.00010000 100.00  1.0123
      radial_base         36 7.0
      radial_multiplier   2
       angular_grids specified
        division   0.4087  110
        division   0.5181  194
        division   0.6184  302
  #      division   0.7315  434
  #      division   0.7934  590
  #      division   0.9656  770
  #      division   1.4041  974
  #      outer_grid 974
        outer_grid 302
  ################################################################################
  #
  #  Definition of "minimal" basis
  #
  ################################################################################
  #     valence basis states
      valence      2  s   2.
      valence      2  p   4.
  #     ion occupancy
      ion_occ      2  s   1.
      ion_occ      2  p   3.
  ################################################################################
  #
  #  Suggested additional basis functions. For production calculations,
  #  uncomment them one after another (the most important basis functions are
  #  listed first).
  #
  ################################################################################
  #  "First tier" - improvements: -699.05 meV to -159.38 meV
       hydro 2 p 1.8
       hydro 3 d 7.6
       hydro 3 s 6.4
  #  "Second tier" - improvements: -49.91 meV to -5.39 meV
       hydro 4 f 11.6
       hydro 3 p 6.2
       hydro 3 d 5.6
       hydro 5 g 17.6
       hydro 1 s 0.75
  #  "Third tier" - improvements: -2.83 meV to -0.50 meV
  #     ionic 2 p auto
  #     hydro 4 f 10.8
  #     hydro 4 d 4.7
  #     hydro 2 s 6.8
  #  "Fourth tier" - improvements: -0.40 meV to -0.12 meV
  #     hydro 3 p 5
  #     hydro 3 s 3.3
  #     hydro 5 g 15.6
  #     hydro 4 f 17.6
  #     hydro 4 d 14
  # Further basis functions - -0.08 meV and below
  #     hydro 3 s 2.1
  #     hydro 4 d 11.6
  #     hydro 3 p 16
  #     hydro 2 s 17.2
  
  
  -----------------------------------------------------------------------
  Completed first pass over input file control.in .
  -----------------------------------------------------------------------
  
  
  -----------------------------------------------------------------------
  Parsing geometry.in (first pass over file, find array dimensions only).
  The contents of geometry.in will be repeated verbatim below
  unless switched off by setting 'verbatim_writeout .false.' .
  in the first line of geometry.in .
  -----------------------------------------------------------------------
  
  atom      -4.053030000      0.065001000     -1.525160000  O
  atom      -4.566710000      0.974813000     -1.912820000  H
  atom      -3.067820000      0.330172000     -1.477310000  H
  atom      -4.581760000     -0.256435000      0.939478000  O
  atom      -4.349860000      0.471090000      1.504340000  H
  atom      -5.393870000     -0.726611000      1.228070000  H
  atom      -5.293160000      2.192130000     -2.328800000  O
  atom      -4.829300000      2.988660000     -1.973850000  H
  atom      -5.428570000      2.328640000     -3.235170000  H
  atom      -1.975360000      2.858040000      0.453140000  O
  atom      -1.223550000      3.375850000      0.786238000  H
  atom      -2.537520000      2.567960000      1.156120000  H
  atom      -4.066610000      4.258280000     -0.900064000  O
  atom      -3.224110000      3.876870000     -0.569443000  H
  atom      -3.737450000      5.116530000     -1.322720000  H
  
  -----------------------------------------------------------------------
  Completed first pass over input file geometry.in .
  -----------------------------------------------------------------------
  
 
  Basic array size parameters: 
  | Number of species                 :        2
  | Number of atoms                   :       15
  | Max. basis fn. angular momentum   :        4
  | Max. atomic/ionic basis occupied n:        2
  | Max. number of basis fn. types    :        2
  | Max. radial fns per species/type  :        8
  | Max. logarithmic grid size        :     1301
  | Max. radial integration grid size :       73
  | Max. angular integration grid size:      302
  | Max. angular grid division number :        8
  | Radial grid for Hartree potential :     1301
  | Number of spin channels           :        1

------------------------------------------------------------
          Reading file control.in.
------------------------------------------------------------
  XC: Using RPBE gradient-corrected functionals.
  Spin treatment: No spin polarisation.
  Scalar relativistic treatment of kinetic energy: on-site free-atom approximation to ZORA.
  Charge =   0.000000E+00: Neutral system requested explicitly.
  Using non-empirical van der Waals correction (Hirshfeld partitioning):
  Occupation type: Gaussian broadening, width =   0.100000E-01 eV.
  Using pulay charge density mixing.
  Pulay mixing - number of memorized iterations:   10
  Charge density mixing - mixing parameter:     0.1000
  Convergence accuracy of self-consistent charge density: 0.5000E-04
  Convergence accuracy of sum of eigenvalues: 0.5000E-02
  Convergence accuracy of total energy: 0.5000E-05
  Maximum number of s.-c. iterations  :  3000
  Kohn-Sham eigenvalues and eigenfunctions calculated by lapack diagonalisation (D&C).
  Number of empty states per atom:        8
  Threshold for basis singularities: 0.0000E+00
  Partition function in integrals calculations: rho / r^2
 Using packed matrix format           0
  Convergence accuracy of forces: 0.5000E-03
  Cleaning forces before final output.
  Hirshfeld charge analysis will be performed.
 
  Reading configuration options for species H                   .
  | Found nuclear charge :   1.0000
  | Found cutoff potl. onset [A], width [A], scale factor :    4.00000    2.00000    1.00000
  | Found cutoff specification for free atom: Cutoff potential begins at    8.00000 A.
  | Found logarithmic grid data [bohr] : 0.1000E-03 0.1000E+03 0.1012E+01
  | Threshold for basis-dependent cutoff potential is   0.100000E-03
  | Found data for basic radial integration grid :    24 points, outermost radius =    7.000 A
  | Found multiplier for basic radial grid :   2
  | Found angular grid specification: user-specified.
  | Specified grid contains     4 separate shells.
  | Check grid settings after all constraints further below.
  | Found l_max for Hartree potential  :   4
  | Found free-atom valence shell :  1 s   1.000
  | No ionic wave fns used. Skipping ion_occ.
  | Found hydrogenic basis function :  2 s   2.100
  | Found hydrogenic basis function :  2 p   3.500
  | Found hydrogenic basis function :  1 s   0.850
  | Found hydrogenic basis function :  2 p   3.700
  | Found hydrogenic basis function :  2 s   1.200
  | Found hydrogenic basis function :  3 d   7.000
  Species H                   : Missing cutoff potential type.
  Defaulting to exp(1/x)/(1-x)^2 type cutoff potential.
  Species H : On-site basis accuracy parameter (for Gram-Schmidt orthonormalisation) not specified.
  Using default value basis_acc =  0.1000000E-03.
  Species H                   : Using default innermost maximum threshold i_radial=  2 for radial functions.
  Species H                   : Basic radial grid will be enhanced according to radial_multiplier =   2, to contain    49 grid points.
 
  Reading configuration options for species O                   .
  | Found nuclear charge :   8.0000
  | Found atomic mass :    15.9994000000000      amu
  | Found l_max for Hartree potential  :   4
  | Found cutoff potl. onset [A], width [A], scale factor :    4.00000    2.00000    1.00000
  | Found cutoff specification for free atom: Cutoff potential begins at    8.00000 A.
  | Threshold for basis-dependent cutoff potential is   0.100000E-03
  | Found logarithmic grid data [bohr] : 0.1000E-03 0.1000E+03 0.1012E+01
  | Found data for basic radial integration grid :    36 points, outermost radius =    7.000 A
  | Found multiplier for basic radial grid :   2
  | Found angular grid specification: user-specified.
  | Specified grid contains     4 separate shells.
  | Check grid settings after all constraints further below.
  | Found free-atom valence shell :  2 s   2.000
  | Found free-atom valence shell :  2 p   4.000
  | No ionic wave fns used. Skipping ion_occ.
  | No ionic wave fns used. Skipping ion_occ.
  | Found hydrogenic basis function :  2 p   1.800
  | Found hydrogenic basis function :  3 d   7.600
  | Found hydrogenic basis function :  3 s   6.400
  | Found hydrogenic basis function :  4 f  11.600
  | Found hydrogenic basis function :  3 p   6.200
  | Found hydrogenic basis function :  3 d   5.600
  | Found hydrogenic basis function :  5 g  17.600
  | Found hydrogenic basis function :  1 s   0.750
  Species O                   : Missing cutoff potential type.
  Defaulting to exp(1/x)/(1-x)^2 type cutoff potential.
  Species O : On-site basis accuracy parameter (for Gram-Schmidt orthonormalisation) not specified.
  Using default value basis_acc =  0.1000000E-03.
  Species O                   : Using default innermost maximum threshold i_radial=  2 for radial functions.
  Species O                   : Basic radial grid will be enhanced according to radial_multiplier =   2, to contain    73 grid points.
 
  Finished reading input file 'control.in'. Consistency checks are next.
 
  Target number of points in a grid batch is not set. Defaulting to  100
  Method for grid partitioning is not set. Defaulting to parallel hash+maxmin partitioning.
  Batch size limit is not set. Defaulting to    200
  By default, will store active basis functions for each batch.
  If in need of memory, prune_basis_once .false. can be used to disable this option.
  communication_type for Hartree potential was not specified.
  Defaulting to calc_hartree .
  Pulay mixer: Number of initial linear mixing iterations not set.
  Defaulting to    0 iterations.
  Work space size for distributed Hartree potential not set.
  Defaulting to   0.200000E+03 MB.
  Algorithm-dependent basis array size parameters:
  | n_max_pulay                         :       10
  Geometry relaxation not requested: no relaxation will be performed.
  Handling of forces: Unphysical translation and rotation will be removed from forces.
  No accuracy limit for integral partition fn. given. Defaulting to 0.1000E-14.
  No threshold value for u(r) in integrations given. Defaulting to 0.1000E-05.
  No accuracy for occupation numbers given. Defaulting to 0.1000E-07.
  No threshold value for occupation numbers given. Defaulting to 0.0000E+00.
  No accuracy for fermi level given. Defaulting to 0.1000E-19.
  Maximum # of iterations to find E_F not set. Defaulting to  200.
  Will not use alltoall communication since running on < 1024 CPUs.
  Partitioning for Hartree potential was not defined. Using partition_type for integrals.
  | Reporting present value of keyword multip_moments_threshold  :       0.10000000E-09
  | This value may affect high angular momentum components of the Hartree potential in periodic systems.
  No q(lm)/r^(l+1) cutoff set for long-range Hartree potential.
  | Using default value of  0.100000E-09 .
  | Verify using the multipole_threshold keyword.
  Defaulting to new monopole extrapolation.
  Density update method: Loop over occupied states selected for charge density update.
------------------------------------------------------------


------------------------------------------------------------
          Reading geometry description geometry.in.
------------------------------------------------------------
  Input structure read successfully.
  The structure contains       15 atoms,  and a total of         50.000 electrons.

  Input geometry:
  | No unit cell requested.
  | Atomic structure:
  |       Atom                x [A]            y [A]            z [A]
  |    1: Species O             -4.053030         0.065001        -1.525160
  |    2: Species H             -4.566710         0.974813        -1.912820
  |    3: Species H             -3.067820         0.330172        -1.477310
  |    4: Species O             -4.581760        -0.256435         0.939478
  |    5: Species H             -4.349860         0.471090         1.504340
  |    6: Species H             -5.393870        -0.726611         1.228070
  |    7: Species O             -5.293160         2.192130        -2.328800
  |    8: Species H             -4.829300         2.988660        -1.973850
  |    9: Species H             -5.428570         2.328640        -3.235170
  |   10: Species O             -1.975360         2.858040         0.453140
  |   11: Species H             -1.223550         3.375850         0.786238
  |   12: Species H             -2.537520         2.567960         1.156120
  |   13: Species O             -4.066610         4.258280        -0.900064
  |   14: Species H             -3.224110         3.876870        -0.569443
  |   15: Species H             -3.737450         5.116530        -1.322720
  |

  | The smallest distance between any two atoms is         0.92654057 AA.
  |
  | The first atom of this pair is atom number                      7 .
  | The second atom of this pair is atom number                     9 .

  Structure-dependent array size parameters: 
  | Maximum number of distinct radial functions  :       18
  | Maximum number of basis functions            :      345
  | Number of Kohn-Sham states (occupied + empty):       85
------------------------------------------------------------

------------------------------------------------------------
          Preparing all fixed parts of the calculation.
------------------------------------------------------------
  Determining machine precision:
    2.225073858507201E-308
  Setting up grids for atomic and cluster calculations.

  Creating wave function, potential, and density for free atoms.

  Species: H

  List of occupied orbitals and eigenvalues:
    n    l              occ      energy [Ha]    energy [eV]
    1    0           1.0000        -0.241408        -6.5691


  Species: O

  List of occupied orbitals and eigenvalues:
    n    l              occ      energy [Ha]    energy [eV]
    1    0           2.0000       -18.944147      -515.4965
    2    0           2.0000        -0.883529       -24.0421
    2    1           4.0000        -0.330176        -8.9845

  Creating fixed part of basis set: Ionic, confined, hydrogenic.
 
  H                    hydrogenic:
 
  List of hydrogenic basis orbitals: 
    n    l      effective z      eigenvalue [eV]  inner max. [A]     outer max. [A]     outer radius [A]   
    2    0         2.100000       -14.9965           0.193241           1.317192           5.372934
    2    1         3.500000       -41.6672           0.602363           0.602363           4.056010
    1    0         0.850000        -9.8292           0.624864           0.624864           5.372934
    2    1         3.700000       -46.5653           0.573616           0.573616           3.909951
    2    0         1.200000        -4.5995           0.334977           2.228160           5.505921
    3    2         7.000000       -74.0753           0.680692           0.680692           3.769152
 
 
  O                    hydrogenic:
 
  List of hydrogenic basis orbitals: 
    n    l      effective z      eigenvalue [eV]  inner max. [A]     outer max. [A]     outer radius [A]   
    2    1         1.800000       -11.0118           1.178546           1.178546           5.432516
    3    2         7.600000       -87.3182           0.624117           0.624117           3.541422
    3    0         6.400000       -61.9209           0.061166           1.081887           4.306510
    4    3        11.600000      -114.4238           0.731621           0.731621           3.584982
    3    1         6.200000       -58.1113           0.255677           1.030255           4.306510
    3    2         5.600000       -47.4081           0.847222           0.847222           4.413102
    5    4        17.600000      -168.5799           0.749730           0.749730           3.372413
    1    0         0.750000        -7.6499           0.705275           0.705275           5.366508
 

  Adding cutoff potential to free-atom effective potential.
  Creating atomic-like basis functions for current effective potential.

  Species H                   :

  List of atomic basis orbitals and eigenvalues:
    n    l      energy [Ha]    energy [eV]    outer radius [A]
    1    0        -0.241374        -6.5681       5.372934


  Species O                   :

  List of atomic basis orbitals and eigenvalues:
    n    l      energy [Ha]    energy [eV]    outer radius [A]
    1    0       -18.944147      -515.4965       1.415745
    2    0        -0.883529       -24.0421       5.048305
    2    1        -0.330173        -8.9845       5.301302

  Assembling full basis from fixed parts.
  | Species H :   atomic orbital   1 s accepted.
  | Species H :    hydro orbital   2 s accepted.
  | Species H :    hydro orbital   1 s accepted.
  | Species H :    hydro orbital   2 s accepted.
  | Species H :    hydro orbital   2 p accepted.
  | Species H :    hydro orbital   2 p accepted.
  | Species H :    hydro orbital   3 d accepted.
  | Species O :   atomic orbital   1 s accepted.
  | Species O :    hydro orbital   3 s accepted.
  | Species O :   atomic orbital   2 s accepted.
  | Species O :    hydro orbital   1 s accepted.
  | Species O :    hydro orbital   3 p accepted.
  | Species O :   atomic orbital   2 p accepted.
  | Species O :    hydro orbital   2 p accepted.
  | Species O :    hydro orbital   3 d accepted.
  | Species O :    hydro orbital   3 d accepted.
  | Species O :    hydro orbital   4 f accepted.
  | Species O :    hydro orbital   5 g accepted.
 
  Basis size parameters after reduction:
  | Total number of radial functions:       18
  | Total number of basis functions :      345
 
  Testing on-site integration grid accuracy.
  |  Species  Function  <phi|h_atom|phi> (log., in eV)  <phi|h_atom|phi> (rad., in eV)
           1        1                 -6.5683835025                 -6.5684759159
           1        2                 13.3711789951                 13.3708738703
           1        3                 23.6590910787                 23.6532055418
           1        4                 16.2963827186                 16.1870710655 ***
           1        5                 28.7627214838                 28.7627215090
           1        6                 59.5965249172                 59.5965950857
           1        7                 60.2220506392                 60.2220503827
           2        8               -515.4964576505               -515.4964530710
           2        9                 15.3030791347                 15.3030722972
           2       10                -21.7296094581                -21.7296135470
           2       11                 14.2969371730                 14.2969701621
           2       12                 21.0679693190                 21.0679697493
           2       13                 -2.3833606469                 -2.3833613176
           2       14                 13.7067136422                 13.7066766629
           2       15                 45.8013116808                 45.8013116965
           2       16                 52.2309815402                 52.2309831494
           2       17                 85.4120732416                 85.4120732763
           2       18                142.1019167745                142.1019167817
 * Note: Onsite integrals marked "***" above are less accurate than
 * onsite_accuracy_threshold =    0.03000 eV. Usually, this is harmless.
 * When in doubt, tighten the "radial" and/or "radial_multiplier" flags to check.

  Preparing densities etc. for the partition functions (integrals / Hartree potential).

  Preparations completed.
  max(cpu_time)          :      0.172 s.
  Wall clock time (cpu1) :      0.583 s.
------------------------------------------------------------

------------------------------------------------------------
          Begin self-consistency loop: Initialization.

          Date     :  20150727, Time     :  115315.247
------------------------------------------------------------

  Initializing index lists of integration centers etc. from given atomic structure:
  | Number of centers in hartree potential         :        15
  | Number of centers in hartree multipole         :        15
  | Number of centers in electron density summation:        15
  | Number of centers in basis integrals           :        15
  | Number of centers in integrals                 :        15
  Partitioning the integration grid into batches with parallel hashing+maxmin method.
  | Number of batches:     2100
  | Maximal batch size:     190
  | Minimal batch size:      60
  | Average batch size:      93.671
  | Standard deviation of batch sizes:      32.861

  Integration load balanced across     8 MPI tasks.
  Work distribution over tasks is as follows:
  Task     0 has      24654 integration points.
  Task     1 has      24621 integration points.
  Task     2 has      24585 integration points.
  Task     3 has      24563 integration points.
  Task     4 has      24621 integration points.
  Task     5 has      24517 integration points.
  Task     6 has      24587 integration points.
  Task     7 has      24562 integration points.
  Initializing partition tables, free-atom densities, potentials, etc. across the integration grid (initialize_grid_storage).
  | Net number of integration points:   196710
  | of which are non-zero points    :   196161
  Obtaining max. number of non-zero basis functions in each batch (get_n_compute_maxes).
  | Maximal number of non-zero basis functions:      342 in task     0
  | Maximal number of non-zero basis functions:      342 in task     1
  | Maximal number of non-zero basis functions:      342 in task     2
  | Maximal number of non-zero basis functions:      342 in task     3
  | Maximal number of non-zero basis functions:      342 in task     4
  | Maximal number of non-zero basis functions:      342 in task     5
  | Maximal number of non-zero basis functions:      342 in task     6
  | Maximal number of non-zero basis functions:      342 in task     7
  Integrating Hamiltonian matrix: batch-based integration.
  Time summed over all CPUs for integration: real work        7.292 s, elapsed        7.415 s
  Integrating overlap matrix.
  Time summed over all CPUs for integration: real work        3.931 s, elapsed        4.016 s

  Updating Kohn-Sham eigenvalues, eigenvectors, occupation numbers, and Fermi level.
  Solving generalized eigenproblem
  Updating Kohn-Sham eigenvalues and eigenfunctions.
  Transforming overlap matrix and checking for singularities.
  Overlap matrix is nonsingular:
  | Lowest eigenvalue:  0.301915E-03
  Solving real generalised eigenvalue problem by standard LAPACK (fast)
  Determining occupation numbers for Kohn-Sham eigenstates.
  | Chemical potential (Fermi level) in eV                 : -.41910254E+01
  | Error in electron count due to remaining E_F inaccuracy: 0.00000000E+00
  | Maximum occupation number of highest empty state:  0.00E+00

  Writing Kohn-Sham eigenvalues.

  State    Occupation    Eigenvalue [Ha]    Eigenvalue [eV]
      1       2.00000         -19.064897         -518.78223
      2       2.00000         -19.056653         -518.55791
      3       2.00000         -19.051949         -518.42992
      4       2.00000         -19.042959         -518.18527
      5       2.00000         -19.019671         -517.55159
      6       2.00000          -1.122126          -30.53459
      7       2.00000          -1.107385          -30.13348
      8       2.00000          -1.098543          -29.89288
      9       2.00000          -1.086439          -29.56350
     10       2.00000          -1.043477          -28.39445
     11       2.00000          -0.653304          -17.77731
     12       2.00000          -0.649337          -17.66936
     13       2.00000          -0.644397          -17.53494
     14       2.00000          -0.609066          -16.57354
     15       2.00000          -0.597220          -16.25118
     16       2.00000          -0.528712          -14.38698
     17       2.00000          -0.514282          -13.99432
     18       2.00000          -0.504053          -13.71598
     19       2.00000          -0.500801          -13.62749
     20       2.00000          -0.479513          -13.04821
     21       2.00000          -0.443569          -12.07014
     22       2.00000          -0.440931          -11.99835
     23       2.00000          -0.438479          -11.93161
     24       2.00000          -0.433127          -11.78599
     25       2.00000          -0.402639          -10.95635
     26       0.00000          -0.095553           -2.60014
     27       0.00000          -0.065900           -1.79323
     28       0.00000          -0.057280           -1.55866
     29       0.00000          -0.043954           -1.19606
     30       0.00000          -0.027465           -0.74735
     31       0.00000          -0.013161           -0.35813
     32       0.00000           0.027844            0.75766
     33       0.00000           0.042908            1.16758
     34       0.00000           0.046355            1.26139
     35       0.00000           0.052099            1.41769
     36       0.00000           0.074527            2.02798
     37       0.00000           0.078517            2.13655
     38       0.00000           0.093324            2.53948
     39       0.00000           0.099232            2.70023
     40       0.00000           0.100822            2.74350
     41       0.00000           0.105222            2.86324
     42       0.00000           0.108064            2.94056
     43       0.00000           0.116176            3.16132
     44       0.00000           0.121076            3.29464
     45       0.00000           0.130465            3.55013
     46       0.00000           0.134691            3.66514
     47       0.00000           0.145128            3.94914
     48       0.00000           0.163695            4.45437
     49       0.00000           0.165265            4.49709
     50       0.00000           0.176090            4.79164
     51       0.00000           0.202107            5.49961
     52       0.00000           0.220575            6.00215
     53       0.00000           0.240888            6.55489
     54       0.00000           0.251903            6.85463
     55       0.00000           0.262507            7.14317
     56       0.00000           0.264920            7.20885
     57       0.00000           0.279343            7.60130
     58       0.00000           0.289566            7.87949
     59       0.00000           0.318746            8.67353
     60       0.00000           0.327814            8.92028
     61       0.00000           0.331406            9.01802
     62       0.00000           0.354806            9.65476
     63       0.00000           0.366618            9.97618
     64       0.00000           0.381058           10.36912
     65       0.00000           0.392167           10.67142
     66       0.00000           0.403108           10.96914
     67       0.00000           0.412053           11.21253
     68       0.00000           0.424017           11.53808
     69       0.00000           0.432808           11.77731
     70       0.00000           0.442409           12.03857
     71       0.00000           0.451761           12.29304
     72       0.00000           0.452954           12.32551
     73       0.00000           0.468884           12.75897
     74       0.00000           0.520800           14.17170
     75       0.00000           0.523789           14.25302
     76       0.00000           0.547551           14.89961
     77       0.00000           0.562166           15.29732
     78       0.00000           0.565070           15.37634
     79       0.00000           0.576536           15.68836
     80       0.00000           0.598833           16.29507
     81       0.00000           0.615869           16.75864
     82       0.00000           0.661708           18.00599
     83       0.00000           0.688996           18.74853
     84       0.00000           0.704412           19.16804
     85       0.00000           0.721963           19.64562

  Highest occupied state (VBM) at    -10.95635277 eV
  | Occupation number:      2.00000000

  Lowest unoccupied state (CBM) at    -2.60013776 eV
  | Occupation number:      0.00000000

  Overall HOMO-LUMO gap:      8.35621501 eV.
  Calculating total energy contributions from superposition of free atom densities.

  Total energy components:
  | Sum of eigenvalues            :        -217.06705706 Ha       -5906.69515195 eV
  | XC energy correction          :         -45.57797804 Ha       -1240.23988513 eV
  | XC potential correction       :          58.23901432 Ha        1584.76421170 eV
  | Free-atom electrostatic energy:        -178.68646504 Ha       -4862.30610505 eV
  | Hartree energy correction     :           0.00000000 Ha           0.00000000 eV
  | van der Waals energy corr.    :           0.00000000 Ha           0.00000000 eV
  | Entropy correction            :           0.00000000 Ha           0.00000000 eV
  | ---------------------------
  | Total energy                  :        -383.09248581 Ha      -10424.47693043 eV
  | Total energy, T -> 0          :        -383.09248581 Ha      -10424.47693043 eV  <-- do not rely on this value for anything but (periodic) metals
  | Electronic free energy        :        -383.09248581 Ha      -10424.47693043 eV

  Derived energy quantities:
  | Kinetic energy                :         379.15282818 Ha       10317.27339200 eV
  | Electrostatic energy          :        -716.66733596 Ha      -19501.51043730 eV
  | Energy correction for multipole
  | error in Hartree potential    :           0.00000000 Ha           0.00000000 eV
  | Sum of eigenvalues per atom                           :        -393.77967680 eV
  | Total energy (T->0) per atom                          :        -694.96512870 eV  <-- do not rely on this value for anything but (periodic) metals
  | Electronic free energy per atom                       :        -694.96512870 eV
  Initialize hartree_potential_storage
  Max. number of atoms included in rho_multipole:           15

  End scf initialization - timings             :  max(cpu_time)    wall_clock(cpu1)
  | Time for scf. initialization               :        1.986 s           1.986 s
  | Boundary condition initialization          :        0.000 s           0.000 s
  | Integration                                :        1.433 s           1.433 s
  | Solution of K.-S. eqns.                    :        0.197 s           0.197 s
  | Grid partitioning                          :        0.142 s           0.142 s
  | Preloading free-atom quantities on grid    :        0.014 s           0.014 s
  | Free-atom superposition energy             :        0.066 s           0.065 s
  | Total energy evaluation                    :        0.000 s           0.001 s
------------------------------------------------------------

------------------------------------------------------------
          Begin self-consistency iteration #    1

  Date     :  20150727, Time     :  115317.233
------------------------------------------------------------
  Evaluating new KS density.
  Integration grid: deviation in total charge (<rho> - N_e) =   1.421085E-14
  Pulay mixing of updated and previous charge densities.

  Evaluating partitioned Hartree potential by multipole expansion.
  | Analytical far-field extrapolation by fixed multipoles:
  | Hartree multipole sum: apparent total charge =  -0.164265E-05
  Summing up the Hartree potential.
  Time summed over all CPUs for potential: real work        2.567 s, elapsed        2.578 s
  | RMS charge density error from multipole expansion :   0.166768E-02

  Integrating Hamiltonian matrix: batch-based integration.
  Time summed over all CPUs for integration: real work        7.288 s, elapsed        7.425 s

  Updating Kohn-Sham eigenvalues, eigenvectors, occupation numbers, and Fermi level.
  Solving generalized eigenproblem
  Updating Kohn-Sham eigenvalues and eigenfunctions.
  Solving real generalised eigenvalue problem by standard LAPACK (fast)
  Determining occupation numbers for Kohn-Sham eigenstates.
  | Chemical potential (Fermi level) in eV                 : -.36859864E+01
  | Error in electron count due to remaining E_F inaccuracy: 0.00000000E+00
  | Maximum occupation number of highest empty state:  0.00E+00

  Writing Kohn-Sham eigenvalues.

  State    Occupation    Eigenvalue [Ha]    Eigenvalue [eV]
      1       2.00000         -18.991581         -516.78721
      2       2.00000         -18.984471         -516.59375
      3       2.00000         -18.972440         -516.26636
      4       2.00000         -18.965324         -516.07273
      5       2.00000         -18.927984         -515.05665
      6       2.00000          -1.085546          -29.53920
      7       2.00000          -1.073916          -29.22274
      8       2.00000          -1.053609          -28.67016
      9       2.00000          -1.052210          -28.63208
     10       2.00000          -0.992177          -26.99852
     11       2.00000          -0.621363          -16.90816
     12       2.00000          -0.620673          -16.88937
     13       2.00000          -0.605647          -16.48049
     14       2.00000          -0.580017          -15.78306
     15       2.00000          -0.557751          -15.17717
     16       2.00000          -0.489107          -13.30929
     17       2.00000          -0.477600          -12.99617
     18       2.00000          -0.466535          -12.69507
     19       2.00000          -0.457444          -12.44768
     20       2.00000          -0.436370          -11.87422
     21       2.00000          -0.408191          -11.10745
     22       2.00000          -0.397278          -10.81048
     23       2.00000          -0.395064          -10.75024
     24       2.00000          -0.390847          -10.63548
     25       2.00000          -0.349280           -9.50438
     26       0.00000          -0.087014           -2.36777
     27       0.00000          -0.057713           -1.57046
     28       0.00000          -0.048423           -1.31766
     29       0.00000          -0.034012           -0.92551
     30       0.00000          -0.017879           -0.48652
     31       0.00000          -0.005908           -0.16076
     32       0.00000           0.038212            1.03981
     33       0.00000           0.051126            1.39120
     34       0.00000           0.056088            1.52623
     35       0.00000           0.060258            1.63970
     36       0.00000           0.085028            2.31373
     37       0.00000           0.091388            2.48678
     38       0.00000           0.101883            2.77238
     39       0.00000           0.109575            2.98169
     40       0.00000           0.110644            3.01078
     41       0.00000           0.114920            3.12712
     42       0.00000           0.124881            3.39819
     43       0.00000           0.125894            3.42574
     44       0.00000           0.133702            3.63823
     45       0.00000           0.140861            3.83301
     46       0.00000           0.146244            3.97951
     47       0.00000           0.155359            4.22752
     48       0.00000           0.173087            4.70992
     49       0.00000           0.176496            4.80270
     50       0.00000           0.186193            5.06658
     51       0.00000           0.212812            5.79091
     52       0.00000           0.231001            6.28585
     53       0.00000           0.253109            6.88746
     54       0.00000           0.260526            7.08926
     55       0.00000           0.273395            7.43945
     56       0.00000           0.274851            7.47908
     57       0.00000           0.289273            7.87151
     58       0.00000           0.301468            8.20337
     59       0.00000           0.326109            8.87387
     60       0.00000           0.338868            9.22108
     61       0.00000           0.342532            9.32077
     62       0.00000           0.362739            9.87064
     63       0.00000           0.377634           10.27594
     64       0.00000           0.390226           10.61860
     65       0.00000           0.402731           10.95888
     66       0.00000           0.413402           11.24923
     67       0.00000           0.423539           11.52507
     68       0.00000           0.435438           11.84886
     69       0.00000           0.444357           12.09156
     70       0.00000           0.450440           12.25710
     71       0.00000           0.460991           12.54420
     72       0.00000           0.465333           12.66236
     73       0.00000           0.480846           13.08449
     74       0.00000           0.533251           14.51049
     75       0.00000           0.536512           14.59924
     76       0.00000           0.560124           15.24174
     77       0.00000           0.577866           15.72453
     78       0.00000           0.579051           15.75678
     79       0.00000           0.588594           16.01646
     80       0.00000           0.611267           16.63342
     81       0.00000           0.628367           17.09874
     82       0.00000           0.674876           18.36430
     83       0.00000           0.702254           19.10930
     84       0.00000           0.718757           19.55838
     85       0.00000           0.737987           20.08165

  Highest occupied state (VBM) at     -9.50437942 eV
  | Occupation number:      2.00000000

  Lowest unoccupied state (CBM) at    -2.36776734 eV
  | Occupation number:      0.00000000

  Overall HOMO-LUMO gap:      7.13661208 eV.

  Total energy components:
  | Sum of eigenvalues            :        -214.70485115 Ha       -5842.41625861 eV
  | XC energy correction          :         -45.82480323 Ha       -1246.95634037 eV
  | XC potential correction       :          58.56188411 Ha        1593.54994557 eV
  | Free-atom electrostatic energy:        -178.68646504 Ha       -4862.30610505 eV
  | Hartree energy correction     :          -2.28728980 Ha         -62.24032223 eV
  | van der Waals energy corr.    :           0.00000000 Ha           0.00000000 eV
  | Entropy correction            :           0.00000000 Ha           0.00000000 eV
  | ---------------------------
  | Total energy                  :        -382.94152511 Ha      -10420.36908068 eV
  | Total energy, T -> 0          :        -382.94152511 Ha      -10420.36908068 eV  <-- do not rely on this value for anything but (periodic) metals
  | Electronic free energy        :        -382.94152511 Ha      -10420.36908068 eV

  Derived energy quantities:
  | Kinetic energy                :         380.62790485 Ha       10357.41227024 eV
  | Electrostatic energy          :        -717.74462672 Ha      -19530.82501055 eV
  | Energy correction for multipole
  | error in Hartree potential    :           0.00003175 Ha           0.00086384 eV
  | Sum of eigenvalues per atom                           :        -389.49441724 eV
  | Total energy (T->0) per atom                          :        -694.69127205 eV  <-- do not rely on this value for anything but (periodic) metals
  | Electronic free energy per atom                       :        -694.69127205 eV

  Self-consistency convergence accuracy:
  | Change of charge density      : 0.6747E+00
  | Change of sum of eigenvalues  : 0.6428E+02 eV
  | Change of total energy        : 0.4108E+01 eV

  End self-consistency iteration #     1       :  max(cpu_time)    wall_clock(cpu1)
  | Time for this iteration                    :        1.955 s           1.955 s
  | Charge density update                      :        0.639 s           0.638 s
  | Density mixing                             :        0.003 s           0.004 s
  | Hartree multipole update                   :        0.005 s           0.005 s
  | Hartree multipole summation                :        0.323 s           0.323 s
  | Integration                                :        0.930 s           0.929 s
  | Solution of K.-S. eqns.                    :        0.054 s           0.054 s
  | Total energy evaluation                    :        0.000 s           0.001 s
------------------------------------------------------------

------------------------------------------------------------
          Begin self-consistency iteration #    2

  Date     :  20150727, Time     :  115319.188
------------------------------------------------------------
  Evaluating new KS density.
  Integration grid: deviation in total charge (<rho> - N_e) =   1.421085E-14
  Pulay mixing of updated and previous charge densities.

  Evaluating partitioned Hartree potential by multipole expansion.
  | Analytical far-field extrapolation by fixed multipoles:
  | Hartree multipole sum: apparent total charge =  -0.441089E-05
  Summing up the Hartree potential.
  Time summed over all CPUs for potential: real work        2.567 s, elapsed        2.578 s
  | RMS charge density error from multipole expansion :   0.671498E-02

  Integrating Hamiltonian matrix: batch-based integration.
  Time summed over all CPUs for integration: real work        7.261 s, elapsed        7.377 s

  Updating Kohn-Sham eigenvalues, eigenvectors, occupation numbers, and Fermi level.
  Solving generalized eigenproblem
  Updating Kohn-Sham eigenvalues and eigenfunctions.
  Solving real generalised eigenvalue problem by standard LAPACK (fast)
  Determining occupation numbers for Kohn-Sham eigenstates.
  | Chemical potential (Fermi level) in eV                 : -.23777402E+01
  | Error in electron count due to remaining E_F inaccuracy: 0.00000000E+00
  | Maximum occupation number of highest empty state:  0.00E+00

  Highest occupied state (VBM) at     -5.99455191 eV
  | Occupation number:      2.00000000

  Lowest unoccupied state (CBM) at    -1.88741489 eV
  | Occupation number:      0.00000000

  Overall HOMO-LUMO gap:      4.10713702 eV.

  Total energy components:
  | Sum of eigenvalues            :        -209.05037517 Ha       -5688.55013874 eV
  | XC energy correction          :         -46.44090666 Ha       -1263.72136765 eV
  | XC potential correction       :          59.36714450 Ha        1615.46219563 eV
  | Free-atom electrostatic energy:        -178.68646504 Ha       -4862.30610505 eV
  | Hartree energy correction     :          -7.95378144 Ha        -216.43340490 eV
  | van der Waals energy corr.    :           0.00000000 Ha           0.00000000 eV
  | Entropy correction            :           0.00000000 Ha           0.00000000 eV
  | ---------------------------
  | Total energy                  :        -382.76438381 Ha      -10415.54882070 eV
  | Total energy, T -> 0          :        -382.76438381 Ha      -10415.54882070 eV  <-- do not rely on this value for anything but (periodic) metals
  | Electronic free energy        :        -382.76438381 Ha      -10415.54882070 eV

  Derived energy quantities:
  | Kinetic energy                :         383.63023773 Ha       10439.10990474 eV
  | Electrostatic energy          :        -719.95371488 Ha      -19590.93735780 eV
  | Energy correction for multipole
  | error in Hartree potential    :          -0.00067122 Ha          -0.01826481 eV
  | Sum of eigenvalues per atom                           :        -379.23667592 eV
  | Total energy (T->0) per atom                          :        -694.36992138 eV  <-- do not rely on this value for anything but (periodic) metals
  | Electronic free energy per atom                       :        -694.36992138 eV

  Self-consistency convergence accuracy:
  | Change of charge density      : 0.5108E+00
  | Change of sum of eigenvalues  : 0.1539E+03 eV
  | Change of total energy        : 0.4820E+01 eV

  End self-consistency iteration #     2       :  max(cpu_time)    wall_clock(cpu1)
  | Time for this iteration                    :        1.946 s           1.945 s
  | Charge density update                      :        0.634 s           0.634 s
  | Density mixing                             :        0.006 s           0.005 s
  | Hartree multipole update                   :        0.005 s           0.005 s
  | Hartree multipole summation                :        0.323 s           0.323 s
  | Integration                                :        0.924 s           0.924 s
  | Solution of K.-S. eqns.                    :        0.054 s           0.054 s
  | Total energy evaluation                    :        0.000 s           0.000 s
------------------------------------------------------------

------------------------------------------------------------
          Begin self-consistency iteration #    3

  Date     :  20150727, Time     :  115321.133
------------------------------------------------------------
  Evaluating new KS density.
  Integration grid: deviation in total charge (<rho> - N_e) =   1.421085E-14
  Pulay mixing of updated and previous charge densities.

  Evaluating partitioned Hartree potential by multipole expansion.
  | Analytical far-field extrapolation by fixed multipoles:
  | Hartree multipole sum: apparent total charge =  -0.314571E-05
  Summing up the Hartree potential.
  Time summed over all CPUs for potential: real work        2.567 s, elapsed        2.578 s
  | RMS charge density error from multipole expansion :   0.134957E-01

  Integrating Hamiltonian matrix: batch-based integration.
  Time summed over all CPUs for integration: real work        7.259 s, elapsed        7.367 s

  Updating Kohn-Sham eigenvalues, eigenvectors, occupation numbers, and Fermi level.
  Solving generalized eigenproblem
  Updating Kohn-Sham eigenvalues and eigenfunctions.
  Solving real generalised eigenvalue problem by standard LAPACK (fast)
  Determining occupation numbers for Kohn-Sham eigenstates.
  | Chemical potential (Fermi level) in eV                 : -.20565400E+01
  | Error in electron count due to remaining E_F inaccuracy: 0.00000000E+00
  | Maximum occupation number of highest empty state:  0.00E+00

  Highest occupied state (VBM) at     -5.78219173 eV
  | Occupation number:      2.00000000

  Lowest unoccupied state (CBM) at    -1.83910430 eV
  | Occupation number:      0.00000000

  Overall HOMO-LUMO gap:      3.94308743 eV.

  Total energy components:
  | Sum of eigenvalues            :        -209.21416845 Ha       -5693.00718041 eV
  | XC energy correction          :         -46.41529193 Ha       -1263.02435543 eV
  | XC potential correction       :          59.32874271 Ha        1614.41722971 eV
  | Free-atom electrostatic energy:        -178.68646504 Ha       -4862.30610505 eV
  | Hartree energy correction     :          -7.77171346 Ha        -211.47908308 eV
  | van der Waals energy corr.    :           0.00000000 Ha           0.00000000 eV
  | Entropy correction            :           0.00000000 Ha           0.00000000 eV
  | ---------------------------
  | Total energy                  :        -382.75889616 Ha      -10415.39949425 eV
  | Total energy, T -> 0          :        -382.75889616 Ha      -10415.39949425 eV  <-- do not rely on this value for anything but (periodic) metals
  | Electronic free energy        :        -382.75889616 Ha      -10415.39949425 eV

  Derived energy quantities:
  | Kinetic energy                :         381.55529176 Ha       10382.64775200 eV
  | Electrostatic energy          :        -717.89889599 Ha      -19535.02289082 eV
  | Energy correction for multipole
  | error in Hartree potential    :          -0.00495844 Ha          -0.13492606 eV
  | Sum of eigenvalues per atom                           :        -379.53381203 eV
  | Total energy (T->0) per atom                          :        -694.35996628 eV  <-- do not rely on this value for anything but (periodic) metals
  | Electronic free energy per atom                       :        -694.35996628 eV

  Self-consistency convergence accuracy:
  | Change of charge density      : 0.2523E+00
  | Change of sum of eigenvalues  : -.4457E+01 eV
  | Change of total energy        : 0.1493E+00 eV

  End self-consistency iteration #     3       :  max(cpu_time)    wall_clock(cpu1)
  | Time for this iteration                    :        1.945 s           1.945 s
  | Charge density update                      :        0.633 s           0.633 s
  | Density mixing                             :        0.007 s           0.007 s
  | Hartree multipole update                   :        0.005 s           0.005 s
  | Hartree multipole summation                :        0.323 s           0.323 s
  | Integration                                :        0.923 s           0.923 s
  | Solution of K.-S. eqns.                    :        0.054 s           0.054 s
  | Total energy evaluation                    :        0.000 s           0.000 s
------------------------------------------------------------

------------------------------------------------------------
          Begin self-consistency iteration #    4

  Date     :  20150727, Time     :  115323.078
------------------------------------------------------------
  Evaluating new KS density.
  Integration grid: deviation in total charge (<rho> - N_e) =   0.000000E+00
  Pulay mixing of updated and previous charge densities.

  Evaluating partitioned Hartree potential by multipole expansion.
  | Analytical far-field extrapolation by fixed multipoles:
  | Hartree multipole sum: apparent total charge =  -0.351669E-05
  Summing up the Hartree potential.
  Time summed over all CPUs for potential: real work        2.566 s, elapsed        2.577 s
  | RMS charge density error from multipole expansion :   0.171082E-01

  Integrating Hamiltonian matrix: batch-based integration.
  Time summed over all CPUs for integration: real work        7.244 s, elapsed        7.363 s

  Updating Kohn-Sham eigenvalues, eigenvectors, occupation numbers, and Fermi level.
  Solving generalized eigenproblem
  Updating Kohn-Sham eigenvalues and eigenfunctions.
  Solving real generalised eigenvalue problem by standard LAPACK (fast)
  Determining occupation numbers for Kohn-Sham eigenstates.
  | Chemical potential (Fermi level) in eV                 : -.29152741E+01
  | Error in electron count due to remaining E_F inaccuracy: 0.00000000E+00
  | Maximum occupation number of highest empty state:  0.00E+00

  Highest occupied state (VBM) at     -4.65458406 eV
  | Occupation number:      2.00000000

  Lowest unoccupied state (CBM) at    -1.71778337 eV
  | Occupation number:      0.00000000

  Overall HOMO-LUMO gap:      2.93680069 eV.

  Total energy components:
  | Sum of eigenvalues            :        -207.62436807 Ha       -5649.74651104 eV
  | XC energy correction          :         -46.60430319 Ha       -1268.16761357 eV
  | XC potential correction       :          59.57510246 Ha        1621.12101971 eV
  | Free-atom electrostatic energy:        -178.68646504 Ha       -4862.30610505 eV
  | Hartree energy correction     :          -9.40666531 Ha        -255.96838661 eV
  | van der Waals energy corr.    :           0.00000000 Ha           0.00000000 eV
  | Entropy correction            :           0.00000000 Ha           0.00000000 eV
  | ---------------------------
  | Total energy                  :        -382.74669915 Ha      -10415.06759657 eV
  | Total energy, T -> 0          :        -382.74669915 Ha      -10415.06759657 eV  <-- do not rely on this value for anything but (periodic) metals
  | Electronic free energy        :        -382.74669915 Ha      -10415.06759657 eV

  Derived energy quantities:
  | Kinetic energy                :         381.75042652 Ha       10387.95763907 eV
  | Electrostatic energy          :        -717.89282247 Ha      -19534.85762207 eV
  | Energy correction for multipole
  | error in Hartree potential    :          -0.00659215 Ha          -0.17938161 eV
  | Sum of eigenvalues per atom                           :        -376.64976740 eV
  | Total energy (T->0) per atom                          :        -694.33783977 eV  <-- do not rely on this value for anything but (periodic) metals
  | Electronic free energy per atom                       :        -694.33783977 eV

  Self-consistency convergence accuracy:
  | Change of charge density      : 0.1394E+00
  | Change of sum of eigenvalues  : 0.4326E+02 eV
  | Change of total energy        : 0.3319E+00 eV

  End self-consistency iteration #     4       :  max(cpu_time)    wall_clock(cpu1)
  | Time for this iteration                    :        1.942 s           1.943 s
  | Charge density update                      :        0.629 s           0.630 s
  | Density mixing                             :        0.009 s           0.008 s
  | Hartree multipole update                   :        0.004 s           0.005 s
  | Hartree multipole summation                :        0.323 s           0.323 s
  | Integration                                :        0.922 s           0.922 s
  | Solution of K.-S. eqns.                    :        0.054 s           0.054 s
  | Total energy evaluation                    :        0.000 s           0.000 s
------------------------------------------------------------

------------------------------------------------------------
          Begin self-consistency iteration #    5

  Date     :  20150727, Time     :  115325.021
------------------------------------------------------------
  Evaluating new KS density.
  Integration grid: deviation in total charge (<rho> - N_e) =   0.000000E+00
  Pulay mixing of updated and previous charge densities.

  Evaluating partitioned Hartree potential by multipole expansion.
  | Analytical far-field extrapolation by fixed multipoles:
  | Hartree multipole sum: apparent total charge =  -0.341594E-05
  Summing up the Hartree potential.
  Time summed over all CPUs for potential: real work        2.566 s, elapsed        2.577 s
  | RMS charge density error from multipole expansion :   0.179859E-01

  Integrating Hamiltonian matrix: batch-based integration.
  Time summed over all CPUs for integration: real work        7.246 s, elapsed        7.351 s

  Updating Kohn-Sham eigenvalues, eigenvectors, occupation numbers, and Fermi level.
  Solving generalized eigenproblem
  Updating Kohn-Sham eigenvalues and eigenfunctions.
  Solving real generalised eigenvalue problem by standard LAPACK (fast)
  Determining occupation numbers for Kohn-Sham eigenstates.
  | Chemical potential (Fermi level) in eV                 : -.28548627E+01
  | Error in electron count due to remaining E_F inaccuracy: 0.00000000E+00
  | Maximum occupation number of highest empty state:  0.00E+00

  Highest occupied state (VBM) at     -4.36425833 eV
  | Occupation number:      2.00000000

  Lowest unoccupied state (CBM) at    -1.70489473 eV
  | Occupation number:      0.00000000

  Overall HOMO-LUMO gap:      2.65936360 eV.

  Total energy components:
  | Sum of eigenvalues            :        -207.39501401 Ha       -5643.50546968 eV
  | XC energy correction          :         -46.63601444 Ha       -1269.03052047 eV
  | XC potential correction       :          59.61609788 Ha        1622.23656193 eV
  | Free-atom electrostatic energy:        -178.68646504 Ha       -4862.30610505 eV
  | Hartree energy correction     :          -9.64496749 Ha        -262.45291880 eV
  | van der Waals energy corr.    :           0.00000000 Ha           0.00000000 eV
  | Entropy correction            :           0.00000000 Ha           0.00000000 eV
  | ---------------------------
  | Total energy                  :        -382.74636309 Ha      -10415.05845207 eV
  | Total energy, T -> 0          :        -382.74636309 Ha      -10415.05845207 eV  <-- do not rely on this value for anything but (periodic) metals
  | Electronic free energy        :        -382.74636309 Ha      -10415.05845207 eV

  Derived energy quantities:
  | Kinetic energy                :         381.79579965 Ha       10389.19230478 eV
  | Electrostatic energy          :        -717.90614830 Ha      -19535.22023637 eV
  | Energy correction for multipole
  | error in Hartree potential    :          -0.00695433 Ha          -0.18923691 eV
  | Sum of eigenvalues per atom                           :        -376.23369798 eV
  | Total energy (T->0) per atom                          :        -694.33723014 eV  <-- do not rely on this value for anything but (periodic) metals
  | Electronic free energy per atom                       :        -694.33723014 eV

  Self-consistency convergence accuracy:
  | Change of charge density      : 0.3636E-01
  | Change of sum of eigenvalues  : 0.6241E+01 eV
  | Change of total energy        : 0.9144E-02 eV

  End self-consistency iteration #     5       :  max(cpu_time)    wall_clock(cpu1)
  | Time for this iteration                    :        1.943 s           1.943 s
  | Charge density update                      :        0.631 s           0.630 s
  | Density mixing                             :        0.009 s           0.010 s
  | Hartree multipole update                   :        0.005 s           0.005 s
  | Hartree multipole summation                :        0.323 s           0.322 s
  | Integration                                :        0.921 s           0.920 s
  | Solution of K.-S. eqns.                    :        0.054 s           0.054 s
  | Total energy evaluation                    :        0.000 s           0.001 s
------------------------------------------------------------

------------------------------------------------------------
          Begin self-consistency iteration #    6

  Date     :  20150727, Time     :  115326.964
------------------------------------------------------------
  Evaluating new KS density.
  Integration grid: deviation in total charge (<rho> - N_e) =   1.421085E-14
  Pulay mixing of updated and previous charge densities.

  Evaluating partitioned Hartree potential by multipole expansion.
  | Analytical far-field extrapolation by fixed multipoles:
  | Hartree multipole sum: apparent total charge =  -0.337011E-05
  Summing up the Hartree potential.
  Time summed over all CPUs for potential: real work        2.566 s, elapsed        2.576 s
  | RMS charge density error from multipole expansion :   0.182671E-01

  Integrating Hamiltonian matrix: batch-based integration.
  Time summed over all CPUs for integration: real work        7.255 s, elapsed        7.349 s

  Updating Kohn-Sham eigenvalues, eigenvectors, occupation numbers, and Fermi level.
  Solving generalized eigenproblem
  Updating Kohn-Sham eigenvalues and eigenfunctions.
  Solving real generalised eigenvalue problem by standard LAPACK (fast)
  Determining occupation numbers for Kohn-Sham eigenstates.
  | Chemical potential (Fermi level) in eV                 : -.28381138E+01
  | Error in electron count due to remaining E_F inaccuracy: 0.00000000E+00
  | Maximum occupation number of highest empty state:  0.00E+00

  Highest occupied state (VBM) at     -4.32455654 eV
  | Occupation number:      2.00000000

  Lowest unoccupied state (CBM) at    -1.70033737 eV
  | Occupation number:      0.00000000

  Overall HOMO-LUMO gap:      2.62421917 eV.

  Total energy components:
  | Sum of eigenvalues            :        -207.33827581 Ha       -5641.96154465 eV
  | XC energy correction          :         -46.64428327 Ha       -1269.25552681 eV
  | XC potential correction       :          59.62672593 Ha        1622.52576573 eV
  | Free-atom electrostatic energy:        -178.68646504 Ha       -4862.30610505 eV
  | Hartree energy correction     :          -9.70415062 Ha        -264.06337370 eV
  | van der Waals energy corr.    :           0.00000000 Ha           0.00000000 eV
  | Entropy correction            :           0.00000000 Ha           0.00000000 eV
  | ---------------------------
  | Total energy                  :        -382.74644881 Ha      -10415.06078446 eV
  | Total energy, T -> 0          :        -382.74644881 Ha      -10415.06078446 eV  <-- do not rely on this value for anything but (periodic) metals
  | Electronic free energy        :        -382.74644881 Ha      -10415.06078446 eV

  Derived energy quantities:
  | Kinetic energy                :         381.80590879 Ha       10389.46738858 eV
  | Electrostatic energy          :        -717.90807433 Ha      -19535.27264624 eV
  | Energy correction for multipole
  | error in Hartree potential    :          -0.00706149 Ha          -0.19215286 eV
  | Sum of eigenvalues per atom                           :        -376.13076964 eV
  | Total energy (T->0) per atom                          :        -694.33738563 eV  <-- do not rely on this value for anything but (periodic) metals
  | Electronic free energy per atom                       :        -694.33738563 eV

  Self-consistency convergence accuracy:
  | Change of charge density      : 0.1046E-01
  | Change of sum of eigenvalues  : 0.1544E+01 eV
  | Change of total energy        : -.2332E-02 eV

  End self-consistency iteration #     6       :  max(cpu_time)    wall_clock(cpu1)
  | Time for this iteration                    :        1.943 s           1.943 s
  | Charge density update                      :        0.630 s           0.630 s
  | Density mixing                             :        0.011 s           0.011 s
  | Hartree multipole update                   :        0.005 s           0.005 s
  | Hartree multipole summation                :        0.323 s           0.323 s
  | Integration                                :        0.920 s           0.920 s
  | Solution of K.-S. eqns.                    :        0.054 s           0.054 s
  | Total energy evaluation                    :        0.000 s           0.000 s
------------------------------------------------------------

------------------------------------------------------------
          Begin self-consistency iteration #    7

  Date     :  20150727, Time     :  115328.907
------------------------------------------------------------
  Evaluating new KS density.
  Integration grid: deviation in total charge (<rho> - N_e) =   2.842171E-14
  Pulay mixing of updated and previous charge densities.

  Evaluating partitioned Hartree potential by multipole expansion.
  | Analytical far-field extrapolation by fixed multipoles:
  | Hartree multipole sum: apparent total charge =  -0.313111E-05
  Summing up the Hartree potential.
  Time summed over all CPUs for potential: real work        2.566 s, elapsed        2.577 s
  | RMS charge density error from multipole expansion :   0.181906E-01

  Integrating Hamiltonian matrix: batch-based integration.
  Time summed over all CPUs for integration: real work        7.259 s, elapsed        7.353 s

  Updating Kohn-Sham eigenvalues, eigenvectors, occupation numbers, and Fermi level.
  Solving generalized eigenproblem
  Updating Kohn-Sham eigenvalues and eigenfunctions.
  Solving real generalised eigenvalue problem by standard LAPACK (fast)
  Determining occupation numbers for Kohn-Sham eigenstates.
  | Chemical potential (Fermi level) in eV                 : -.28894168E+01
  | Error in electron count due to remaining E_F inaccuracy: 0.00000000E+00
  | Maximum occupation number of highest empty state:  0.00E+00

  Highest occupied state (VBM) at     -4.49495488 eV
  | Occupation number:      2.00000000

  Lowest unoccupied state (CBM) at    -1.72087109 eV
  | Occupation number:      0.00000000

  Overall HOMO-LUMO gap:      2.77408379 eV.

  Total energy components:
  | Sum of eigenvalues            :        -207.50687660 Ha       -5646.54940551 eV
  | XC energy correction          :         -46.62706820 Ha       -1268.78708077 eV
  | XC potential correction       :          59.60375726 Ha        1621.90075632 eV
  | Free-atom electrostatic energy:        -178.68646504 Ha       -4862.30610505 eV
  | Hartree energy correction     :          -9.52965307 Ha        -259.31505392 eV
  | van der Waals energy corr.    :           0.00000000 Ha           0.00000000 eV
  | Entropy correction            :           0.00000000 Ha           0.00000000 eV
  | ---------------------------
  | Total energy                  :        -382.74630565 Ha      -10415.05688891 eV
  | Total energy, T -> 0          :        -382.74630565 Ha      -10415.05688891 eV  <-- do not rely on this value for anything but (periodic) metals
  | Electronic free energy        :        -382.74630565 Ha      -10415.05688891 eV

  Derived energy quantities:
  | Kinetic energy                :         381.85283223 Ha       10390.74424028 eV
  | Electrostatic energy          :        -717.97206968 Ha      -19537.01404843 eV
  | Energy correction for multipole
  | error in Hartree potential    :          -0.00691252 Ha          -0.18809937 eV
  | Sum of eigenvalues per atom                           :        -376.43662703 eV
  | Total energy (T->0) per atom                          :        -694.33712593 eV  <-- do not rely on this value for anything but (periodic) metals
  | Electronic free energy per atom                       :        -694.33712593 eV

  Self-consistency convergence accuracy:
  | Change of charge density      : 0.1162E-01
  | Change of sum of eigenvalues  : -.4588E+01 eV
  | Change of total energy        : 0.3896E-02 eV

  End self-consistency iteration #     7       :  max(cpu_time)    wall_clock(cpu1)
  | Time for this iteration                    :        1.945 s           1.944 s
  | Charge density update                      :        0.629 s           0.629 s
  | Density mixing                             :        0.012 s           0.012 s
  | Hartree multipole update                   :        0.004 s           0.005 s
  | Hartree multipole summation                :        0.323 s           0.323 s
  | Integration                                :        0.921 s           0.921 s
  | Solution of K.-S. eqns.                    :        0.054 s           0.054 s
  | Total energy evaluation                    :        0.000 s           0.000 s
------------------------------------------------------------

------------------------------------------------------------
          Begin self-consistency iteration #    8

  Date     :  20150727, Time     :  115330.851
------------------------------------------------------------
  Evaluating new KS density.
  Integration grid: deviation in total charge (<rho> - N_e) =  -7.105427E-15
  Pulay mixing of updated and previous charge densities.

  Evaluating partitioned Hartree potential by multipole expansion.
  | Analytical far-field extrapolation by fixed multipoles:
  | Hartree multipole sum: apparent total charge =  -0.311765E-05
  Summing up the Hartree potential.
  Time summed over all CPUs for potential: real work        2.567 s, elapsed        2.576 s
  | RMS charge density error from multipole expansion :   0.182225E-01

  Integrating Hamiltonian matrix: batch-based integration.
  Time summed over all CPUs for integration: real work        7.248 s, elapsed        7.356 s

  Updating Kohn-Sham eigenvalues, eigenvectors, occupation numbers, and Fermi level.
  Solving generalized eigenproblem
  Updating Kohn-Sham eigenvalues and eigenfunctions.
  Solving real generalised eigenvalue problem by standard LAPACK (fast)
  Determining occupation numbers for Kohn-Sham eigenstates.
  | Chemical potential (Fermi level) in eV                 : -.28881774E+01
  | Error in electron count due to remaining E_F inaccuracy: 0.00000000E+00
  | Maximum occupation number of highest empty state:  0.00E+00

  Highest occupied state (VBM) at     -4.47729152 eV
  | Occupation number:      2.00000000

  Lowest unoccupied state (CBM) at    -1.72118714 eV
  | Occupation number:      0.00000000

  Overall HOMO-LUMO gap:      2.75610438 eV.

  Total energy components:
  | Sum of eigenvalues            :        -207.50204677 Ha       -5646.41797916 eV
  | XC energy correction          :         -46.62753314 Ha       -1268.79973269 eV
  | XC potential correction       :          59.60432982 Ha        1621.91633647 eV
  | Free-atom electrostatic energy:        -178.68646504 Ha       -4862.30610505 eV
  | Hartree energy correction     :          -9.53458922 Ha        -259.44937332 eV
  | van der Waals energy corr.    :           0.00000000 Ha           0.00000000 eV
  | Entropy correction            :           0.00000000 Ha           0.00000000 eV
  | ---------------------------
  | Total energy                  :        -382.74630435 Ha      -10415.05685374 eV
  | Total energy, T -> 0          :        -382.74630435 Ha      -10415.05685374 eV  <-- do not rely on this value for anything but (periodic) metals
  | Electronic free energy        :        -382.74630435 Ha      -10415.05685374 eV

  Derived energy quantities:
  | Kinetic energy                :         381.85642013 Ha       10390.84187192 eV
  | Electrostatic energy          :        -717.97519134 Ha      -19537.09899296 eV
  | Energy correction for multipole
  | error in Hartree potential    :          -0.00692891 Ha          -0.18854528 eV
  | Sum of eigenvalues per atom                           :        -376.42786528 eV
  | Total energy (T->0) per atom                          :        -694.33712358 eV  <-- do not rely on this value for anything but (periodic) metals
  | Electronic free energy per atom                       :        -694.33712358 eV

  Self-consistency convergence accuracy:
  | Change of charge density      : 0.2085E-02
  | Change of sum of eigenvalues  : 0.1314E+00 eV
  | Change of total energy        : 0.3518E-04 eV

  End self-consistency iteration #     8       :  max(cpu_time)    wall_clock(cpu1)
  | Time for this iteration                    :        1.946 s           1.947 s
  | Charge density update                      :        0.629 s           0.629 s
  | Density mixing                             :        0.013 s           0.014 s
  | Hartree multipole update                   :        0.004 s           0.005 s
  | Hartree multipole summation                :        0.323 s           0.323 s
  | Integration                                :        0.922 s           0.921 s
  | Solution of K.-S. eqns.                    :        0.054 s           0.054 s
  | Total energy evaluation                    :        0.000 s           0.001 s
------------------------------------------------------------

------------------------------------------------------------
          Begin self-consistency iteration #    9

  Date     :  20150727, Time     :  115332.798
------------------------------------------------------------
  Evaluating new KS density.
  Integration grid: deviation in total charge (<rho> - N_e) =  -1.421085E-14
  Pulay mixing of updated and previous charge densities.

  Evaluating partitioned Hartree potential by multipole expansion.
  | Analytical far-field extrapolation by fixed multipoles:
  | Hartree multipole sum: apparent total charge =  -0.310839E-05
  Summing up the Hartree potential.
  Time summed over all CPUs for potential: real work        2.566 s, elapsed        2.576 s
  | RMS charge density error from multipole expansion :   0.182323E-01

  Integrating Hamiltonian matrix: batch-based integration.
  Time summed over all CPUs for integration: real work        7.247 s, elapsed        7.375 s

  Updating Kohn-Sham eigenvalues, eigenvectors, occupation numbers, and Fermi level.
  Solving generalized eigenproblem
  Updating Kohn-Sham eigenvalues and eigenfunctions.
  Solving real generalised eigenvalue problem by standard LAPACK (fast)
  Determining occupation numbers for Kohn-Sham eigenstates.
  | Chemical potential (Fermi level) in eV                 : -.28884345E+01
  | Error in electron count due to remaining E_F inaccuracy: 0.00000000E+00
  | Maximum occupation number of highest empty state:  0.00E+00

  Highest occupied state (VBM) at     -4.48285218 eV
  | Occupation number:      2.00000000

  Lowest unoccupied state (CBM) at    -1.72127480 eV
  | Occupation number:      0.00000000

  Overall HOMO-LUMO gap:      2.76157737 eV.

  Total energy components:
  | Sum of eigenvalues            :        -207.50273972 Ha       -5646.43683539 eV
  | XC energy correction          :         -46.62749868 Ha       -1268.79879491 eV
  | XC potential correction       :          59.60426415 Ha        1621.91454964 eV
  | Free-atom electrostatic energy:        -178.68646504 Ha       -4862.30610505 eV
  | Hartree energy correction     :          -9.53386490 Ha        -259.42966348 eV
  | van der Waals energy corr.    :           0.00000000 Ha           0.00000000 eV
  | Entropy correction            :           0.00000000 Ha           0.00000000 eV
  | ---------------------------
  | Total energy                  :        -382.74630419 Ha      -10415.05684919 eV
  | Total energy, T -> 0          :        -382.74630419 Ha      -10415.05684919 eV  <-- do not rely on this value for anything but (periodic) metals
  | Electronic free energy        :        -382.74630419 Ha      -10415.05684919 eV

  Derived energy quantities:
  | Kinetic energy                :         381.85952456 Ha       10390.92634784 eV
  | Electrostatic energy          :        -717.97833007 Ha      -19537.18440212 eV
  | Energy correction for multipole
[...]
   ----------------------------------------------------------------
   Total forces(   4)            : -.333163E+00 -.138753E+01 -.362442E+00
  atom #    5
   Hellmann-Feynman + Multipole  : -.478140E+00 0.358198E+00 0.852638E+00
   Pulay + GGA                   : 0.406372E-01 0.100693E+00 0.121070E+00
   Van der Waals               : 0.723269E-03 0.230383E-02 -.228782E-02
   ----------------------------------------------------------------
   Total forces(   5)            : -.436780E+00 0.461194E+00 0.971420E+00
  atom #    6
   Hellmann-Feynman + Multipole  : 0.668121E+00 0.839371E+00 0.249765E+00
   Pulay + GGA                   : -.112449E+00 -.598768E-01 0.676242E-01
   Van der Waals               : 0.863426E-03 0.154589E-02 -.142537E-02
   ----------------------------------------------------------------
   Total forces(   6)            : 0.556536E+00 0.781040E+00 0.315964E+00
  atom #    7
   Hellmann-Feynman + Multipole  : -.594212E+01 -.797332E+01 0.910176E+01
   Pulay + GGA                   : 0.586478E+01 0.834003E+01 -.699852E+01
   Van der Waals               : -.200405E-02 0.136994E-02 0.125274E-02
   ----------------------------------------------------------------
   Total forces(   7)            : -.793392E-01 0.368074E+00 0.210449E+01
  atom #    8
   Hellmann-Feynman + Multipole  : -.165228E+00 -.104480E+00 0.354492E-01
   Pulay + GGA                   : 0.392476E-01 0.818178E-01 0.149089E-02
   Van der Waals               : 0.333976E-03 -.719443E-03 0.136349E-02
   ----------------------------------------------------------------
   Total forces(   8)            : -.125647E+00 -.233816E-01 0.383036E-01
  atom #    9
   Hellmann-Feynman + Multipole  : -.265872E+00 0.289351E+00 -.224062E+01
   Pulay + GGA                   : -.362155E-01 0.389087E-01 -.120654E+00
   Van der Waals               : 0.248236E-02 0.192323E-02 0.323381E-02
   ----------------------------------------------------------------
   Total forces(   9)            : -.299605E+00 0.330183E+00 -.235804E+01
  atom #   10
   Hellmann-Feynman + Multipole  : -.733817E+00 -.461598E+01 -.156047E+02
   Pulay + GGA                   : 0.151789E+01 0.507474E+01 0.140308E+02
   Van der Waals               : -.663062E-02 -.812518E-02 -.360934E-02
   ----------------------------------------------------------------
   Total forces(  10)            : 0.777443E+00 0.450640E+00 -.157742E+01
  atom #   11
   Hellmann-Feynman + Multipole  : -.441248E+00 -.311078E+00 0.349104E+00
   Pulay + GGA                   : 0.100219E+00 0.590556E-01 0.531191E-01
   Van der Waals               : -.155064E-02 -.461383E-03 -.856264E-03
   ----------------------------------------------------------------
   Total forces(  11)            : -.342579E+00 -.252484E+00 0.401367E+00
  atom #   12
   Hellmann-Feynman + Multipole  : -.274262E+00 -.153848E+00 0.107151E+01
   Pulay + GGA                   : -.767847E-01 -.473021E-01 0.103742E+00
   Van der Waals               : -.150340E-02 -.320020E-02 -.293232E-02
   ----------------------------------------------------------------
   Total forces(  12)            : -.352550E+00 -.204351E+00 0.117232E+01
  atom #   13
   Hellmann-Feynman + Multipole  : -.125323E+02 -.315868E+01 0.264866E+01
   Pulay + GGA                   : 0.133559E+02 0.488901E+01 -.352713E+01
   Van der Waals               : -.121676E-02 -.281484E-02 -.183666E-02
   ----------------------------------------------------------------
   Total forces(  13)            : 0.822468E+00 0.172752E+01 -.880299E+00
  atom #   14
   Hellmann-Feynman + Multipole  : -.126705E+00 -.262624E+00 0.161419E+00
   Pulay + GGA                   : 0.837331E-01 -.243552E-01 0.243624E-01
   Van der Waals               : -.355570E-02 -.395533E-02 -.318254E-02
   ----------------------------------------------------------------
   Total forces(  14)            : -.465274E-01 -.290935E+00 0.182599E+00
  atom #   15
   Hellmann-Feynman + Multipole  : -.825456E+00 -.149966E+01 0.692185E+00
   Pulay + GGA                   : 0.478389E-01 0.108049E+00 -.507337E-01
   Van der Waals               : 0.153306E-02 -.400187E-02 0.173008E-02
   ----------------------------------------------------------------
   Total forces(  15)            : -.776084E+00 -.139562E+01 0.643182E+00
  Timings for vdw_correction_hirshfeld (Tkatchenko-Scheffler 2009):
  | CPU time:        5.273 s, Wall clock time:        5.273 s.
  Removing unitary transformations (pure translations, rotations) from forces on atoms.
  Atomic forces before filtering:
  | Net force on center of mass :  0.677886E-02 -.523732E-02 -.372782E-02 eV/A
  | Net torque on center of mass:  0.591861E-02 -.260298E-02 -.112474E-01 eV
  Atomic forces after filtering:
  | Net force on center of mass :  -.981234E-15 -.178406E-15 0.446015E-15 eV/A
  | Net torque on center of mass:  -.245462E-14 0.110930E-14 -.113290E-14 eV
 
  Energy and forces in a compact form:
  | Total energy uncorrected      :         -0.104151270278646E+05 eV
  | Total energy corrected        :         -0.104151270278646E+05 eV  <-- do not rely on this value for anything but (periodic) metals
  | Electronic free energy        :         -0.104151270278646E+05 eV
  Total atomic forces (unitary forces cleaned) [eV/Ang]:
  |   1          0.994119442995311E+00          0.258261467278967E+01         -0.158758584397043E+01
  |   2          0.171756584079664E+01         -0.267555509512389E+01          0.109391879262056E+01
  |   3         -0.206973113409927E+01         -0.475770275391436E+00         -0.160514395098341E+00
  |   4         -0.333238375036728E+00         -0.138720684425977E+01         -0.362066296180824E+00
  |   5         -0.436962664438232E+00          0.461581361046825E+00          0.971755319042945E+00
  |   6          0.556537747846182E+00          0.781248632793680E+00          0.316373262994568E+00
  |   7         -0.798367484416982E-01          0.368113789662552E+00          0.210474539472494E+01
  |   8         -0.126265157442087E+00         -0.232509118316287E-01          0.385129712747702E-01
  |   9         -0.300134504210366E+00          0.330153722072858E+00         -0.235778473669372E+01
  |  10          0.776872902066909E+00          0.451345001750965E+00         -0.157724007578666E+01
  |  11         -0.343226279598384E+00         -0.251643813348432E+00          0.401514301377135E+00
  |  12         -0.353066238602492E+00         -0.203697634665089E+00          0.117252439300264E+01
  |  13          0.821663133751720E+00          0.172782687905914E+01         -0.880164582926608E+00
  |  14         -0.472689320855967E-01         -0.290479318208595E+00          0.182743855774636E+00
  |  15         -0.777029033501908E+00         -0.139528016634685E+01          0.643267639844389E+00
 
  ------------------------------------ 
  Start decomposition of the XC Energy 
  ------------------------------------ 
  Hartree-Fock part   :          0.000000000 Ha              0.000000000 eV
  ------------------------------------ 
  X Energy            :        -44.990083844 Ha          -1224.242470179 eV
  C Energy GGA        :         -1.637275452 Ha            -44.552531868 eV
  Total XC Energy     :        -46.627359297 Ha          -1268.795002047 eV
  LDA X and C from self-consistent density 
  X Energy LDA        :        -40.546506629 Ha          -1103.326582004 eV
  C Energy LDA        :         -3.301430752 Ha            -89.836501591 eV
  ------------------------------------ 
  End decomposition of the XC Energy 
  ------------------------------------ 
  Performing Hirshfeld analysis of fragment charges and moments.
  ----------------------------------------------------------------------
  | Atom     1: O
  |   Hirshfeld charge        :     -0.35382767
  |   Free atom volume        :     23.95238533
  |   Hirshfeld volume        :     23.72957055
  |   Hirshfeld dipole vector :      0.00967858       0.05962398       0.02527561
  |   Hirshfeld dipole moment :      0.06547939
  |   Hirshfeld second moments:      0.02493702      -0.01142875       0.01575027
  |                                 -0.01142875      -0.05522823      -0.03071147
  |                                  0.01575027      -0.03071147      -0.07812449
  ----------------------------------------------------------------------
  | Atom     2: H
  |   Hirshfeld charge        :      0.06636534
  |   Free atom volume        :     10.44207651
  |   Hirshfeld volume        :      8.44532753
  |   Hirshfeld dipole vector :     -0.02315121       0.03529055      -0.00790732
  |   Hirshfeld dipole moment :      0.04294097
  |   Hirshfeld second moments:      0.06942782       0.03125899       0.00030255
  |                                  0.03125899       0.02557434       0.00856809
  |                                  0.00030255       0.00856809       0.06262481
  ----------------------------------------------------------------------
  | Atom     3: H
  |   Hirshfeld charge        :      0.09177805
  |   Free atom volume        :     10.44207651
  |   Hirshfeld volume        :      7.84376303
  |   Hirshfeld dipole vector :      0.10561808       0.02613926       0.01663576
  |   Hirshfeld dipole moment :      0.11006902
  |   Hirshfeld second moments:      0.08590827      -0.01539540      -0.00270413
  |                                 -0.01539540       0.07667938      -0.01423950
  |                                 -0.00270413      -0.01423950       0.06383567
  ----------------------------------------------------------------------
  | Atom     4: O
  |   Hirshfeld charge        :     -0.27865373
  |   Free atom volume        :     23.95238533
  |   Hirshfeld volume        :     21.79286950
  |   Hirshfeld dipole vector :     -0.03157744       0.01808226       0.01390484
  |   Hirshfeld dipole moment :      0.03895443
  |   Hirshfeld second moments:      0.02968011       0.05648479      -0.00711133
  |                                  0.05648479       0.03540800       0.02630324
  |                                 -0.00711133       0.02630324       0.00162587
  ----------------------------------------------------------------------
  | Atom     5: H
  |   Hirshfeld charge        :      0.12393823
  |   Free atom volume        :     10.44207651
  |   Hirshfeld volume        :      6.77972803
  |   Hirshfeld dipole vector :      0.03342473       0.09486322       0.05777961
  |   Hirshfeld dipole moment :      0.11599451
  |   Hirshfeld second moments:      0.11012259       0.01445717      -0.00592320
  |                                  0.01445717       0.09816640       0.00400549
  |                                 -0.00592320       0.00400549       0.09667103
  ----------------------------------------------------------------------
  | Atom     6: H
  |   Hirshfeld charge        :      0.14250242
  |   Free atom volume        :     10.44207651
  |   Hirshfeld volume        :      6.52155788
  |   Hirshfeld dipole vector :     -0.10342751      -0.06390331       0.01937496
  |   Hirshfeld dipole moment :      0.12311081
  |   Hirshfeld second moments:      0.10187380       0.01253908       0.00052607
  |                                  0.01253908       0.11791196       0.01329932
  |                                  0.00052607       0.01329932       0.10591081
  ----------------------------------------------------------------------
  | Atom     7: O
  |   Hirshfeld charge        :     -0.20357083
  |   Free atom volume        :     23.95238533
  |   Hirshfeld volume        :     20.50699138
  |   Hirshfeld dipole vector :      0.03136095      -0.00787988      -0.01467254
  |   Hirshfeld dipole moment :      0.03550894
  |   Hirshfeld second moments:      0.03376653       0.01064748       0.02673608
  |                                  0.01064748       0.07508102       0.00414363
  |                                  0.02673608       0.00414363       0.09827039
  ----------------------------------------------------------------------
  | Atom     8: H
  |   Hirshfeld charge        :      0.11539653
  |   Free atom volume        :     10.44207651
  |   Hirshfeld volume        :      7.38409115
  |   Hirshfeld dipole vector :      0.02638547       0.03716852       0.00672617
  |   Hirshfeld dipole moment :      0.04607530
  |   Hirshfeld second moments:      0.08001131      -0.02141895      -0.00643936
  |                                 -0.02141895       0.06825224      -0.02932439
  |                                 -0.00643936      -0.02932439       0.10057065
  ----------------------------------------------------------------------
  | Atom     9: H
  |   Hirshfeld charge        :      0.16070166
  |   Free atom volume        :     10.44207651
  |   Hirshfeld volume        :      5.97380544
  |   Hirshfeld dipole vector :     -0.01808449       0.01050986      -0.11923227
  |   Hirshfeld dipole moment :      0.12105305
  |   Hirshfeld second moments:      0.11879100       0.00849436       0.00807121
  |                                  0.00849436       0.13321875       0.00232046
  |                                  0.00807121       0.00232046       0.12316383
  ----------------------------------------------------------------------
  | Atom    10: O
  |   Hirshfeld charge        :     -0.22795815
  |   Free atom volume        :     23.95238533
  |   Hirshfeld volume        :     20.16615006
  |   Hirshfeld dipole vector :     -0.01353629       0.01993473       0.02842633
  |   Hirshfeld dipole moment :      0.03726501
  |   Hirshfeld second moments:      0.09276010       0.04031911      -0.00217783
  |                                  0.04031911       0.04748187      -0.01599593
  |                                 -0.00217783      -0.01599593       0.06630772
  ----------------------------------------------------------------------
  | Atom    11: H
  |   Hirshfeld charge        :      0.17155538
  |   Free atom volume        :     10.44207651
  |   Hirshfeld volume        :      5.54813723
  |   Hirshfeld dipole vector :      0.09750678       0.06820486       0.03351074
  |   Hirshfeld dipole moment :      0.12362219
  |   Hirshfeld second moments:      0.13441486       0.00622407      -0.00862271
  |                                  0.00622407       0.12237985      -0.00934175
  |                                 -0.00862271      -0.00934175       0.14045315
  ----------------------------------------------------------------------
  | Atom    12: H
  |   Hirshfeld charge        :      0.16882250
  |   Free atom volume        :     10.44207651
  |   Hirshfeld volume        :      6.02261521
  |   Hirshfeld dipole vector :     -0.07427193      -0.03747817       0.08431741
  |   Hirshfeld dipole moment :      0.11844982
  |   Hirshfeld second moments:      0.12684732       0.00854263       0.00713631
  |                                  0.00854263       0.11869085       0.00169530
  |                                  0.00713631       0.00169530       0.12762932
  ----------------------------------------------------------------------
  | Atom    13: O
  |   Hirshfeld charge        :     -0.24191711
  |   Free atom volume        :     23.95238533
  |   Hirshfeld volume        :     20.99821669
  |   Hirshfeld dipole vector :      0.02505701      -0.01576605      -0.02704669
  |   Hirshfeld dipole moment :      0.04009920
  |   Hirshfeld second moments:      0.03849493       0.00662540       0.02301144
  |                                  0.00662540       0.07962552      -0.03080884
  |                                  0.02301144      -0.03080884       0.02157413
  ----------------------------------------------------------------------
  | Atom    14: H
  |   Hirshfeld charge        :      0.10842269
  |   Free atom volume        :     10.44207651
  |   Hirshfeld volume        :      7.23099172
  |   Hirshfeld dipole vector :      0.05258085      -0.01998679       0.00573026
  |   Hirshfeld dipole moment :      0.05654249
  |   Hirshfeld second moments:      0.07086640       0.03236759      -0.01941337
  |                                  0.03236759       0.09783307       0.00235767
  |                                 -0.01941337       0.00235767       0.08642115
  ----------------------------------------------------------------------
  | Atom    15: H
  |   Hirshfeld charge        :      0.15644624
  |   Free atom volume        :     10.44207651
  |   Hirshfeld volume        :      5.92195252
  |   Hirshfeld dipole vector :      0.03616213       0.10161230      -0.05482075
  |   Hirshfeld dipole moment :      0.12098791
  |   Hirshfeld second moments:      0.13036187      -0.00495086       0.01121557
  |                                 -0.00495086       0.12383922      -0.00218148
  |                                  0.01121557      -0.00218148       0.11434350
  ----------------------------------------------------------------------


------------------------------------------------------------------------------
  Final output of selected total energy values:

  The following output summarizes some interesting total energy values
  at the end of a run (AFTER all relaxation, molecular dynamics, etc.).

  | Total energy of the DFT / Hartree-Fock s.c.f. calculation      :         -10415.127027865 eV
  | Final zero-broadening corrected energy (caution - metals only) :         -10415.127027865 eV
  | For reference only, the value of 1 Hartree used in FHI-aims is :             27.211384500 eV

  Before relying on these values, please be sure to understand exactly which
  total energy value is referred to by a given number. Different objects may
  all carry the same name 'total energy'. Definitions:

  Total energy of the DFT / Hartree-Fock s.c.f. calculation:
  | Note that this energy does not include ANY quantities calculated after the
  | s.c.f. cycle, in particular not ANY RPA, MP2, etc. many-body perturbation terms.

  Final zero-broadening corrected energy:
  | For metallic systems only, a broadening of the occupation numbers at the Fermi
  | level can be extrapolated back to zero broadening by an electron-gas inspired
  | formula. For all systems that are not real metals, this value can be
  | meaningless and should be avoided.

------------------------------------------------------------------------------

------------------------------------------------------------
          Leaving FHI-aims.
          Date     :  20150727, Time     :  115350.445

          Computational steps:
          | Number of self-consistency cycles          :           15

          Detailed time accounting                     :  max(cpu_time)    wall_clock(cpu1)
          | Total time                                 :       35.788 s          35.808 s
          | Preparation time                           :        0.172 s           0.583 s
          | Grid partitioning                          :        0.142 s           0.142 s
          | Preloading free-atom quantities on grid    :        0.014 s           0.014 s
          | Free-atom superposition energy             :        0.066 s           0.065 s
          | Total time for integrations                :       15.261 s          15.258 s
          | Total time for solution of K.-S. equations :        1.005 s           1.006 s
          | Total time for density & force components  :       12.247 s          12.249 s
          | Total time for mixing                      :        0.191 s           0.190 s
          | Total time for Hartree multipole update    :        0.072 s           0.074 s
          | Total time for Hartree multipole sum       :        5.915 s           5.916 s
          | Total time for total energy evaluation     :        0.002 s           0.006 s
          | Total time for scaled ZORA corrections     :        0.000 s           0.000 s
          | Total time for TS (2009) vdW correction    :        0.051 s           0.052 s

          Have a nice day.
------------------------------------------------------------
