  MPI-parallelism will be employed.
------------------------------------------------------------
          Invoking FHI-aims ...
          Version 081213
          Compiled on 2013/08/29 at 17:41:06 on host generoso.

          When using FHI-aims, please cite the following reference:

          Volker Blum, Ralf Gehrke, Felix Hanke, Paula Havu,
          Ville Havu, Xinguo Ren, Karsten Reuter, and Matthias Scheffler,
          'Ab Initio Molecular Simulations with Numeric Atom-Centered Orbitals: FHI-aims',
          Computer Physics Communications 180, 2175-2196 (2009)

          For any questions about FHI-aims, please visit the aimsclub website
          with its forums and wiki. Contributions to both the forums and the
          wiki are warmly encouraged - they are for you, and everyone is welcome there.

------------------------------------------------------------

  Date     :  20150727, Time     :  115040.089
  Time zero on CPU 1             :   0.449920000000000E-01  s.
  Internal wall clock time zero  :           207229840.089  s.

  Using        8 parallel tasks.
  Task        0 on host gen60 reporting.
  Task        1 on host gen60 reporting.
  Task        2 on host gen60 reporting.
  Task        3 on host gen60 reporting.
  Task        4 on host gen60 reporting.
  Task        5 on host gen60 reporting.
  Task        6 on host gen60 reporting.
  Task        7 on host gen60 reporting.

  Performing system and environment tests:
  | Environment variable OMP_NUM_THREADS correctly set to 1.
  | Checking for scalapack...
  | No scalapack compiled in.

  Obtaining array dimensions for all initial allocations:
  
  -----------------------------------------------------------------------
  Parsing control.in (first pass over file, find array dimensions only).
  The contents of control.in will be repeated verbatim below
  unless switched off by setting 'verbatim_writeout .false.' .
  in the first line of control.in .
  -----------------------------------------------------------------------
  
  #########################################################################################
  #
  #  Volker Blum, FHI 2008 : Test run input file control.in
  #
  #########################################################################################
  #
  #  Physical model
  #
    xc                 rpbe
    spin               none
    relativistic       atomic_zora scalar
    charge             0.
   vdw_correction_hirshfeld
  #
  #  SCF convergence
  #
    occupation_type    gaussian 0.01
    mixer              pulay
      n_max_pulay        10
      charge_mix_param   0.1
    sc_accuracy_rho    5E-5
    sc_accuracy_eev    5E-3
    sc_accuracy_etot   5E-6
    sc_iter_limit      3000
  #
  #  Eigenvalue solver
  #
    KS_method          lapack
      empty_states       8
      basis_threshold    0.e-5
  #
  #  Efficiency
  #
  #   all previous settings are now default, except stratmann still
  #   undecided. Continue to handle stratmann with care, if at all.
  #
  #  partition_type stratmann
    partition_type rho_r2
  #  hartree_partition_type stratmann
  #
  #  Oprions for large clusters (100's of atoms: memory saving / better scaling)
  #
  # for periodic systems:
  #
    density_update_method orbital
    packed_matrix_format none
  #  k_grid 6 6 6
  #  output k_eigenvalue 1
  #  distributed_spline_storage .true.
  #
  #  Relaxation
  #
  #  relax_geometry   bfgs 5.e-3
    sc_accuracy_forces 5.E-4
    final_forces_cleaned .true.
  #
  #  Output options
  #
  #  output mulliken
    output Hirshfeld
  #  output dipole
  
  #harmonic_length_scale 0.001
  
  ################################################################################
  #
  #  FHI-aims code project
  #  VB, Fritz-Haber Institut, 2007
  #
  #  Suggested "safe" defaults for H atom (to be pasted into control.in file)
  #  Basis constructed for a non-relativistic H2 molecule using the
  #  PW-LDA functional.
  #
  ################################################################################
    species        H
  #     global species definitions
      nucleus             1
      cut_pot             4.0  2.0  1.0
      cut_free_atom       finite 8.0
      logarithmic         0.00010000 100.00  1.0123
      basis_dep_cutoff    1d-4  # 1d-4 is safe default - please check 5d-4 if you wish!
      radial_base         24 7.0
      radial_multiplier   2
      angular_grids       specified
        division   0.2783  110
        division   0.3822  194
        division   0.5626  302
  #      division   0.5922  434
  #      division   0.6227  590
  #      division   0.7206  770
        outer_grid  302
      l_hartree           4
  ################################################################################
  #
  #  Definition of "minimal" basis
  #
  ################################################################################
  #     valence basis states
      valence      1  s   1.
  #     ion occupancy
      ion_occ      1  s   0.5
  ################################################################################
  #
  #  Suggested additional basis functions. For production calculations,
  #  uncomment them one after another (the most important basis functions are
  #  listed first).
  #
  ################################################################################
  #  "First tier" - improvements: -1014.90 meV to -62.69 meV
       hydro 2 s 2.1
       hydro 2 p 3.5
  #  "Second tier" - improvements: -12.89 meV to -1.83 meV
       hydro 1 s 0.85
       hydro 2 p 3.7
       hydro 2 s 1.2
       hydro 3 d 7
  #  "Third tier" - improvements: -0.25 meV to -0.12 meV
  #     hydro 4 f 11.2
  #     hydro 3 p 4.8
  #     hydro 4 d 9
  #     hydro 3 s 3.2
  
  ################################################################################
  #
  #  FHI-aims code project
  #  VB, Fritz-Haber Institut, 2007
  #
  #  Suggested "safe" defaults for O atom (to be pasted into control.in file)
  #  All values have been tested for a non-relativistic, non-spinpolarized O2
  #  molecule using the PW-LDA functional. Validity for PBE is expected.
  #
  #  Constructed for dimers: 1.0 A, 1.208 A, 1.5 A, 2.0 A, 3.0 A
  #
  ################################################################################
    species        O
  #     global species definitions
      nucleus             8
      mass                15.9994
      l_hartree           4
      cut_pot             4.0  2.0  1.0
      cut_free_atom       finite 8.0
      basis_dep_cutoff    1d-4  # 1d-4 is safe default - please check 5d-4 if you wish!
      logarithmic         0.00010000 100.00  1.0123
      radial_base         36 7.0
      radial_multiplier   2
       angular_grids specified
        division   0.4087  110
        division   0.5181  194
        division   0.6184  302
  #      division   0.7315  434
  #      division   0.7934  590
  #      division   0.9656  770
  #      division   1.4041  974
  #      outer_grid 974
        outer_grid 302
  ################################################################################
  #
  #  Definition of "minimal" basis
  #
  ################################################################################
  #     valence basis states
      valence      2  s   2.
      valence      2  p   4.
  #     ion occupancy
      ion_occ      2  s   1.
      ion_occ      2  p   3.
  ################################################################################
  #
  #  Suggested additional basis functions. For production calculations,
  #  uncomment them one after another (the most important basis functions are
  #  listed first).
  #
  ################################################################################
  #  "First tier" - improvements: -699.05 meV to -159.38 meV
       hydro 2 p 1.8
       hydro 3 d 7.6
       hydro 3 s 6.4
  #  "Second tier" - improvements: -49.91 meV to -5.39 meV
       hydro 4 f 11.6
       hydro 3 p 6.2
       hydro 3 d 5.6
       hydro 5 g 17.6
       hydro 1 s 0.75
  #  "Third tier" - improvements: -2.83 meV to -0.50 meV
  #     ionic 2 p auto
  #     hydro 4 f 10.8
  #     hydro 4 d 4.7
  #     hydro 2 s 6.8
  #  "Fourth tier" - improvements: -0.40 meV to -0.12 meV
  #     hydro 3 p 5
  #     hydro 3 s 3.3
  #     hydro 5 g 15.6
  #     hydro 4 f 17.6
  #     hydro 4 d 14
  # Further basis functions - -0.08 meV and below
  #     hydro 3 s 2.1
  #     hydro 4 d 11.6
  #     hydro 3 p 16
  #     hydro 2 s 17.2
  
  
  -----------------------------------------------------------------------
  Completed first pass over input file control.in .
  -----------------------------------------------------------------------
  
  
  -----------------------------------------------------------------------
  Parsing geometry.in (first pass over file, find array dimensions only).
  The contents of geometry.in will be repeated verbatim below
  unless switched off by setting 'verbatim_writeout .false.' .
  in the first line of geometry.in .
  -----------------------------------------------------------------------
  
  atom      -4.053030000      0.065001000     -1.525160000  O
  atom      -4.566710000      0.974813000     -1.912820000  H
  atom      -3.067820000      0.330172000     -1.477310000  H
  atom      -4.581760000     -0.256435000      0.939478000  O
  atom      -4.349860000      0.471090000      1.504340000  H
  atom      -5.393870000     -0.726611000      1.228070000  H
  atom      -5.293160000      2.192130000     -2.328800000  O
  atom      -4.829300000      2.988660000     -1.973850000  H
  atom      -5.428570000      2.328640000     -3.235170000  H
  atom      -3.818880000      2.024990000      2.187990000  O
  atom      -3.690880000      1.961360000      3.202150000  H
  atom      -4.546490000      2.751300000      2.045370000  H
  atom      -4.066610000      4.258280000     -0.900064000  O
  atom      -3.224110000      3.876870000     -0.569443000  H
  atom      -3.737450000      5.116530000     -1.322720000  H
  
  -----------------------------------------------------------------------
  Completed first pass over input file geometry.in .
  -----------------------------------------------------------------------
  
 
  Basic array size parameters: 
  | Number of species                 :        2
  | Number of atoms                   :       15
  | Max. basis fn. angular momentum   :        4
  | Max. atomic/ionic basis occupied n:        2
  | Max. number of basis fn. types    :        2
  | Max. radial fns per species/type  :        8
  | Max. logarithmic grid size        :     1301
  | Max. radial integration grid size :       73
  | Max. angular integration grid size:      302
  | Max. angular grid division number :        8
  | Radial grid for Hartree potential :     1301
  | Number of spin channels           :        1

------------------------------------------------------------
          Reading file control.in.
------------------------------------------------------------
  XC: Using RPBE gradient-corrected functionals.
  Spin treatment: No spin polarisation.
  Scalar relativistic treatment of kinetic energy: on-site free-atom approximation to ZORA.
  Charge =   0.000000E+00: Neutral system requested explicitly.
  Using non-empirical van der Waals correction (Hirshfeld partitioning):
  Occupation type: Gaussian broadening, width =   0.100000E-01 eV.
  Using pulay charge density mixing.
  Pulay mixing - number of memorized iterations:   10
  Charge density mixing - mixing parameter:     0.1000
  Convergence accuracy of self-consistent charge density: 0.5000E-04
  Convergence accuracy of sum of eigenvalues: 0.5000E-02
  Convergence accuracy of total energy: 0.5000E-05
  Maximum number of s.-c. iterations  :  3000
  Kohn-Sham eigenvalues and eigenfunctions calculated by lapack diagonalisation (D&C).
  Number of empty states per atom:        8
  Threshold for basis singularities: 0.0000E+00
  Partition function in integrals calculations: rho / r^2
 Using packed matrix format           0
  Convergence accuracy of forces: 0.5000E-03
  Cleaning forces before final output.
  Hirshfeld charge analysis will be performed.
 
  Reading configuration options for species H                   .
  | Found nuclear charge :   1.0000
  | Found cutoff potl. onset [A], width [A], scale factor :    4.00000    2.00000    1.00000
  | Found cutoff specification for free atom: Cutoff potential begins at    8.00000 A.
  | Found logarithmic grid data [bohr] : 0.1000E-03 0.1000E+03 0.1012E+01
  | Threshold for basis-dependent cutoff potential is   0.100000E-03
  | Found data for basic radial integration grid :    24 points, outermost radius =    7.000 A
  | Found multiplier for basic radial grid :   2
  | Found angular grid specification: user-specified.
  | Specified grid contains     4 separate shells.
  | Check grid settings after all constraints further below.
  | Found l_max for Hartree potential  :   4
  | Found free-atom valence shell :  1 s   1.000
  | No ionic wave fns used. Skipping ion_occ.
  | Found hydrogenic basis function :  2 s   2.100
  | Found hydrogenic basis function :  2 p   3.500
  | Found hydrogenic basis function :  1 s   0.850
  | Found hydrogenic basis function :  2 p   3.700
  | Found hydrogenic basis function :  2 s   1.200
  | Found hydrogenic basis function :  3 d   7.000
  Species H                   : Missing cutoff potential type.
  Defaulting to exp(1/x)/(1-x)^2 type cutoff potential.
  Species H : On-site basis accuracy parameter (for Gram-Schmidt orthonormalisation) not specified.
  Using default value basis_acc =  0.1000000E-03.
  Species H                   : Using default innermost maximum threshold i_radial=  2 for radial functions.
  Species H                   : Basic radial grid will be enhanced according to radial_multiplier =   2, to contain    49 grid points.
 
  Reading configuration options for species O                   .
  | Found nuclear charge :   8.0000
  | Found atomic mass :    15.9994000000000      amu
  | Found l_max for Hartree potential  :   4
  | Found cutoff potl. onset [A], width [A], scale factor :    4.00000    2.00000    1.00000
  | Found cutoff specification for free atom: Cutoff potential begins at    8.00000 A.
  | Threshold for basis-dependent cutoff potential is   0.100000E-03
  | Found logarithmic grid data [bohr] : 0.1000E-03 0.1000E+03 0.1012E+01
  | Found data for basic radial integration grid :    36 points, outermost radius =    7.000 A
  | Found multiplier for basic radial grid :   2
  | Found angular grid specification: user-specified.
  | Specified grid contains     4 separate shells.
  | Check grid settings after all constraints further below.
  | Found free-atom valence shell :  2 s   2.000
  | Found free-atom valence shell :  2 p   4.000
  | No ionic wave fns used. Skipping ion_occ.
  | No ionic wave fns used. Skipping ion_occ.
  | Found hydrogenic basis function :  2 p   1.800
  | Found hydrogenic basis function :  3 d   7.600
  | Found hydrogenic basis function :  3 s   6.400
  | Found hydrogenic basis function :  4 f  11.600
  | Found hydrogenic basis function :  3 p   6.200
  | Found hydrogenic basis function :  3 d   5.600
  | Found hydrogenic basis function :  5 g  17.600
  | Found hydrogenic basis function :  1 s   0.750
  Species O                   : Missing cutoff potential type.
  Defaulting to exp(1/x)/(1-x)^2 type cutoff potential.
  Species O : On-site basis accuracy parameter (for Gram-Schmidt orthonormalisation) not specified.
  Using default value basis_acc =  0.1000000E-03.
  Species O                   : Using default innermost maximum threshold i_radial=  2 for radial functions.
  Species O                   : Basic radial grid will be enhanced according to radial_multiplier =   2, to contain    73 grid points.
 
  Finished reading input file 'control.in'. Consistency checks are next.
 
  Target number of points in a grid batch is not set. Defaulting to  100
  Method for grid partitioning is not set. Defaulting to parallel hash+maxmin partitioning.
  Batch size limit is not set. Defaulting to    200
  By default, will store active basis functions for each batch.
  If in need of memory, prune_basis_once .false. can be used to disable this option.
  communication_type for Hartree potential was not specified.
  Defaulting to calc_hartree .
  Pulay mixer: Number of initial linear mixing iterations not set.
  Defaulting to    0 iterations.
  Work space size for distributed Hartree potential not set.
  Defaulting to   0.200000E+03 MB.
  Algorithm-dependent basis array size parameters:
  | n_max_pulay                         :       10
  Geometry relaxation not requested: no relaxation will be performed.
  Handling of forces: Unphysical translation and rotation will be removed from forces.
  No accuracy limit for integral partition fn. given. Defaulting to 0.1000E-14.
  No threshold value for u(r) in integrations given. Defaulting to 0.1000E-05.
  No accuracy for occupation numbers given. Defaulting to 0.1000E-07.
  No threshold value for occupation numbers given. Defaulting to 0.0000E+00.
  No accuracy for fermi level given. Defaulting to 0.1000E-19.
  Maximum # of iterations to find E_F not set. Defaulting to  200.
  Will not use alltoall communication since running on < 1024 CPUs.
  Partitioning for Hartree potential was not defined. Using partition_type for integrals.
  | Reporting present value of keyword multip_moments_threshold  :       0.10000000E-09
  | This value may affect high angular momentum components of the Hartree potential in periodic systems.
  No q(lm)/r^(l+1) cutoff set for long-range Hartree potential.
  | Using default value of  0.100000E-09 .
  | Verify using the multipole_threshold keyword.
  Defaulting to new monopole extrapolation.
  Density update method: Loop over occupied states selected for charge density update.
------------------------------------------------------------


------------------------------------------------------------
          Reading geometry description geometry.in.
------------------------------------------------------------
  Input structure read successfully.
  The structure contains       15 atoms,  and a total of         50.000 electrons.

  Input geometry:
  | No unit cell requested.
  | Atomic structure:
  |       Atom                x [A]            y [A]            z [A]
  |    1: Species O             -4.053030         0.065001        -1.525160
  |    2: Species H             -4.566710         0.974813        -1.912820
  |    3: Species H             -3.067820         0.330172        -1.477310
  |    4: Species O             -4.581760        -0.256435         0.939478
  |    5: Species H             -4.349860         0.471090         1.504340
  |    6: Species H             -5.393870        -0.726611         1.228070
  |    7: Species O             -5.293160         2.192130        -2.328800
  |    8: Species H             -4.829300         2.988660        -1.973850
  |    9: Species H             -5.428570         2.328640        -3.235170
  |   10: Species O             -3.818880         2.024990         2.187990
  |   11: Species H             -3.690880         1.961360         3.202150
  |   12: Species H             -4.546490         2.751300         2.045370
  |   13: Species O             -4.066610         4.258280        -0.900064
  |   14: Species H             -3.224110         3.876870        -0.569443
  |   15: Species H             -3.737450         5.116530        -1.322720
  |

  | The smallest distance between any two atoms is         0.92654057 AA.
  |
  | The first atom of this pair is atom number                      7 .
  | The second atom of this pair is atom number                     9 .

  Structure-dependent array size parameters: 
  | Maximum number of distinct radial functions  :       18
  | Maximum number of basis functions            :      345
  | Number of Kohn-Sham states (occupied + empty):       85
------------------------------------------------------------

------------------------------------------------------------
          Preparing all fixed parts of the calculation.
------------------------------------------------------------
  Determining machine precision:
    2.225073858507201E-308
  Setting up grids for atomic and cluster calculations.

  Creating wave function, potential, and density for free atoms.

  Species: H

  List of occupied orbitals and eigenvalues:
    n    l              occ      energy [Ha]    energy [eV]
    1    0           1.0000        -0.241408        -6.5691


  Species: O

  List of occupied orbitals and eigenvalues:
    n    l              occ      energy [Ha]    energy [eV]
    1    0           2.0000       -18.944147      -515.4965
    2    0           2.0000        -0.883529       -24.0421
    2    1           4.0000        -0.330176        -8.9845

  Creating fixed part of basis set: Ionic, confined, hydrogenic.
 
  H                    hydrogenic:
 
  List of hydrogenic basis orbitals: 
    n    l      effective z      eigenvalue [eV]  inner max. [A]     outer max. [A]     outer radius [A]   
    2    0         2.100000       -14.9965           0.193241           1.317192           5.372934
    2    1         3.500000       -41.6672           0.602363           0.602363           4.056010
    1    0         0.850000        -9.8292           0.624864           0.624864           5.372934
    2    1         3.700000       -46.5653           0.573616           0.573616           3.909951
    2    0         1.200000        -4.5995           0.334977           2.228160           5.505921
    3    2         7.000000       -74.0753           0.680692           0.680692           3.769152
 
 
  O                    hydrogenic:
 
  List of hydrogenic basis orbitals: 
    n    l      effective z      eigenvalue [eV]  inner max. [A]     outer max. [A]     outer radius [A]   
    2    1         1.800000       -11.0118           1.178546           1.178546           5.432516
    3    2         7.600000       -87.3182           0.624117           0.624117           3.541422
    3    0         6.400000       -61.9209           0.061166           1.081887           4.306510
    4    3        11.600000      -114.4238           0.731621           0.731621           3.584982
    3    1         6.200000       -58.1113           0.255677           1.030255           4.306510
    3    2         5.600000       -47.4081           0.847222           0.847222           4.413102
    5    4        17.600000      -168.5799           0.749730           0.749730           3.372413
    1    0         0.750000        -7.6499           0.705275           0.705275           5.366508
 

  Adding cutoff potential to free-atom effective potential.
  Creating atomic-like basis functions for current effective potential.

  Species H                   :

  List of atomic basis orbitals and eigenvalues:
    n    l      energy [Ha]    energy [eV]    outer radius [A]
    1    0        -0.241374        -6.5681       5.372934


  Species O                   :

  List of atomic basis orbitals and eigenvalues:
    n    l      energy [Ha]    energy [eV]    outer radius [A]
    1    0       -18.944147      -515.4965       1.415745
    2    0        -0.883529       -24.0421       5.048305
    2    1        -0.330173        -8.9845       5.301302

  Assembling full basis from fixed parts.
  | Species H :   atomic orbital   1 s accepted.
  | Species H :    hydro orbital   2 s accepted.
  | Species H :    hydro orbital   1 s accepted.
  | Species H :    hydro orbital   2 s accepted.
  | Species H :    hydro orbital   2 p accepted.
  | Species H :    hydro orbital   2 p accepted.
  | Species H :    hydro orbital   3 d accepted.
  | Species O :   atomic orbital   1 s accepted.
  | Species O :    hydro orbital   3 s accepted.
  | Species O :   atomic orbital   2 s accepted.
  | Species O :    hydro orbital   1 s accepted.
  | Species O :    hydro orbital   3 p accepted.
  | Species O :   atomic orbital   2 p accepted.
  | Species O :    hydro orbital   2 p accepted.
  | Species O :    hydro orbital   3 d accepted.
  | Species O :    hydro orbital   3 d accepted.
  | Species O :    hydro orbital   4 f accepted.
  | Species O :    hydro orbital   5 g accepted.
 
  Basis size parameters after reduction:
  | Total number of radial functions:       18
  | Total number of basis functions :      345
 
  Testing on-site integration grid accuracy.
  |  Species  Function  <phi|h_atom|phi> (log., in eV)  <phi|h_atom|phi> (rad., in eV)
           1        1                 -6.5683835025                 -6.5684759159
           1        2                 13.3711789951                 13.3708738703
           1        3                 23.6590910787                 23.6532055418
           1        4                 16.2963827186                 16.1870710655 ***
           1        5                 28.7627214838                 28.7627215090
           1        6                 59.5965249172                 59.5965950857
           1        7                 60.2220506392                 60.2220503827
           2        8               -515.4964576505               -515.4964530710
           2        9                 15.3030791347                 15.3030722972
           2       10                -21.7296094581                -21.7296135470
           2       11                 14.2969371730                 14.2969701621
           2       12                 21.0679693190                 21.0679697493
           2       13                 -2.3833606469                 -2.3833613176
           2       14                 13.7067136422                 13.7066766629
           2       15                 45.8013116808                 45.8013116965
           2       16                 52.2309815402                 52.2309831494
           2       17                 85.4120732416                 85.4120732763
           2       18                142.1019167745                142.1019167817
 * Note: Onsite integrals marked "***" above are less accurate than
 * onsite_accuracy_threshold =    0.03000 eV. Usually, this is harmless.
 * When in doubt, tighten the "radial" and/or "radial_multiplier" flags to check.

  Preparing densities etc. for the partition functions (integrals / Hartree potential).

  Preparations completed.
  max(cpu_time)          :      0.171 s.
  Wall clock time (cpu1) :      0.562 s.
------------------------------------------------------------

------------------------------------------------------------
          Begin self-consistency loop: Initialization.

          Date     :  20150727, Time     :  115040.679
------------------------------------------------------------

  Initializing index lists of integration centers etc. from given atomic structure:
  | Number of centers in hartree potential         :        15
  | Number of centers in hartree multipole         :        15
  | Number of centers in electron density summation:        15
  | Number of centers in basis integrals           :        15
  | Number of centers in integrals                 :        15
  Partitioning the integration grid into batches with parallel hashing+maxmin method.
  | Number of batches:     1928
  | Maximal batch size:     200
  | Minimal batch size:      49
  | Average batch size:     102.028
  | Standard deviation of batch sizes:      22.538

  Integration load balanced across     8 MPI tasks.
  Work distribution over tasks is as follows:
  Task     0 has      24556 integration points.
  Task     1 has      24555 integration points.
  Task     2 has      24634 integration points.
  Task     3 has      24539 integration points.
  Task     4 has      24609 integration points.
  Task     5 has      24584 integration points.
  Task     6 has      24649 integration points.
  Task     7 has      24584 integration points.
  Initializing partition tables, free-atom densities, potentials, etc. across the integration grid (initialize_grid_storage).
  | Net number of integration points:   196710
  | of which are non-zero points    :   196164
  Obtaining max. number of non-zero basis functions in each batch (get_n_compute_maxes).
  | Maximal number of non-zero basis functions:      341 in task     0
  | Maximal number of non-zero basis functions:      341 in task     1
  | Maximal number of non-zero basis functions:      341 in task     2
  | Maximal number of non-zero basis functions:      342 in task     3
  | Maximal number of non-zero basis functions:      342 in task     4
  | Maximal number of non-zero basis functions:      342 in task     5
  | Maximal number of non-zero basis functions:      342 in task     6
  | Maximal number of non-zero basis functions:      342 in task     7
  Integrating Hamiltonian matrix: batch-based integration.
  Time summed over all CPUs for integration: real work        7.025 s, elapsed        7.141 s
  Integrating overlap matrix.
  Time summed over all CPUs for integration: real work        3.782 s, elapsed        3.865 s

  Updating Kohn-Sham eigenvalues, eigenvectors, occupation numbers, and Fermi level.
  Solving generalized eigenproblem
  Updating Kohn-Sham eigenvalues and eigenfunctions.
  Transforming overlap matrix and checking for singularities.
  Overlap matrix is nonsingular:
  | Lowest eigenvalue:  0.300478E-03
  Solving real generalised eigenvalue problem by standard LAPACK (fast)
  Determining occupation numbers for Kohn-Sham eigenstates.
  | Chemical potential (Fermi level) in eV                 : -.42175108E+01
  | Error in electron count due to remaining E_F inaccuracy: 0.00000000E+00
  | Maximum occupation number of highest empty state:  0.00E+00

  Writing Kohn-Sham eigenvalues.

  State    Occupation    Eigenvalue [Ha]    Eigenvalue [eV]
      1       2.00000         -19.064896         -518.78223
      2       2.00000         -19.052080         -518.43348
      3       2.00000         -19.042865         -518.18271
      4       2.00000         -19.032043         -517.88825
      5       2.00000         -19.019668         -517.55150
      6       2.00000          -1.122106          -30.53406
      7       2.00000          -1.100231          -29.93881
      8       2.00000          -1.086699          -29.57058
      9       2.00000          -1.064244          -28.95956
     10       2.00000          -1.043465          -28.39413
     11       2.00000          -0.653280          -17.77665
     12       2.00000          -0.648419          -17.64438
     13       2.00000          -0.606082          -16.49232
     14       2.00000          -0.597213          -16.25100
     15       2.00000          -0.593809          -16.15836
     16       2.00000          -0.528213          -14.37340
     17       2.00000          -0.510498          -13.89135
     18       2.00000          -0.506718          -13.78850
     19       2.00000          -0.492323          -13.39679
     20       2.00000          -0.479484          -13.04741
     21       2.00000          -0.441391          -12.01085
     22       2.00000          -0.438762          -11.93932
     23       2.00000          -0.433588          -11.79853
     24       2.00000          -0.424461          -11.55018
     25       2.00000          -0.402482          -10.95209
     26       0.00000          -0.096210           -2.61802
     27       0.00000          -0.072320           -1.96792
     28       0.00000          -0.056843           -1.54677
     29       0.00000          -0.037702           -1.02593
     30       0.00000          -0.036316           -0.98820
     31       0.00000          -0.014624           -0.39795
     32       0.00000           0.000526            0.01431
     33       0.00000           0.038484            1.04720
     34       0.00000           0.039987            1.08809
     35       0.00000           0.054091            1.47190
     36       0.00000           0.076824            2.09049
     37       0.00000           0.080885            2.20098
     38       0.00000           0.094290            2.56577
     39       0.00000           0.098295            2.67474
     40       0.00000           0.101792            2.76989
     41       0.00000           0.103872            2.82649
     42       0.00000           0.111066            3.02225
     43       0.00000           0.118845            3.23394
     44       0.00000           0.122257            3.32679
     45       0.00000           0.132825            3.61435
     46       0.00000           0.138231            3.76145
     47       0.00000           0.150201            4.08718
     48       0.00000           0.158098            4.30207
     49       0.00000           0.166866            4.54065
     50       0.00000           0.189048            5.14425
     51       0.00000           0.195932            5.33159
     52       0.00000           0.221729            6.03357
     53       0.00000           0.233162            6.34466
     54       0.00000           0.237936            6.47456
     55       0.00000           0.253464            6.89710
     56       0.00000           0.265191            7.21621
     57       0.00000           0.278266            7.57199
     58       0.00000           0.284082            7.73026
     59       0.00000           0.300862            8.18686
     60       0.00000           0.329701            8.97163
     61       0.00000           0.332007            9.03437
     62       0.00000           0.356264            9.69444
     63       0.00000           0.364895            9.92930
     64       0.00000           0.383025           10.42263
     65       0.00000           0.386972           10.53005
     66       0.00000           0.389835           10.60795
     67       0.00000           0.417983           11.37391
     68       0.00000           0.428218           11.65240
     69       0.00000           0.433695           11.80144
     70       0.00000           0.442730           12.04729
     71       0.00000           0.446595           12.15248
     72       0.00000           0.456864           12.43190
     73       0.00000           0.488669           13.29736
     74       0.00000           0.502387           13.67065
     75       0.00000           0.528327           14.37651
     76       0.00000           0.540376           14.70437
     77       0.00000           0.550472           14.97910
     78       0.00000           0.568847           15.47912
     79       0.00000           0.576161           15.67813
     80       0.00000           0.594602           16.17994
     81       0.00000           0.603879           16.43238
     82       0.00000           0.655840           17.84632
     83       0.00000           0.693493           18.87090
     84       0.00000           0.705359           19.19380
     85       0.00000           0.720945           19.61791

  Highest occupied state (VBM) at    -10.95208530 eV
  | Occupation number:      2.00000000

  Lowest unoccupied state (CBM) at    -2.61801610 eV
  | Occupation number:      0.00000000

  Overall HOMO-LUMO gap:      8.33406920 eV.
  Calculating total energy contributions from superposition of free atom densities.

  Total energy components:
  | Sum of eigenvalues            :        -216.77003766 Ha       -5898.61284296 eV
  | XC energy correction          :         -45.55217741 Ha       -1239.53781440 eV
  | XC potential correction       :          58.20471644 Ha        1583.83091878 eV
  | Free-atom electrostatic energy:        -178.96199348 Ha       -4869.80361552 eV
  | Hartree energy correction     :           0.00000000 Ha           0.00000000 eV
  | van der Waals energy corr.    :           0.00000000 Ha           0.00000000 eV
  | Entropy correction            :           0.00000000 Ha           0.00000000 eV
  | ---------------------------
  | Total energy                  :        -383.07949212 Ha      -10424.12335410 eV
  | Total energy, T -> 0          :        -383.07949212 Ha      -10424.12335410 eV  <-- do not rely on this value for anything but (periodic) metals
  | Electronic free energy        :        -383.07949212 Ha      -10424.12335410 eV

  Derived energy quantities:
  | Kinetic energy                :         379.12394421 Ha       10316.48741905 eV
  | Electrostatic energy          :        -716.65125892 Ha      -19501.07295875 eV
  | Energy correction for multipole
  | error in Hartree potential    :           0.00000000 Ha           0.00000000 eV
  | Sum of eigenvalues per atom                           :        -393.24085620 eV
  | Total energy (T->0) per atom                          :        -694.94155694 eV  <-- do not rely on this value for anything but (periodic) metals
  | Electronic free energy per atom                       :        -694.94155694 eV
  Initialize hartree_potential_storage
  Max. number of atoms included in rho_multipole:           15

  End scf initialization - timings             :  max(cpu_time)    wall_clock(cpu1)
  | Time for scf. initialization               :        1.914 s           1.914 s
  | Boundary condition initialization          :        0.000 s           0.000 s
  | Integration                                :        1.380 s           1.380 s
  | Solution of K.-S. eqns.                    :        0.197 s           0.197 s
  | Grid partitioning                          :        0.122 s           0.122 s
  | Preloading free-atom quantities on grid    :        0.014 s           0.013 s
  | Free-atom superposition energy             :        0.066 s           0.067 s
  | Total energy evaluation                    :        0.001 s           0.000 s
------------------------------------------------------------

------------------------------------------------------------
          Begin self-consistency iteration #    1

  Date     :  20150727, Time     :  115042.593
------------------------------------------------------------
  Evaluating new KS density.
  Integration grid: deviation in total charge (<rho> - N_e) =   1.421085E-14
  Pulay mixing of updated and previous charge densities.

  Evaluating partitioned Hartree potential by multipole expansion.
  | Analytical far-field extrapolation by fixed multipoles:
  | Hartree multipole sum: apparent total charge =  -0.194802E-05
  Summing up the Hartree potential.
  Time summed over all CPUs for potential: real work        2.567 s, elapsed        2.575 s
  | RMS charge density error from multipole expansion :   0.161005E-02

  Integrating Hamiltonian matrix: batch-based integration.
  Time summed over all CPUs for integration: real work        7.004 s, elapsed        7.107 s

  Updating Kohn-Sham eigenvalues, eigenvectors, occupation numbers, and Fermi level.
  Solving generalized eigenproblem
  Updating Kohn-Sham eigenvalues and eigenfunctions.
  Solving real generalised eigenvalue problem by standard LAPACK (fast)
  Determining occupation numbers for Kohn-Sham eigenstates.
  | Chemical potential (Fermi level) in eV                 : -.37722956E+01
  | Error in electron count due to remaining E_F inaccuracy: 0.00000000E+00
  | Maximum occupation number of highest empty state:  0.00E+00

  Writing Kohn-Sham eigenvalues.

  State    Occupation    Eigenvalue [Ha]    Eigenvalue [eV]
      1       2.00000         -18.992245         -516.80527
      2       2.00000         -18.976662         -516.38124
      3       2.00000         -18.964686         -516.05537
      4       2.00000         -18.958886         -515.89753
      5       2.00000         -18.927357         -515.03959
      6       2.00000          -1.086287          -29.55939
      7       2.00000          -1.056209          -28.74090
      8       2.00000          -1.050694          -28.59085
      9       2.00000          -1.030535          -28.04229
     10       2.00000          -0.991671          -26.98474
     11       2.00000          -0.621951          -16.92414
     12       2.00000          -0.604277          -16.44322
     13       2.00000          -0.580687          -15.80129
     14       2.00000          -0.566971          -15.42808
     15       2.00000          -0.557786          -15.17814
     16       2.00000          -0.488497          -13.29267
     17       2.00000          -0.474953          -12.92414
     18       2.00000          -0.465857          -12.67661
     19       2.00000          -0.451647          -12.28994
     20       2.00000          -0.436045          -11.86540
     21       2.00000          -0.401097          -10.91440
     22       2.00000          -0.395792          -10.77004
     23       2.00000          -0.389556          -10.60035
     24       2.00000          -0.385186          -10.48144
     25       2.00000          -0.347925           -9.46751
     26       0.00000          -0.088606           -2.41108
     27       0.00000          -0.065328           -1.77767
     28       0.00000          -0.045803           -1.24637
     29       0.00000          -0.028801           -0.78371
     30       0.00000          -0.025378           -0.69057
     31       0.00000          -0.008031           -0.21853
     32       0.00000           0.007357            0.20020
     33       0.00000           0.047238            1.28542
     34       0.00000           0.051308            1.39616
     35       0.00000           0.063406            1.72536
     36       0.00000           0.088091            2.39707
     37       0.00000           0.091983            2.50298
     38       0.00000           0.103935            2.82822
     39       0.00000           0.109678            2.98448
     40       0.00000           0.111909            3.04519
     41       0.00000           0.115116            3.13248
     42       0.00000           0.123659            3.36493
     43       0.00000           0.128958            3.50911
     44       0.00000           0.133204            3.62466
     45       0.00000           0.146192            3.97809
     46       0.00000           0.154709            4.20984
     47       0.00000           0.160226            4.35996
     48       0.00000           0.168145            4.57545
     49       0.00000           0.177547            4.83130
     50       0.00000           0.200976            5.46883
     51       0.00000           0.208399            5.67082
     52       0.00000           0.231897            6.31025
     53       0.00000           0.241298            6.56604
     54       0.00000           0.251495            6.84352
     55       0.00000           0.262332            7.13842
     56       0.00000           0.273888            7.45287
     57       0.00000           0.291667            7.93665
     58       0.00000           0.294750            8.02056
     59       0.00000           0.312980            8.51663
     60       0.00000           0.338764            9.21823
     61       0.00000           0.344589            9.37674
     62       0.00000           0.367731           10.00646
     63       0.00000           0.372824           10.14505
     64       0.00000           0.393177           10.69888
     65       0.00000           0.397602           10.81929
     66       0.00000           0.400429           10.89622
     67       0.00000           0.431075           11.73014
     68       0.00000           0.438235           11.92498
     69       0.00000           0.441397           12.01103
     70       0.00000           0.450406           12.25616
     71       0.00000           0.457605           12.45207
     72       0.00000           0.466618           12.69731
     73       0.00000           0.500306           13.61401
     74       0.00000           0.514398           13.99749
     75       0.00000           0.537040           14.61361
     76       0.00000           0.554706           15.09432
     77       0.00000           0.566174           15.40637
     78       0.00000           0.581271           15.81718
     79       0.00000           0.588939           16.02585
     80       0.00000           0.613375           16.69077
     81       0.00000           0.619293           16.85181
     82       0.00000           0.668717           18.19672
     83       0.00000           0.707776           19.25957
     84       0.00000           0.719525           19.57928
     85       0.00000           0.734699           19.99217

  Highest occupied state (VBM) at     -9.46751393 eV
  | Occupation number:      2.00000000

  Lowest unoccupied state (CBM) at    -2.41107884 eV
  | Occupation number:      0.00000000

  Overall HOMO-LUMO gap:      7.05643508 eV.

  Total energy components:
  | Sum of eigenvalues            :        -214.40691838 Ha       -5834.30909554 eV
  | XC energy correction          :         -45.79399181 Ha       -1246.11791905 eV
  | XC potential correction       :          58.52118954 Ha        1592.44258987 eV
  | Free-atom electrostatic energy:        -178.96199348 Ha       -4869.80361552 eV
  | Hartree energy correction     :          -2.28824319 Ha         -62.26626536 eV
  | van der Waals energy corr.    :           0.00000000 Ha           0.00000000 eV
  | Entropy correction            :           0.00000000 Ha           0.00000000 eV
  | ---------------------------
  | Total energy                  :        -382.92995733 Ha      -10420.05430560 eV
  | Total energy, T -> 0          :        -382.92995733 Ha      -10420.05430560 eV  <-- do not rely on this value for anything but (periodic) metals
  | Electronic free energy        :        -382.92995733 Ha      -10420.05430560 eV

  Derived energy quantities:
  | Kinetic energy                :         380.56135076 Ha       10355.60124130 eV
  | Electrostatic energy          :        -717.69731628 Ha      -19529.53762785 eV
  | Energy correction for multipole
  | error in Hartree potential    :          -0.00002550 Ha          -0.00069396 eV
  | Sum of eigenvalues per atom                           :        -388.95393970 eV
  | Total energy (T->0) per atom                          :        -694.67028704 eV  <-- do not rely on this value for anything but (periodic) metals
  | Electronic free energy per atom                       :        -694.67028704 eV

  Self-consistency convergence accuracy:
  | Change of charge density      : 0.6634E+00
  | Change of sum of eigenvalues  : 0.6430E+02 eV
  | Change of total energy        : 0.4069E+01 eV

  End self-consistency iteration #     1       :  max(cpu_time)    wall_clock(cpu1)
  | Time for this iteration                    :        1.908 s           1.907 s
  | Charge density update                      :        0.632 s           0.632 s
  | Density mixing                             :        0.004 s           0.003 s
  | Hartree multipole update                   :        0.005 s           0.005 s
  | Hartree multipole summation                :        0.322 s           0.323 s
  | Integration                                :        0.890 s           0.890 s
  | Solution of K.-S. eqns.                    :        0.054 s           0.053 s
  | Total energy evaluation                    :        0.000 s           0.000 s
------------------------------------------------------------

------------------------------------------------------------
          Begin self-consistency iteration #    2

  Date     :  20150727, Time     :  115044.501
------------------------------------------------------------
  Evaluating new KS density.
  Integration grid: deviation in total charge (<rho> - N_e) =   0.000000E+00
  Pulay mixing of updated and previous charge densities.

  Evaluating partitioned Hartree potential by multipole expansion.
  | Analytical far-field extrapolation by fixed multipoles:
  | Hartree multipole sum: apparent total charge =  -0.551759E-05
  Summing up the Hartree potential.
  Time summed over all CPUs for potential: real work        2.566 s, elapsed        2.574 s
  | RMS charge density error from multipole expansion :   0.641690E-02

  Integrating Hamiltonian matrix: batch-based integration.
  Time summed over all CPUs for integration: real work        7.004 s, elapsed        7.096 s

  Updating Kohn-Sham eigenvalues, eigenvectors, occupation numbers, and Fermi level.
  Solving generalized eigenproblem
  Updating Kohn-Sham eigenvalues and eigenfunctions.
  Solving real generalised eigenvalue problem by standard LAPACK (fast)
  Determining occupation numbers for Kohn-Sham eigenstates.
  | Chemical potential (Fermi level) in eV                 : -.26575123E+01
  | Error in electron count due to remaining E_F inaccuracy: 0.00000000E+00
  | Maximum occupation number of highest empty state:  0.00E+00

  Highest occupied state (VBM) at     -5.91980065 eV
  | Occupation number:      2.00000000

  Lowest unoccupied state (CBM) at    -1.99527829 eV
  | Occupation number:      0.00000000

  Overall HOMO-LUMO gap:      3.92452236 eV.

  Total energy components:
  | Sum of eigenvalues            :        -208.84448983 Ha       -5682.94771354 eV
  | XC energy correction          :         -46.38607374 Ha       -1262.22928788 eV
  | XC potential correction       :          59.29544856 Ha        1613.51124984 eV
  | Free-atom electrostatic energy:        -178.96199348 Ha       -4869.80361552 eV
  | Hartree energy correction     :          -7.85873985 Ha        -213.84719162 eV
  | van der Waals energy corr.    :           0.00000000 Ha           0.00000000 eV
  | Entropy correction            :           0.00000000 Ha           0.00000000 eV
  | ---------------------------
  | Total energy                  :        -382.75584834 Ha      -10415.31655872 eV
  | Total energy, T -> 0          :        -382.75584834 Ha      -10415.31655872 eV  <-- do not rely on this value for anything but (periodic) metals
  | Electronic free energy        :        -382.75584834 Ha      -10415.31655872 eV

  Derived energy quantities:
  | Kinetic energy                :         383.42295448 Ha       10433.46944039 eV
  | Electrostatic energy          :        -719.79272908 Ha      -19586.55671123 eV
  | Energy correction for multipole
  | error in Hartree potential    :          -0.00089550 Ha          -0.02436779 eV
  | Sum of eigenvalues per atom                           :        -378.86318090 eV
  | Total energy (T->0) per atom                          :        -694.35443725 eV  <-- do not rely on this value for anything but (periodic) metals
  | Electronic free energy per atom                       :        -694.35443725 eV

  Self-consistency convergence accuracy:
  | Change of charge density      : 0.5014E+00
  | Change of sum of eigenvalues  : 0.1514E+03 eV
  | Change of total energy        : 0.4738E+01 eV

  End self-consistency iteration #     2       :  max(cpu_time)    wall_clock(cpu1)
  | Time for this iteration                    :        1.904 s           1.903 s
  | Charge density update                      :        0.629 s           0.628 s
  | Density mixing                             :        0.005 s           0.005 s
  | Hartree multipole update                   :        0.005 s           0.005 s
  | Hartree multipole summation                :        0.322 s           0.323 s
  | Integration                                :        0.889 s           0.888 s
  | Solution of K.-S. eqns.                    :        0.054 s           0.054 s
  | Total energy evaluation                    :        0.000 s           0.000 s
------------------------------------------------------------

------------------------------------------------------------
          Begin self-consistency iteration #    3

  Date     :  20150727, Time     :  115046.404
------------------------------------------------------------
  Evaluating new KS density.
  Integration grid: deviation in total charge (<rho> - N_e) =   0.000000E+00
  Pulay mixing of updated and previous charge densities.

  Evaluating partitioned Hartree potential by multipole expansion.
  | Analytical far-field extrapolation by fixed multipoles:
  | Hartree multipole sum: apparent total charge =  -0.523202E-05
  Summing up the Hartree potential.
  Time summed over all CPUs for potential: real work        2.566 s, elapsed        2.574 s
  | RMS charge density error from multipole expansion :   0.129381E-01

  Integrating Hamiltonian matrix: batch-based integration.
  Time summed over all CPUs for integration: real work        7.001 s, elapsed        7.099 s

  Updating Kohn-Sham eigenvalues, eigenvectors, occupation numbers, and Fermi level.
  Solving generalized eigenproblem
  Updating Kohn-Sham eigenvalues and eigenfunctions.
  Solving real generalised eigenvalue problem by standard LAPACK (fast)
  Determining occupation numbers for Kohn-Sham eigenstates.
  | Chemical potential (Fermi level) in eV                 : -.23778230E+01
  | Error in electron count due to remaining E_F inaccuracy: 0.00000000E+00
  | Maximum occupation number of highest empty state:  0.00E+00

  Highest occupied state (VBM) at     -5.58704671 eV
  | Occupation number:      2.00000000

  Lowest unoccupied state (CBM) at    -1.99192559 eV
  | Occupation number:      0.00000000

  Overall HOMO-LUMO gap:      3.59512112 eV.

  Total energy components:
  | Sum of eigenvalues            :        -208.96130393 Ha       -5686.12638697 eV
  | XC energy correction          :         -46.36124967 Ha       -1261.55379054 eV
  | XC potential correction       :          59.25828921 Ha        1612.50009248 eV
  | Free-atom electrostatic energy:        -178.96199348 Ha       -4869.80361552 eV
  | Hartree energy correction     :          -7.72263920 Ha        -210.14370462 eV
  | van der Waals energy corr.    :           0.00000000 Ha           0.00000000 eV
  | Entropy correction            :           0.00000000 Ha           0.00000000 eV
  | ---------------------------
  | Total energy                  :        -382.74889707 Ha      -10415.12740517 eV
  | Total energy, T -> 0          :        -382.74889707 Ha      -10415.12740517 eV  <-- do not rely on this value for anything but (periodic) metals
  | Electronic free energy        :        -382.74889707 Ha      -10415.12740517 eV

  Derived energy quantities:
  | Kinetic energy                :         381.40678476 Ha       10378.60667100 eV
  | Electrostatic energy          :        -717.79443217 Ha      -19532.18028563 eV
  | Energy correction for multipole
  | error in Hartree potential    :          -0.00527570 Ha          -0.14355920 eV
  | Sum of eigenvalues per atom                           :        -379.07509246 eV
  | Total energy (T->0) per atom                          :        -694.34182701 eV  <-- do not rely on this value for anything but (periodic) metals
  | Electronic free energy per atom                       :        -694.34182701 eV

  Self-consistency convergence accuracy:
  | Change of charge density      : 0.2526E+00
  | Change of sum of eigenvalues  : -.3179E+01 eV
  | Change of total energy        : 0.1892E+00 eV

  End self-consistency iteration #     3       :  max(cpu_time)    wall_clock(cpu1)
  | Time for this iteration                    :        1.902 s           1.902 s
  | Charge density update                      :        0.625 s           0.625 s
  | Density mixing                             :        0.007 s           0.007 s
  | Hartree multipole update                   :        0.005 s           0.005 s
  | Hartree multipole summation                :        0.322 s           0.322 s
  | Integration                                :        0.889 s           0.889 s
  | Solution of K.-S. eqns.                    :        0.054 s           0.054 s
  | Total energy evaluation                    :        0.000 s           0.000 s
------------------------------------------------------------

------------------------------------------------------------
          Begin self-consistency iteration #    4

  Date     :  20150727, Time     :  115048.306
------------------------------------------------------------
  Evaluating new KS density.
  Integration grid: deviation in total charge (<rho> - N_e) =   3.552714E-14
  Pulay mixing of updated and previous charge densities.

  Evaluating partitioned Hartree potential by multipole expansion.
  | Analytical far-field extrapolation by fixed multipoles:
  | Hartree multipole sum: apparent total charge =  -0.624526E-05
  Summing up the Hartree potential.
  Time summed over all CPUs for potential: real work        2.565 s, elapsed        2.574 s
  | RMS charge density error from multipole expansion :   0.167775E-01

  Integrating Hamiltonian matrix: batch-based integration.
  Time summed over all CPUs for integration: real work        6.994 s, elapsed        7.091 s

  Updating Kohn-Sham eigenvalues, eigenvectors, occupation numbers, and Fermi level.
  Solving generalized eigenproblem
  Updating Kohn-Sham eigenvalues and eigenfunctions.
  Solving real generalised eigenvalue problem by standard LAPACK (fast)
  Determining occupation numbers for Kohn-Sham eigenstates.
  | Chemical potential (Fermi level) in eV                 : -.19184543E+01
  | Error in electron count due to remaining E_F inaccuracy: 0.81974534E-08
  | Maximum occupation number of highest empty state:  0.00E+00

  Highest occupied state (VBM) at     -4.31144603 eV
  | Occupation number:      2.00000000

  Lowest unoccupied state (CBM) at    -1.87769422 eV
  | Occupation number:      0.00000001

  Overall HOMO-LUMO gap:      2.43375181 eV.

  Total energy components:
  | Sum of eigenvalues            :        -207.21384084 Ha       -5638.57549671 eV
  | XC energy correction          :         -46.56286931 Ha       -1267.04014031 eV
  | XC potential correction       :          59.52107676 Ha        1619.65090567 eV
  | Free-atom electrostatic energy:        -178.96199348 Ha       -4869.80361552 eV
  | Hartree energy correction     :          -9.51918336 Ha        -259.03015850 eV
  | van der Waals energy corr.    :           0.00000000 Ha           0.00000000 eV
  | Entropy correction            :           0.00000000 Ha           0.00000000 eV
  | ---------------------------
  | Total energy                  :        -382.73681023 Ha      -10414.79850538 eV
  | Total energy, T -> 0          :        -382.73681023 Ha      -10414.79850538 eV  <-- do not rely on this value for anything but (periodic) metals
  | Electronic free energy        :        -382.73681023 Ha      -10414.79850538 eV

  Derived energy quantities:
  | Kinetic energy                :         381.59630057 Ha       10383.76365867 eV
  | Electrostatic energy          :        -717.77024149 Ha      -19531.52202374 eV
  | Energy correction for multipole
  | error in Hartree potential    :          -0.00715020 Ha          -0.19456696 eV
  | Sum of eigenvalues per atom                           :        -375.90503311 eV
  | Total energy (T->0) per atom                          :        -694.31990036 eV  <-- do not rely on this value for anything but (periodic) metals
  | Electronic free energy per atom                       :        -694.31990036 eV

  Self-consistency convergence accuracy:
  | Change of charge density      : 0.1390E+00
  | Change of sum of eigenvalues  : 0.4755E+02 eV
  | Change of total energy        : 0.3289E+00 eV

  End self-consistency iteration #     4       :  max(cpu_time)    wall_clock(cpu1)
  | Time for this iteration                    :        1.903 s           1.902 s
  | Charge density update                      :        0.625 s           0.624 s
  | Density mixing                             :        0.008 s           0.009 s
  | Hartree multipole update                   :        0.005 s           0.004 s
  | Hartree multipole summation                :        0.322 s           0.323 s
  | Integration                                :        0.888 s           0.888 s
  | Solution of K.-S. eqns.                    :        0.054 s           0.054 s
  | Total energy evaluation                    :        0.000 s           0.000 s
------------------------------------------------------------

------------------------------------------------------------
          Begin self-consistency iteration #    5

  Date     :  20150727, Time     :  115050.208
------------------------------------------------------------
  Evaluating new KS density.
  Integration grid: deviation in total charge (<rho> - N_e) =   8.197446E-09
  Pulay mixing of updated and previous charge densities.

  Evaluating partitioned Hartree potential by multipole expansion.
  | Analytical far-field extrapolation by fixed multipoles:
  | Hartree multipole sum: apparent total charge =  -0.620481E-05
  Summing up the Hartree potential.
  Time summed over all CPUs for potential: real work        2.565 s, elapsed        2.574 s
  | RMS charge density error from multipole expansion :   0.174670E-01

  Integrating Hamiltonian matrix: batch-based integration.
  Time summed over all CPUs for integration: real work        7.000 s, elapsed        7.103 s

  Updating Kohn-Sham eigenvalues, eigenvectors, occupation numbers, and Fermi level.
  Solving generalized eigenproblem
  Updating Kohn-Sham eigenvalues and eigenfunctions.
  Solving real generalised eigenvalue problem by standard LAPACK (fast)
  Determining occupation numbers for Kohn-Sham eigenstates.
  | Chemical potential (Fermi level) in eV                 : -.33707404E+01
  | Error in electron count due to remaining E_F inaccuracy: 0.00000000E+00
  | Maximum occupation number of highest empty state:  0.00E+00

  Highest occupied state (VBM) at     -4.16005121 eV
  | Occupation number:      2.00000000

  Lowest unoccupied state (CBM) at    -1.85848569 eV
  | Occupation number:      0.00000000

  Overall HOMO-LUMO gap:      2.30156553 eV.

  Total energy components:
  | Sum of eigenvalues            :        -207.10738029 Ha       -5635.67855787 eV
  | XC energy correction          :         -46.57942035 Ha       -1267.49051704 eV
  | XC potential correction       :          59.54214641 Ha        1620.22423982 eV
  | Free-atom electrostatic energy:        -178.96199348 Ha       -4869.80361552 eV
  | Hartree energy correction     :          -9.62987830 Ha        -262.04232112 eV
  | van der Waals energy corr.    :           0.00000000 Ha           0.00000000 eV
  | Entropy correction            :           0.00000000 Ha           0.00000000 eV
  | ---------------------------
  | Total energy                  :        -382.73652602 Ha      -10414.79077173 eV
  | Total energy, T -> 0          :        -382.73652602 Ha      -10414.79077173 eV  <-- do not rely on this value for anything but (periodic) metals
  | Electronic free energy        :        -382.73652602 Ha      -10414.79077173 eV

  Derived energy quantities:
  | Kinetic energy                :         381.60747464 Ha       10384.06772053 eV
  | Electrostatic energy          :        -717.76458031 Ha      -19531.36797522 eV
  | Energy correction for multipole
  | error in Hartree potential    :          -0.00737158 Ha          -0.20059082 eV
  | Sum of eigenvalues per atom                           :        -375.71190386 eV
  | Total energy (T->0) per atom                          :        -694.31938478 eV  <-- do not rely on this value for anything but (periodic) metals
  | Electronic free energy per atom                       :        -694.31938478 eV

  Self-consistency convergence accuracy:
  | Change of charge density      : 0.3476E-01
  | Change of sum of eigenvalues  : 0.2897E+01 eV
  | Change of total energy        : 0.7734E-02 eV

  End self-consistency iteration #     5       :  max(cpu_time)    wall_clock(cpu1)
  | Time for this iteration                    :        1.880 s           1.880 s
  | Charge density update                      :        0.599 s           0.598 s
  | Density mixing                             :        0.009 s           0.010 s
  | Hartree multipole update                   :        0.005 s           0.005 s
  | Hartree multipole summation                :        0.323 s           0.322 s
  | Integration                                :        0.889 s           0.890 s
  | Solution of K.-S. eqns.                    :        0.054 s           0.054 s
  | Total energy evaluation                    :        0.000 s           0.000 s
------------------------------------------------------------

------------------------------------------------------------
          Begin self-consistency iteration #    6

  Date     :  20150727, Time     :  115052.088
------------------------------------------------------------
  Evaluating new KS density.
  Integration grid: deviation in total charge (<rho> - N_e) =  -1.421085E-14
  Pulay mixing of updated and previous charge densities.

  Evaluating partitioned Hartree potential by multipole expansion.
  | Analytical far-field extrapolation by fixed multipoles:
  | Hartree multipole sum: apparent total charge =  -0.619432E-05
  Summing up the Hartree potential.
  Time summed over all CPUs for potential: real work        2.566 s, elapsed        2.577 s
  | RMS charge density error from multipole expansion :   0.176020E-01

  Integrating Hamiltonian matrix: batch-based integration.
  Time summed over all CPUs for integration: real work        6.994 s, elapsed        7.110 s

  Updating Kohn-Sham eigenvalues, eigenvectors, occupation numbers, and Fermi level.
  Solving generalized eigenproblem
  Updating Kohn-Sham eigenvalues and eigenfunctions.
  Solving real generalised eigenvalue problem by standard LAPACK (fast)
  Determining occupation numbers for Kohn-Sham eigenstates.
  | Chemical potential (Fermi level) in eV                 : -.33659398E+01
  | Error in electron count due to remaining E_F inaccuracy: 0.00000000E+00
  | Maximum occupation number of highest empty state:  0.00E+00

  Highest occupied state (VBM) at     -4.15288754 eV
  | Occupation number:      2.00000000

  Lowest unoccupied state (CBM) at    -1.85638985 eV
  | Occupation number:      0.00000000

  Overall HOMO-LUMO gap:      2.29649769 eV.

  Total energy components:
  | Sum of eigenvalues            :        -207.08975832 Ha       -5635.19903977 eV
  | XC energy correction          :         -46.58222062 Ha       -1267.56671608 eV
  | XC potential correction       :          59.54568878 Ha        1620.32063280 eV
  | Free-atom electrostatic energy:        -178.96199348 Ha       -4869.80361552 eV
  | Hartree energy correction     :          -9.64826734 Ha        -262.54271238 eV
  | van der Waals energy corr.    :           0.00000000 Ha           0.00000000 eV
  | Entropy correction            :           0.00000000 Ha           0.00000000 eV
  | ---------------------------
  | Total energy                  :        -382.73655098 Ha      -10414.79145096 eV
  | Total energy, T -> 0          :        -382.73655098 Ha      -10414.79145096 eV  <-- do not rely on this value for anything but (periodic) metals
  | Electronic free energy        :        -382.73655098 Ha      -10414.79145096 eV

  Derived energy quantities:
  | Kinetic energy                :         381.60780570 Ha       10384.07672911 eV
  | Electrostatic energy          :        -717.76213606 Ha      -19531.30146399 eV
  | Energy correction for multipole
  | error in Hartree potential    :          -0.00741769 Ha          -0.20184567 eV
  | Sum of eigenvalues per atom                           :        -375.67993598 eV
  | Total energy (T->0) per atom                          :        -694.31943006 eV  <-- do not rely on this value for anything but (periodic) metals
  | Electronic free energy per atom                       :        -694.31943006 eV

  Self-consistency convergence accuracy:
  | Change of charge density      : 0.1164E-01
  | Change of sum of eigenvalues  : 0.4795E+00 eV
  | Change of total energy        : -.6792E-03 eV

  End self-consistency iteration #     6       :  max(cpu_time)    wall_clock(cpu1)
  | Time for this iteration                    :        1.908 s           1.908 s
  | Charge density update                      :        0.624 s           0.624 s
  | Density mixing                             :        0.011 s           0.011 s
  | Hartree multipole update                   :        0.005 s           0.005 s
  | Hartree multipole summation                :        0.323 s           0.323 s
  | Integration                                :        0.891 s           0.891 s
  | Solution of K.-S. eqns.                    :        0.054 s           0.054 s
  | Total energy evaluation                    :        0.000 s           0.000 s
------------------------------------------------------------

------------------------------------------------------------
          Begin self-consistency iteration #    7

  Date     :  20150727, Time     :  115053.996
------------------------------------------------------------
  Evaluating new KS density.
  Integration grid: deviation in total charge (<rho> - N_e) =   2.131628E-14
  Pulay mixing of updated and previous charge densities.

  Evaluating partitioned Hartree potential by multipole expansion.
  | Analytical far-field extrapolation by fixed multipoles:
  | Hartree multipole sum: apparent total charge =  -0.594654E-05
  Summing up the Hartree potential.
  Time summed over all CPUs for potential: real work        2.565 s, elapsed        2.574 s
  | RMS charge density error from multipole expansion :   0.176268E-01

  Integrating Hamiltonian matrix: batch-based integration.
  Time summed over all CPUs for integration: real work        6.993 s, elapsed        7.121 s

  Updating Kohn-Sham eigenvalues, eigenvectors, occupation numbers, and Fermi level.
  Solving generalized eigenproblem
  Updating Kohn-Sham eigenvalues and eigenfunctions.
  Solving real generalised eigenvalue problem by standard LAPACK (fast)
  Determining occupation numbers for Kohn-Sham eigenstates.
  | Chemical potential (Fermi level) in eV                 : -.19274653E+01
  | Error in electron count due to remaining E_F inaccuracy: 0.00000000E+00
  | Maximum occupation number of highest empty state:  0.00E+00

  Highest occupied state (VBM) at     -4.30690294 eV
  | Occupation number:      2.00000000

  Lowest unoccupied state (CBM) at    -1.86703867 eV
  | Occupation number:      0.00000000

  Overall HOMO-LUMO gap:      2.43986427 eV.

  Total energy components:
  | Sum of eigenvalues            :        -207.24283328 Ha       -5639.36442137 eV
  | XC energy correction          :         -46.56822703 Ha       -1267.18593113 eV
  | XC potential correction       :          59.52679680 Ha        1619.80655569 eV
  | Free-atom electrostatic energy:        -178.96199348 Ha       -4869.80361552 eV
  | Hartree energy correction     :          -9.49018483 Ha        -258.24106837 eV
  | van der Waals energy corr.    :           0.00000000 Ha           0.00000000 eV
  | Entropy correction            :           0.00000000 Ha           0.00000000 eV
  | ---------------------------
  | Total energy                  :        -382.73644183 Ha      -10414.78848070 eV
  | Total energy, T -> 0          :        -382.73644183 Ha      -10414.78848070 eV  <-- do not rely on this value for anything but (periodic) metals
  | Electronic free energy        :        -382.73644183 Ha      -10414.78848070 eV

  Derived energy quantities:
  | Kinetic energy                :         381.67024522 Ha       10385.77579478 eV
  | Electrostatic energy          :        -717.83846001 Ha      -19533.37834435 eV
  | Energy correction for multipole
  | error in Hartree potential    :          -0.00723311 Ha          -0.19682307 eV
  | Sum of eigenvalues per atom                           :        -375.95762809 eV
  | Total energy (T->0) per atom                          :        -694.31923205 eV  <-- do not rely on this value for anything but (periodic) metals
  | Electronic free energy per atom                       :        -694.31923205 eV

  Self-consistency convergence accuracy:
  | Change of charge density      : 0.1095E-01
  | Change of sum of eigenvalues  : -.4165E+01 eV
  | Change of total energy        : 0.2970E-02 eV

  End self-consistency iteration #     7       :  max(cpu_time)    wall_clock(cpu1)
  | Time for this iteration                    :        1.910 s           1.909 s
  | Charge density update                      :        0.624 s           0.624 s
  | Density mixing                             :        0.013 s           0.013 s
  | Hartree multipole update                   :        0.005 s           0.004 s
  | Hartree multipole summation                :        0.322 s           0.323 s
  | Integration                                :        0.892 s           0.892 s
  | Solution of K.-S. eqns.                    :        0.053 s           0.053 s
  | Total energy evaluation                    :        0.000 s           0.000 s
------------------------------------------------------------

------------------------------------------------------------
          Begin self-consistency iteration #    8

  Date     :  20150727, Time     :  115055.906
------------------------------------------------------------
  Evaluating new KS density.
  Integration grid: deviation in total charge (<rho> - N_e) =   2.842171E-14
  Pulay mixing of updated and previous charge densities.

  Evaluating partitioned Hartree potential by multipole expansion.
  | Analytical far-field extrapolation by fixed multipoles:
  | Hartree multipole sum: apparent total charge =  -0.594938E-05
  Summing up the Hartree potential.
  Time summed over all CPUs for potential: real work        2.565 s, elapsed        2.573 s
  | RMS charge density error from multipole expansion :   0.176854E-01

  Integrating Hamiltonian matrix: batch-based integration.
  Time summed over all CPUs for integration: real work        6.995 s, elapsed        7.126 s

  Updating Kohn-Sham eigenvalues, eigenvectors, occupation numbers, and Fermi level.
  Solving generalized eigenproblem
  Updating Kohn-Sham eigenvalues and eigenfunctions.
  Solving real generalised eigenvalue problem by standard LAPACK (fast)
  Determining occupation numbers for Kohn-Sham eigenstates.
  | Chemical potential (Fermi level) in eV                 : -.19226388E+01
  | Error in electron count due to remaining E_F inaccuracy: 0.00000000E+00
  | Maximum occupation number of highest empty state:  0.00E+00

  Highest occupied state (VBM) at     -4.28102925 eV
  | Occupation number:      2.00000000

  Lowest unoccupied state (CBM) at    -1.86658548 eV
  | Occupation number:      0.00000000

  Overall HOMO-LUMO gap:      2.41444377 eV.

  Total energy components:
  | Sum of eigenvalues            :        -207.22512411 Ha       -5638.88253023 eV
  | XC energy correction          :         -46.57018249 Ha       -1267.23914197 eV
  | XC potential correction       :          59.52932000 Ha        1619.87521559 eV
  | Free-atom electrostatic energy:        -178.96199348 Ha       -4869.80361552 eV
  | Hartree energy correction     :          -9.50846157 Ha        -258.73840373 eV
  | van der Waals energy corr.    :           0.00000000 Ha           0.00000000 eV
  | Entropy correction            :           0.00000000 Ha           0.00000000 eV
  | ---------------------------
  | Total energy                  :        -382.73644165 Ha      -10414.78847586 eV
  | Total energy, T -> 0          :        -382.73644165 Ha      -10414.78847586 eV  <-- do not rely on this value for anything but (periodic) metals
  | Electronic free energy        :        -382.73644165 Ha      -10414.78847586 eV

  Derived energy quantities:
  | Kinetic energy                :         381.67370053 Ha       10385.86981859 eV
  | Electrostatic energy          :        -717.83995969 Ha      -19533.41915248 eV
  | Energy correction for multipole
  | error in Hartree potential    :          -0.00726425 Ha          -0.19767025 eV
  | Sum of eigenvalues per atom                           :        -375.92550202 eV
  | Total energy (T->0) per atom                          :        -694.31923172 eV  <-- do not rely on this value for anything but (periodic) metals
  | Electronic free energy per atom                       :        -694.31923172 eV

  Self-consistency convergence accuracy:
  | Change of charge density      : 0.2248E-02
  | Change of sum of eigenvalues  : 0.4819E+00 eV
  | Change of total energy        : 0.4837E-05 eV

  End self-consistency iteration #     8       :  max(cpu_time)    wall_clock(cpu1)
  | Time for this iteration                    :        1.913 s           1.912 s
  | Charge density update                      :        0.625 s           0.625 s
  | Density mixing                             :        0.014 s           0.014 s
  | Hartree multipole update                   :        0.005 s           0.004 s
  | Hartree multipole summation                :        0.322 s           0.323 s
  | Integration                                :        0.893 s           0.892 s
  | Solution of K.-S. eqns.                    :        0.054 s           0.054 s
  | Total energy evaluation                    :        0.000 s           0.000 s
------------------------------------------------------------

------------------------------------------------------------
          Begin self-consistency iteration #    9

  Date     :  20150727, Time     :  115057.819
------------------------------------------------------------
  Evaluating new KS density.
  Integration grid: deviation in total charge (<rho> - N_e) =   7.105427E-15
  Pulay mixing of updated and previous charge densities.

  Evaluating partitioned Hartree potential by multipole expansion.
  | Analytical far-field extrapolation by fixed multipoles:
  | Hartree multipole sum: apparent total charge =  -0.594489E-05
  Summing up the Hartree potential.
  Time summed over all CPUs for potential: real work        2.565 s, elapsed        2.573 s
  | RMS charge density error from multipole expansion :   0.176780E-01

  Integrating Hamiltonian matrix: batch-based integration.
  Time summed over all CPUs for integration: real work        6.988 s, elapsed        7.126 s

  Updating Kohn-Sham eigenvalues, eigenvectors, occupation numbers, and Fermi level.
  Solving generalized eigenproblem
  Updating Kohn-Sham eigenvalues and eigenfunctions.
  Solving real generalised eigenvalue problem by standard LAPACK (fast)
  Determining occupation numbers for Kohn-Sham eigenstates.
  | Chemical potential (Fermi level) in eV                 : -.19236232E+01
  | Error in electron count due to remaining E_F inaccuracy: 0.00000000E+00
  | Maximum occupation number of highest empty state:  0.00E+00

  Highest occupied state (VBM) at     -4.28594519 eV
  | Occupation number:      2.00000000

  Lowest unoccupied state (CBM) at    -1.86691100 eV
  | Occupation number:      0.00000000

  Overall HOMO-LUMO gap:      2.41903419 eV.

  Total energy components:
  | Sum of eigenvalues            :        -207.22804767 Ha       -5638.96208438 eV
  | XC energy correction          :         -46.56981046 Ha       -1267.22901851 eV
  | XC potential correction       :          59.52882927 Ha        1619.86186209 eV
  | Free-atom electrostatic energy:        -178.96199348 Ha       -4869.80361552 eV
  | Hartree energy correction     :          -9.50541829 Ha        -258.65559190 eV
  | van der Waals energy corr.    :           0.00000000 Ha           0.00000000 eV
  | Entropy correction            :           0.00000000 Ha           0.00000000 eV
  | ---------------------------
  | Total energy                  :        -382.73644063 Ha      -10414.78844822 eV
  | Total energy, T -> 0          :        -382.73644063 Ha      -10414.78844822 eV  <-- do not rely on this value for anything but (periodic) metals
  | Electronic free energy        :        -382.73644063 Ha      -10414.78844822 eV

  Derived energy quantities:
  | Kinetic energy                :         381.67578505 Ha       10385.92654123 eV
  | Electrostatic energy          :        -717.84241522 Ha      -19533.48597093 eV
  | Energy correction for multipole
[...]
   ----------------------------------------------------------------
   Total forces(   4)            : -.719811E+00 -.196302E+01 -.488328E+00
  atom #    5
   Hellmann-Feynman + Multipole  : -.265498E+00 0.690017E+00 0.898259E+00
   Pulay + GGA                   : 0.525908E-02 0.366195E-01 0.894979E-01
   Van der Waals               : -.248879E-03 0.529500E-03 -.211852E-02
   ----------------------------------------------------------------
   Total forces(   5)            : -.260488E+00 0.727166E+00 0.985638E+00
  atom #    6
   Hellmann-Feynman + Multipole  : 0.739082E+00 0.753849E+00 0.133853E+00
   Pulay + GGA                   : -.106494E+00 -.480392E-01 0.690322E-01
   Van der Waals               : 0.182391E-02 0.422173E-02 0.232463E-03
   ----------------------------------------------------------------
   Total forces(   6)            : 0.634412E+00 0.710032E+00 0.203118E+00
  atom #    7
   Hellmann-Feynman + Multipole  : -.594968E+01 -.817066E+01 0.911941E+01
   Pulay + GGA                   : 0.588286E+01 0.869182E+01 -.698400E+01
   Van der Waals               : -.213883E-02 0.148016E-02 0.210659E-02
   ----------------------------------------------------------------
   Total forces(   7)            : -.689566E-01 0.522638E+00 0.213752E+01
  atom #    8
   Hellmann-Feynman + Multipole  : -.251684E+00 -.247515E+00 -.630710E-01
   Pulay + GGA                   : 0.399066E-01 0.820708E-01 0.620954E-03
   Van der Waals               : -.173391E-02 -.138181E-02 0.522388E-03
   ----------------------------------------------------------------
   Total forces(   8)            : -.213511E+00 -.166826E+00 -.619277E-01
  atom #    9
   Hellmann-Feynman + Multipole  : -.271976E+00 0.287089E+00 -.225739E+01
   Pulay + GGA                   : -.357974E-01 0.414128E-01 -.119578E+00
   Van der Waals               : 0.225091E-02 0.186982E-02 0.312338E-02
   ----------------------------------------------------------------
   Total forces(   9)            : -.305523E+00 0.330371E+00 -.237384E+01
  atom #   10
   Hellmann-Feynman + Multipole  : 0.732149E+01 -.585636E+01 -.974912E+01
   Pulay + GGA                   : -.852255E+01 0.778404E+01 0.115448E+02
   Van der Waals               : -.460823E-03 0.239435E-02 -.932313E-02
   ----------------------------------------------------------------
   Total forces(  10)            : -.120152E+01 0.193008E+01 0.178635E+01
  atom #   11
   Hellmann-Feynman + Multipole  : -.432222E+00 0.315349E+00 -.224267E+01
   Pulay + GGA                   : 0.254756E-01 0.167647E-01 0.129974E+00
   Van der Waals               : -.593558E-03 -.103306E-02 -.204091E-02
   ----------------------------------------------------------------
   Total forces(  11)            : -.407340E+00 0.331081E+00 -.211474E+01
  atom #   12
   Hellmann-Feynman + Multipole  : 0.184539E+01 -.191904E+01 0.564864E+00
   Pulay + GGA                   : -.789417E-01 0.103381E+00 -.938246E-02
   Van der Waals               : 0.893044E-03 0.924300E-03 -.641461E-02
   ----------------------------------------------------------------
   Total forces(  12)            : 0.176734E+01 -.181473E+01 0.549067E+00
  atom #   13
   Hellmann-Feynman + Multipole  : -.131062E+02 -.328355E+01 0.242634E+01
   Pulay + GGA                   : 0.143470E+02 0.473700E+01 -.296300E+01
   Van der Waals               : 0.399212E-03 -.790639E-02 0.474514E-02
   ----------------------------------------------------------------
   Total forces(  13)            : 0.124128E+01 0.144555E+01 -.531924E+00
  atom #   14
   Hellmann-Feynman + Multipole  : -.538903E+00 0.172794E-02 -.626049E-01
   Pulay + GGA                   : 0.116100E+00 -.471609E-01 0.363903E-01
   Van der Waals               : -.296794E-02 -.730681E-02 0.262348E-02
   ----------------------------------------------------------------
   Total forces(  14)            : -.425771E+00 -.527398E-01 -.235911E-01
  atom #   15
   Hellmann-Feynman + Multipole  : -.752790E+00 -.146556E+01 0.701690E+00
   Pulay + GGA                   : 0.425906E-01 0.109511E+00 -.524707E-01
   Van der Waals               : -.394276E-03 -.151476E-02 0.178107E-03
   ----------------------------------------------------------------
   Total forces(  15)            : -.710594E+00 -.135757E+01 0.649397E+00
  Timings for vdw_correction_hirshfeld (Tkatchenko-Scheffler 2009):
  | CPU time:        5.066 s, Wall clock time:        5.069 s.
  Removing unitary transformations (pure translations, rotations) from forces on atoms.
  Atomic forces before filtering:
  | Net force on center of mass :  0.106649E-01 -.392895E-02 0.129948E-01 eV/A
  | Net torque on center of mass:  -.100582E-01 -.884406E-02 -.123818E-01 eV
  Atomic forces after filtering:
  | Net force on center of mass :  0.624421E-15 -.713624E-15 -.535218E-15 eV/A
  | Net torque on center of mass:  0.377634E-15 -.472042E-16 0.000000E+00 eV
 
  Energy and forces in a compact form:
  | Total energy uncorrected      :         -0.104148543117975E+05 eV
  | Total energy corrected        :         -0.104148543117975E+05 eV  <-- do not rely on this value for anything but (periodic) metals
  | Electronic free energy        :         -0.104148543117975E+05 eV
  Total atomic forces (unitary forces cleaned) [eV/Ang]:
  |   1          0.966721174365342E+00          0.267546714659225E+01         -0.172026968029971E+01
  |   2          0.177689492213520E+01         -0.280971814651015E+01          0.114686358335177E+01
  |   3         -0.206405243869228E+01         -0.510130529043308E+00         -0.133596812445392E+00
  |   4         -0.719876349643717E+00         -0.196296950294631E+01         -0.489423870846952E+00
  |   5         -0.260660450565137E+00          0.727202325946658E+00          0.984604306628466E+00
  |   6          0.634490251190336E+00          0.709855379011478E+00          0.202057753756531E+00
  |   7         -0.699737103010216E-01          0.522917071751934E+00          0.213680109267875E+01
  |   8         -0.214675367729982E+00         -0.166480118527730E+00         -0.626012471989768E-01
  |   9         -0.306675710015159E+00          0.330728617239132E+00         -0.237452814363690E+01
  |  10         -0.120198297128194E+01          0.193015592755711E+01          0.178544320166089E+01
  |  11         -0.407669441683424E+00          0.331066758500563E+00         -0.211566709908666E+01
  |  12          0.176669097153443E+01         -0.181480642523452E+01          0.548332132097233E+00
  |  13          0.123993906959501E+01          0.144594097459848E+01         -0.532531262647566E+00
  |  14         -0.426984470414789E+00         -0.521861870153097E-01         -0.243406424872358E-01
  |  15         -0.712185478492882E+00         -0.135704329192028E+01          0.648856688475762E+00
 
  ------------------------------------ 
  Start decomposition of the XC Energy 
  ------------------------------------ 
  Hartree-Fock part   :          0.000000000 Ha              0.000000000 eV
  ------------------------------------ 
  X Energy            :        -44.934223253 Ha          -1222.722426148 eV
  C Energy GGA        :         -1.635212023 Ha            -44.496383087 eV
  Total XC Energy     :        -46.569435276 Ha          -1267.218809234 eV
  LDA X and C from self-consistent density 
  X Energy LDA        :        -40.492552786 Ha          -1101.858423257 eV
  C Energy LDA        :         -3.298573791 Ha            -89.758759737 eV
  ------------------------------------ 
  End decomposition of the XC Energy 
  ------------------------------------ 
  Performing Hirshfeld analysis of fragment charges and moments.
  ----------------------------------------------------------------------
  | Atom     1: O
  |   Hirshfeld charge        :     -0.34978991
  |   Free atom volume        :     23.95238533
  |   Hirshfeld volume        :     23.76730772
  |   Hirshfeld dipole vector :      0.00846206       0.05684446       0.03035049
  |   Hirshfeld dipole moment :      0.06499270
  |   Hirshfeld second moments:      0.02586334      -0.01129146       0.01699462
  |                                 -0.01129146      -0.05443454      -0.03093729
  |                                  0.01699462      -0.03093729      -0.08105462
  ----------------------------------------------------------------------
  | Atom     2: H
  |   Hirshfeld charge        :      0.06418895
  |   Free atom volume        :     10.44207651
  |   Hirshfeld volume        :      8.45357710
  |   Hirshfeld dipole vector :     -0.02448102       0.03592644      -0.00680051
  |   Hirshfeld dipole moment :      0.04400314
  |   Hirshfeld second moments:      0.06980537       0.03153744       0.00158553
  |                                  0.03153744       0.02530248       0.00817522
  |                                  0.00158553       0.00817522       0.06095539
  ----------------------------------------------------------------------
  | Atom     3: H
  |   Hirshfeld charge        :      0.09122683
  |   Free atom volume        :     10.44207651
  |   Hirshfeld volume        :      7.64924915
  |   Hirshfeld dipole vector :      0.10911627       0.02907261       0.02171176
  |   Hirshfeld dipole moment :      0.11499121
  |   Hirshfeld second moments:      0.09140326      -0.01016220       0.00142460
  |                                 -0.01016220       0.08254770      -0.01039834
  |                                  0.00142460      -0.01039834       0.06383722
  ----------------------------------------------------------------------
  | Atom     4: O
  |   Hirshfeld charge        :     -0.31098149
  |   Free atom volume        :     23.95238533
  |   Hirshfeld volume        :     22.45894513
  |   Hirshfeld dipole vector :     -0.02991461       0.02285856       0.01410404
  |   Hirshfeld dipole moment :      0.04020350
  |   Hirshfeld second moments:      0.01546952       0.05457069      -0.01037086
  |                                  0.05457069       0.00848433       0.01784759
  |                                 -0.01037086       0.01784759      -0.01285336
  ----------------------------------------------------------------------
  | Atom     5: H
  |   Hirshfeld charge        :      0.06968203
  |   Free atom volume        :     10.44207651
  |   Hirshfeld volume        :      8.05682402
  |   Hirshfeld dipole vector :      0.01387884       0.04151477       0.03123805
  |   Hirshfeld dipole moment :      0.05377652
  |   Hirshfeld second moments:      0.08272113      -0.00164047      -0.01065944
  |                                 -0.00164047       0.03552298      -0.01889666
  |                                 -0.01065944      -0.01889666       0.06862162
  ----------------------------------------------------------------------
  | Atom     6: H
  |   Hirshfeld charge        :      0.12259296
  |   Free atom volume        :     10.44207651
  |   Hirshfeld volume        :      6.91475570
  |   Hirshfeld dipole vector :     -0.10181237      -0.06073914       0.01957490
  |   Hirshfeld dipole moment :      0.12015898
  |   Hirshfeld second moments:      0.09170255       0.01364286      -0.00002337
  |                                  0.01364286       0.10612223       0.01224218
  |                                 -0.00002337       0.01224218       0.09625851
  ----------------------------------------------------------------------
  | Atom     7: O
  |   Hirshfeld charge        :     -0.20132398
  |   Free atom volume        :     23.95238533
  |   Hirshfeld volume        :     20.47467701
  |   Hirshfeld dipole vector :      0.02962002      -0.01049848      -0.01460368
  |   Hirshfeld dipole moment :      0.03465302
  |   Hirshfeld second moments:      0.03439535       0.01180285       0.02671288
  |                                  0.01180285       0.07592108       0.00452795
  |                                  0.02671288       0.00452795       0.09942723
  ----------------------------------------------------------------------
  | Atom     8: H
  |   Hirshfeld charge        :      0.11542905
  |   Free atom volume        :     10.44207651
  |   Hirshfeld volume        :      7.25214556
  |   Hirshfeld dipole vector :      0.02717046       0.03906951       0.00877216
  |   Hirshfeld dipole moment :      0.04839020
  |   Hirshfeld second moments:      0.08278998      -0.02117591      -0.00629112
  |                                 -0.02117591       0.07066131      -0.02854603
  |                                 -0.00629112      -0.02854603       0.10317591
  ----------------------------------------------------------------------
  | Atom     9: H
  |   Hirshfeld charge        :      0.16136820
  |   Free atom volume        :     10.44207651
  |   Hirshfeld volume        :      5.97096092
  |   Hirshfeld dipole vector :     -0.01854809       0.00974088      -0.11920970
  |   Hirshfeld dipole moment :      0.12103665
  |   Hirshfeld second moments:      0.11885276       0.00908740       0.00807150
  |                                  0.00908740       0.13318616       0.00221093
  |                                  0.00807150       0.00221093       0.12344204
  ----------------------------------------------------------------------
  | Atom    10: O
  |   Hirshfeld charge        :     -0.21390800
  |   Free atom volume        :     23.95238533
  |   Hirshfeld volume        :     20.75390341
  |   Hirshfeld dipole vector :     -0.03551807      -0.02262807       0.00971864
  |   Hirshfeld dipole moment :      0.04322053
  |   Hirshfeld second moments:      0.02823436      -0.03740630       0.02679421
  |                                 -0.03740630       0.05283363      -0.00718562
  |                                  0.02679421      -0.00718562       0.07947236
  ----------------------------------------------------------------------
  | Atom    11: H
  |   Hirshfeld charge        :      0.16398881
  |   Free atom volume        :     10.44207651
  |   Hirshfeld volume        :      5.89778423
  |   Hirshfeld dipole vector :      0.01781048      -0.01960285       0.11850907
  |   Hirshfeld dipole moment :      0.12143263
  |   Hirshfeld second moments:      0.12568889      -0.01425398       0.00615041
  |                                 -0.01425398       0.12706165       0.00144506
  |                                  0.00615041       0.00144506       0.11960001
  ----------------------------------------------------------------------
  | Atom    12: H
  |   Hirshfeld charge        :      0.16410761
  |   Free atom volume        :     10.44207651
  |   Hirshfeld volume        :      6.27411140
  |   Hirshfeld dipole vector :     -0.08606601       0.07302625      -0.01963492
  |   Hirshfeld dipole moment :      0.11456754
  |   Hirshfeld second moments:      0.11073864      -0.00208158      -0.00027425
  |                                 -0.00208158       0.11064357       0.00654549
  |                                 -0.00027425       0.00654549       0.12903977
  ----------------------------------------------------------------------
  | Atom    13: O
  |   Hirshfeld charge        :     -0.21392592
  |   Free atom volume        :     23.95238533
  |   Hirshfeld volume        :     20.32580390
  |   Hirshfeld dipole vector :      0.02244342      -0.01527984      -0.02237569
  |   Hirshfeld dipole moment :      0.03518313
  |   Hirshfeld second moments:      0.06301108      -0.00023993       0.02521032
  |                                 -0.00023993       0.09188598      -0.03360941
  |                                  0.02521032      -0.03360941       0.03952050
  ----------------------------------------------------------------------
  | Atom    14: H
  |   Hirshfeld charge        :      0.16721316
  |   Free atom volume        :     10.44207651
  |   Hirshfeld volume        :      6.08376635
  |   Hirshfeld dipole vector :      0.09905847      -0.04721673       0.03314883
  |   Hirshfeld dipole moment :      0.11463352
  |   Hirshfeld second moments:      0.12448930       0.01048011      -0.00263949
  |                                  0.01048011       0.12926696      -0.00209348
  |                                 -0.00263949      -0.00209348       0.11317667
  ----------------------------------------------------------------------
  | Atom    15: H
  |   Hirshfeld charge        :      0.17010843
  |   Free atom volume        :     10.44207651
  |   Hirshfeld volume        :      5.55649261
  |   Hirshfeld dipole vector :      0.03560217       0.10273049      -0.05453400
  |   Hirshfeld dipole moment :      0.12163480
  |   Hirshfeld second moments:      0.14051984      -0.00712448       0.01193490
  |                                 -0.00712448       0.13109285      -0.00318093
  |                                  0.01193490      -0.00318093       0.12361313
  ----------------------------------------------------------------------


------------------------------------------------------------------------------
  Final output of selected total energy values:

  The following output summarizes some interesting total energy values
  at the end of a run (AFTER all relaxation, molecular dynamics, etc.).

  | Total energy of the DFT / Hartree-Fock s.c.f. calculation      :         -10414.854311797 eV
  | Final zero-broadening corrected energy (caution - metals only) :         -10414.854311797 eV
  | For reference only, the value of 1 Hartree used in FHI-aims is :             27.211384500 eV

  Before relying on these values, please be sure to understand exactly which
  total energy value is referred to by a given number. Different objects may
  all carry the same name 'total energy'. Definitions:

  Total energy of the DFT / Hartree-Fock s.c.f. calculation:
  | Note that this energy does not include ANY quantities calculated after the
  | s.c.f. cycle, in particular not ANY RPA, MP2, etc. many-body perturbation terms.

  Final zero-broadening corrected energy:
  | For metallic systems only, a broadening of the occupation numbers at the Fermi
  | level can be extrapolated back to zero broadening by an electron-gas inspired
  | formula. For all systems that are not real metals, this value can be
  | meaningless and should be avoided.

------------------------------------------------------------------------------

------------------------------------------------------------
          Leaving FHI-aims.
          Date     :  20150727, Time     :  115116.807

          Computational steps:
          | Number of self-consistency cycles          :           16

          Detailed time accounting                     :  max(cpu_time)    wall_clock(cpu1)
          | Total time                                 :       36.694 s          36.718 s
          | Preparation time                           :        0.171 s           0.562 s
          | Grid partitioning                          :        0.122 s           0.122 s
          | Preloading free-atom quantities on grid    :        0.014 s           0.013 s
          | Free-atom superposition energy             :        0.066 s           0.067 s
          | Total time for integrations                :       15.611 s          15.610 s
          | Total time for solution of K.-S. equations :        1.059 s           1.059 s
          | Total time for density & force components  :       12.419 s          12.412 s
          | Total time for mixing                      :        0.209 s           0.212 s
          | Total time for Hartree multipole update    :        0.079 s           0.076 s
          | Total time for Hartree multipole sum       :        6.237 s           6.243 s
          | Total time for total energy evaluation     :        0.007 s           0.014 s
          | Total time for scaled ZORA corrections     :        0.000 s           0.000 s
          | Total time for TS (2009) vdW correction    :        0.056 s           0.059 s

          Have a nice day.
------------------------------------------------------------
