  MPI-parallelism will be employed.
------------------------------------------------------------
          Invoking FHI-aims ...
          Version 081213
          Compiled on 2013/08/29 at 17:41:06 on host generoso.

          When using FHI-aims, please cite the following reference:

          Volker Blum, Ralf Gehrke, Felix Hanke, Paula Havu,
          Ville Havu, Xinguo Ren, Karsten Reuter, and Matthias Scheffler,
          'Ab Initio Molecular Simulations with Numeric Atom-Centered Orbitals: FHI-aims',
          Computer Physics Communications 180, 2175-2196 (2009)

          For any questions about FHI-aims, please visit the aimsclub website
          with its forums and wiki. Contributions to both the forums and the
          wiki are warmly encouraged - they are for you, and everyone is welcome there.

------------------------------------------------------------

  Date     :  20150727, Time     :  122635.186
  Time zero on CPU 1             :   0.449920000000000E-01  s.
  Internal wall clock time zero  :           207231995.186  s.

  Using        8 parallel tasks.
  Task        0 on host gen60 reporting.
  Task        1 on host gen60 reporting.
  Task        2 on host gen60 reporting.
  Task        3 on host gen60 reporting.
  Task        4 on host gen60 reporting.
  Task        5 on host gen60 reporting.
  Task        6 on host gen60 reporting.
  Task        7 on host gen60 reporting.

  Performing system and environment tests:
  | Environment variable OMP_NUM_THREADS correctly set to 1.
  | Checking for scalapack...
  | No scalapack compiled in.

  Obtaining array dimensions for all initial allocations:
  
  -----------------------------------------------------------------------
  Parsing control.in (first pass over file, find array dimensions only).
  The contents of control.in will be repeated verbatim below
  unless switched off by setting 'verbatim_writeout .false.' .
  in the first line of control.in .
  -----------------------------------------------------------------------
  
  #########################################################################################
  #
  #  Volker Blum, FHI 2008 : Test run input file control.in
  #
  #########################################################################################
  #
  #  Physical model
  #
    xc                 rpbe
    spin               none
    relativistic       atomic_zora scalar
    charge             0.
   vdw_correction_hirshfeld
  #
  #  SCF convergence
  #
    occupation_type    gaussian 0.01
    mixer              pulay
      n_max_pulay        10
      charge_mix_param   0.1
    sc_accuracy_rho    5E-5
    sc_accuracy_eev    5E-3
    sc_accuracy_etot   5E-6
    sc_iter_limit      3000
  #
  #  Eigenvalue solver
  #
    KS_method          lapack
      empty_states       8
      basis_threshold    0.e-5
  #
  #  Efficiency
  #
  #   all previous settings are now default, except stratmann still
  #   undecided. Continue to handle stratmann with care, if at all.
  #
  #  partition_type stratmann
    partition_type rho_r2
  #  hartree_partition_type stratmann
  #
  #  Oprions for large clusters (100's of atoms: memory saving / better scaling)
  #
  # for periodic systems:
  #
    density_update_method orbital
    packed_matrix_format none
  #  k_grid 6 6 6
  #  output k_eigenvalue 1
  #  distributed_spline_storage .true.
  #
  #  Relaxation
  #
  #  relax_geometry   bfgs 5.e-3
    sc_accuracy_forces 5.E-4
    final_forces_cleaned .true.
  #
  #  Output options
  #
  #  output mulliken
    output Hirshfeld
  #  output dipole
  
  #harmonic_length_scale 0.001
  
  ################################################################################
  #
  #  FHI-aims code project
  #  VB, Fritz-Haber Institut, 2007
  #
  #  Suggested "safe" defaults for H atom (to be pasted into control.in file)
  #  Basis constructed for a non-relativistic H2 molecule using the
  #  PW-LDA functional.
  #
  ################################################################################
    species        H
  #     global species definitions
      nucleus             1
      cut_pot             4.0  2.0  1.0
      cut_free_atom       finite 8.0
      logarithmic         0.00010000 100.00  1.0123
      basis_dep_cutoff    1d-4  # 1d-4 is safe default - please check 5d-4 if you wish!
      radial_base         24 7.0
      radial_multiplier   2
      angular_grids       specified
        division   0.2783  110
        division   0.3822  194
        division   0.5626  302
  #      division   0.5922  434
  #      division   0.6227  590
  #      division   0.7206  770
        outer_grid  302
      l_hartree           4
  ################################################################################
  #
  #  Definition of "minimal" basis
  #
  ################################################################################
  #     valence basis states
      valence      1  s   1.
  #     ion occupancy
      ion_occ      1  s   0.5
  ################################################################################
  #
  #  Suggested additional basis functions. For production calculations,
  #  uncomment them one after another (the most important basis functions are
  #  listed first).
  #
  ################################################################################
  #  "First tier" - improvements: -1014.90 meV to -62.69 meV
       hydro 2 s 2.1
       hydro 2 p 3.5
  #  "Second tier" - improvements: -12.89 meV to -1.83 meV
       hydro 1 s 0.85
       hydro 2 p 3.7
       hydro 2 s 1.2
       hydro 3 d 7
  #  "Third tier" - improvements: -0.25 meV to -0.12 meV
  #     hydro 4 f 11.2
  #     hydro 3 p 4.8
  #     hydro 4 d 9
  #     hydro 3 s 3.2
  
  ################################################################################
  #
  #  FHI-aims code project
  #  VB, Fritz-Haber Institut, 2007
  #
  #  Suggested "safe" defaults for O atom (to be pasted into control.in file)
  #  All values have been tested for a non-relativistic, non-spinpolarized O2
  #  molecule using the PW-LDA functional. Validity for PBE is expected.
  #
  #  Constructed for dimers: 1.0 A, 1.208 A, 1.5 A, 2.0 A, 3.0 A
  #
  ################################################################################
    species        O
  #     global species definitions
      nucleus             8
      mass                15.9994
      l_hartree           4
      cut_pot             4.0  2.0  1.0
      cut_free_atom       finite 8.0
      basis_dep_cutoff    1d-4  # 1d-4 is safe default - please check 5d-4 if you wish!
      logarithmic         0.00010000 100.00  1.0123
      radial_base         36 7.0
      radial_multiplier   2
       angular_grids specified
        division   0.4087  110
        division   0.5181  194
        division   0.6184  302
  #      division   0.7315  434
  #      division   0.7934  590
  #      division   0.9656  770
  #      division   1.4041  974
  #      outer_grid 974
        outer_grid 302
  ################################################################################
  #
  #  Definition of "minimal" basis
  #
  ################################################################################
  #     valence basis states
      valence      2  s   2.
      valence      2  p   4.
  #     ion occupancy
      ion_occ      2  s   1.
      ion_occ      2  p   3.
  ################################################################################
  #
  #  Suggested additional basis functions. For production calculations,
  #  uncomment them one after another (the most important basis functions are
  #  listed first).
  #
  ################################################################################
  #  "First tier" - improvements: -699.05 meV to -159.38 meV
       hydro 2 p 1.8
       hydro 3 d 7.6
       hydro 3 s 6.4
  #  "Second tier" - improvements: -49.91 meV to -5.39 meV
       hydro 4 f 11.6
       hydro 3 p 6.2
       hydro 3 d 5.6
       hydro 5 g 17.6
       hydro 1 s 0.75
  #  "Third tier" - improvements: -2.83 meV to -0.50 meV
  #     ionic 2 p auto
  #     hydro 4 f 10.8
  #     hydro 4 d 4.7
  #     hydro 2 s 6.8
  #  "Fourth tier" - improvements: -0.40 meV to -0.12 meV
  #     hydro 3 p 5
  #     hydro 3 s 3.3
  #     hydro 5 g 15.6
  #     hydro 4 f 17.6
  #     hydro 4 d 14
  # Further basis functions - -0.08 meV and below
  #     hydro 3 s 2.1
  #     hydro 4 d 11.6
  #     hydro 3 p 16
  #     hydro 2 s 17.2
  
  
  -----------------------------------------------------------------------
  Completed first pass over input file control.in .
  -----------------------------------------------------------------------
  
  
  -----------------------------------------------------------------------
  Parsing geometry.in (first pass over file, find array dimensions only).
  The contents of geometry.in will be repeated verbatim below
  unless switched off by setting 'verbatim_writeout .false.' .
  in the first line of geometry.in .
  -----------------------------------------------------------------------
  
  atom      -4.053030000      0.065001000     -1.525160000  O
  atom      -4.566710000      0.974813000     -1.912820000  H
  atom      -3.067820000      0.330172000     -1.477310000  H
  atom      -5.293160000      2.192130000     -2.328800000  O
  atom      -4.829300000      2.988660000     -1.973850000  H
  atom      -5.428570000      2.328640000     -3.235170000  H
  atom      -3.818880000      2.024990000      2.187990000  O
  atom      -3.690880000      1.961360000      3.202150000  H
  atom      -4.546490000      2.751300000      2.045370000  H
  atom      -1.975360000      2.858040000      0.453140000  O
  atom      -1.223550000      3.375850000      0.786238000  H
  atom      -2.537520000      2.567960000      1.156120000  H
  
  -----------------------------------------------------------------------
  Completed first pass over input file geometry.in .
  -----------------------------------------------------------------------
  
 
  Basic array size parameters: 
  | Number of species                 :        2
  | Number of atoms                   :       12
  | Max. basis fn. angular momentum   :        4
  | Max. atomic/ionic basis occupied n:        2
  | Max. number of basis fn. types    :        2
  | Max. radial fns per species/type  :        8
  | Max. logarithmic grid size        :     1301
  | Max. radial integration grid size :       73
  | Max. angular integration grid size:      302
  | Max. angular grid division number :        8
  | Radial grid for Hartree potential :     1301
  | Number of spin channels           :        1

------------------------------------------------------------
          Reading file control.in.
------------------------------------------------------------
  XC: Using RPBE gradient-corrected functionals.
  Spin treatment: No spin polarisation.
  Scalar relativistic treatment of kinetic energy: on-site free-atom approximation to ZORA.
  Charge =   0.000000E+00: Neutral system requested explicitly.
  Using non-empirical van der Waals correction (Hirshfeld partitioning):
  Occupation type: Gaussian broadening, width =   0.100000E-01 eV.
  Using pulay charge density mixing.
  Pulay mixing - number of memorized iterations:   10
  Charge density mixing - mixing parameter:     0.1000
  Convergence accuracy of self-consistent charge density: 0.5000E-04
  Convergence accuracy of sum of eigenvalues: 0.5000E-02
  Convergence accuracy of total energy: 0.5000E-05
  Maximum number of s.-c. iterations  :  3000
  Kohn-Sham eigenvalues and eigenfunctions calculated by lapack diagonalisation (D&C).
  Number of empty states per atom:        8
  Threshold for basis singularities: 0.0000E+00
  Partition function in integrals calculations: rho / r^2
 Using packed matrix format           0
  Convergence accuracy of forces: 0.5000E-03
  Cleaning forces before final output.
  Hirshfeld charge analysis will be performed.
 
  Reading configuration options for species H                   .
  | Found nuclear charge :   1.0000
  | Found cutoff potl. onset [A], width [A], scale factor :    4.00000    2.00000    1.00000
  | Found cutoff specification for free atom: Cutoff potential begins at    8.00000 A.
  | Found logarithmic grid data [bohr] : 0.1000E-03 0.1000E+03 0.1012E+01
  | Threshold for basis-dependent cutoff potential is   0.100000E-03
  | Found data for basic radial integration grid :    24 points, outermost radius =    7.000 A
  | Found multiplier for basic radial grid :   2
  | Found angular grid specification: user-specified.
  | Specified grid contains     4 separate shells.
  | Check grid settings after all constraints further below.
  | Found l_max for Hartree potential  :   4
  | Found free-atom valence shell :  1 s   1.000
  | No ionic wave fns used. Skipping ion_occ.
  | Found hydrogenic basis function :  2 s   2.100
  | Found hydrogenic basis function :  2 p   3.500
  | Found hydrogenic basis function :  1 s   0.850
  | Found hydrogenic basis function :  2 p   3.700
  | Found hydrogenic basis function :  2 s   1.200
  | Found hydrogenic basis function :  3 d   7.000
  Species H                   : Missing cutoff potential type.
  Defaulting to exp(1/x)/(1-x)^2 type cutoff potential.
  Species H : On-site basis accuracy parameter (for Gram-Schmidt orthonormalisation) not specified.
  Using default value basis_acc =  0.1000000E-03.
  Species H                   : Using default innermost maximum threshold i_radial=  2 for radial functions.
  Species H                   : Basic radial grid will be enhanced according to radial_multiplier =   2, to contain    49 grid points.
 
  Reading configuration options for species O                   .
  | Found nuclear charge :   8.0000
  | Found atomic mass :    15.9994000000000      amu
  | Found l_max for Hartree potential  :   4
  | Found cutoff potl. onset [A], width [A], scale factor :    4.00000    2.00000    1.00000
  | Found cutoff specification for free atom: Cutoff potential begins at    8.00000 A.
  | Threshold for basis-dependent cutoff potential is   0.100000E-03
  | Found logarithmic grid data [bohr] : 0.1000E-03 0.1000E+03 0.1012E+01
  | Found data for basic radial integration grid :    36 points, outermost radius =    7.000 A
  | Found multiplier for basic radial grid :   2
  | Found angular grid specification: user-specified.
  | Specified grid contains     4 separate shells.
  | Check grid settings after all constraints further below.
  | Found free-atom valence shell :  2 s   2.000
  | Found free-atom valence shell :  2 p   4.000
  | No ionic wave fns used. Skipping ion_occ.
  | No ionic wave fns used. Skipping ion_occ.
  | Found hydrogenic basis function :  2 p   1.800
  | Found hydrogenic basis function :  3 d   7.600
  | Found hydrogenic basis function :  3 s   6.400
  | Found hydrogenic basis function :  4 f  11.600
  | Found hydrogenic basis function :  3 p   6.200
  | Found hydrogenic basis function :  3 d   5.600
  | Found hydrogenic basis function :  5 g  17.600
  | Found hydrogenic basis function :  1 s   0.750
  Species O                   : Missing cutoff potential type.
  Defaulting to exp(1/x)/(1-x)^2 type cutoff potential.
  Species O : On-site basis accuracy parameter (for Gram-Schmidt orthonormalisation) not specified.
  Using default value basis_acc =  0.1000000E-03.
  Species O                   : Using default innermost maximum threshold i_radial=  2 for radial functions.
  Species O                   : Basic radial grid will be enhanced according to radial_multiplier =   2, to contain    73 grid points.
 
  Finished reading input file 'control.in'. Consistency checks are next.
 
  Target number of points in a grid batch is not set. Defaulting to  100
  Method for grid partitioning is not set. Defaulting to parallel hash+maxmin partitioning.
  Batch size limit is not set. Defaulting to    200
  By default, will store active basis functions for each batch.
  If in need of memory, prune_basis_once .false. can be used to disable this option.
  communication_type for Hartree potential was not specified.
  Defaulting to calc_hartree .
  Pulay mixer: Number of initial linear mixing iterations not set.
  Defaulting to    0 iterations.
  Work space size for distributed Hartree potential not set.
  Defaulting to   0.200000E+03 MB.
  Algorithm-dependent basis array size parameters:
  | n_max_pulay                         :       10
  Geometry relaxation not requested: no relaxation will be performed.
  Handling of forces: Unphysical translation and rotation will be removed from forces.
  No accuracy limit for integral partition fn. given. Defaulting to 0.1000E-14.
  No threshold value for u(r) in integrations given. Defaulting to 0.1000E-05.
  No accuracy for occupation numbers given. Defaulting to 0.1000E-07.
  No threshold value for occupation numbers given. Defaulting to 0.0000E+00.
  No accuracy for fermi level given. Defaulting to 0.1000E-19.
  Maximum # of iterations to find E_F not set. Defaulting to  200.
  Will not use alltoall communication since running on < 1024 CPUs.
  Partitioning for Hartree potential was not defined. Using partition_type for integrals.
  | Reporting present value of keyword multip_moments_threshold  :       0.10000000E-09
  | This value may affect high angular momentum components of the Hartree potential in periodic systems.
  No q(lm)/r^(l+1) cutoff set for long-range Hartree potential.
  | Using default value of  0.100000E-09 .
  | Verify using the multipole_threshold keyword.
  Defaulting to new monopole extrapolation.
  Density update method: Loop over occupied states selected for charge density update.
------------------------------------------------------------


------------------------------------------------------------
          Reading geometry description geometry.in.
------------------------------------------------------------
  Input structure read successfully.
  The structure contains       12 atoms,  and a total of         40.000 electrons.

  Input geometry:
  | No unit cell requested.
  | Atomic structure:
  |       Atom                x [A]            y [A]            z [A]
  |    1: Species O             -4.053030         0.065001        -1.525160
  |    2: Species H             -4.566710         0.974813        -1.912820
  |    3: Species H             -3.067820         0.330172        -1.477310
  |    4: Species O             -5.293160         2.192130        -2.328800
  |    5: Species H             -4.829300         2.988660        -1.973850
  |    6: Species H             -5.428570         2.328640        -3.235170
  |    7: Species O             -3.818880         2.024990         2.187990
  |    8: Species H             -3.690880         1.961360         3.202150
  |    9: Species H             -4.546490         2.751300         2.045370
  |   10: Species O             -1.975360         2.858040         0.453140
  |   11: Species H             -1.223550         3.375850         0.786238
  |   12: Species H             -2.537520         2.567960         1.156120
  |

  | The smallest distance between any two atoms is         0.92654057 AA.
  |
  | The first atom of this pair is atom number                      4 .
  | The second atom of this pair is atom number                     6 .

  Structure-dependent array size parameters: 
  | Maximum number of distinct radial functions  :       18
  | Maximum number of basis functions            :      276
  | Number of Kohn-Sham states (occupied + empty):       68
------------------------------------------------------------

------------------------------------------------------------
          Preparing all fixed parts of the calculation.
------------------------------------------------------------
  Determining machine precision:
    2.225073858507201E-308
  Setting up grids for atomic and cluster calculations.

  Creating wave function, potential, and density for free atoms.

  Species: H

  List of occupied orbitals and eigenvalues:
    n    l              occ      energy [Ha]    energy [eV]
    1    0           1.0000        -0.241408        -6.5691


  Species: O

  List of occupied orbitals and eigenvalues:
    n    l              occ      energy [Ha]    energy [eV]
    1    0           2.0000       -18.944147      -515.4965
    2    0           2.0000        -0.883529       -24.0421
    2    1           4.0000        -0.330176        -8.9845

  Creating fixed part of basis set: Ionic, confined, hydrogenic.
 
  H                    hydrogenic:
 
  List of hydrogenic basis orbitals: 
    n    l      effective z      eigenvalue [eV]  inner max. [A]     outer max. [A]     outer radius [A]   
    2    0         2.100000       -14.9965           0.193241           1.317192           5.372934
    2    1         3.500000       -41.6672           0.602363           0.602363           4.056010
    1    0         0.850000        -9.8292           0.624864           0.624864           5.372934
    2    1         3.700000       -46.5653           0.573616           0.573616           3.909951
    2    0         1.200000        -4.5995           0.334977           2.228160           5.505921
    3    2         7.000000       -74.0753           0.680692           0.680692           3.769152
 
 
  O                    hydrogenic:
 
  List of hydrogenic basis orbitals: 
    n    l      effective z      eigenvalue [eV]  inner max. [A]     outer max. [A]     outer radius [A]   
    2    1         1.800000       -11.0118           1.178546           1.178546           5.432516
    3    2         7.600000       -87.3182           0.624117           0.624117           3.541422
    3    0         6.400000       -61.9209           0.061166           1.081887           4.306510
    4    3        11.600000      -114.4238           0.731621           0.731621           3.584982
    3    1         6.200000       -58.1113           0.255677           1.030255           4.306510
    3    2         5.600000       -47.4081           0.847222           0.847222           4.413102
    5    4        17.600000      -168.5799           0.749730           0.749730           3.372413
    1    0         0.750000        -7.6499           0.705275           0.705275           5.366508
 

  Adding cutoff potential to free-atom effective potential.
  Creating atomic-like basis functions for current effective potential.

  Species H                   :

  List of atomic basis orbitals and eigenvalues:
    n    l      energy [Ha]    energy [eV]    outer radius [A]
    1    0        -0.241374        -6.5681       5.372934


  Species O                   :

  List of atomic basis orbitals and eigenvalues:
    n    l      energy [Ha]    energy [eV]    outer radius [A]
    1    0       -18.944147      -515.4965       1.415745
    2    0        -0.883529       -24.0421       5.048305
    2    1        -0.330173        -8.9845       5.301302

  Assembling full basis from fixed parts.
  | Species H :   atomic orbital   1 s accepted.
  | Species H :    hydro orbital   2 s accepted.
  | Species H :    hydro orbital   1 s accepted.
  | Species H :    hydro orbital   2 s accepted.
  | Species H :    hydro orbital   2 p accepted.
  | Species H :    hydro orbital   2 p accepted.
  | Species H :    hydro orbital   3 d accepted.
  | Species O :   atomic orbital   1 s accepted.
  | Species O :    hydro orbital   3 s accepted.
  | Species O :   atomic orbital   2 s accepted.
  | Species O :    hydro orbital   1 s accepted.
  | Species O :    hydro orbital   3 p accepted.
  | Species O :   atomic orbital   2 p accepted.
  | Species O :    hydro orbital   2 p accepted.
  | Species O :    hydro orbital   3 d accepted.
  | Species O :    hydro orbital   3 d accepted.
  | Species O :    hydro orbital   4 f accepted.
  | Species O :    hydro orbital   5 g accepted.
 
  Basis size parameters after reduction:
  | Total number of radial functions:       18
  | Total number of basis functions :      276
 
  Testing on-site integration grid accuracy.
  |  Species  Function  <phi|h_atom|phi> (log., in eV)  <phi|h_atom|phi> (rad., in eV)
           1        1                 -6.5683835025                 -6.5684759159
           1        2                 13.3711789951                 13.3708738703
           1        3                 23.6590910787                 23.6532055418
           1        4                 16.2963827186                 16.1870710655 ***
           1        5                 28.7627214838                 28.7627215090
           1        6                 59.5965249172                 59.5965950857
           1        7                 60.2220506392                 60.2220503827
           2        8               -515.4964576505               -515.4964530710
           2        9                 15.3030791347                 15.3030722972
           2       10                -21.7296094581                -21.7296135470
           2       11                 14.2969371730                 14.2969701621
           2       12                 21.0679693190                 21.0679697493
           2       13                 -2.3833606469                 -2.3833613176
           2       14                 13.7067136422                 13.7066766629
           2       15                 45.8013116808                 45.8013116965
           2       16                 52.2309815402                 52.2309831494
           2       17                 85.4120732416                 85.4120732763
           2       18                142.1019167745                142.1019167817
 * Note: Onsite integrals marked "***" above are less accurate than
 * onsite_accuracy_threshold =    0.03000 eV. Usually, this is harmless.
 * When in doubt, tighten the "radial" and/or "radial_multiplier" flags to check.

  Preparing densities etc. for the partition functions (integrals / Hartree potential).

  Preparations completed.
  max(cpu_time)          :      0.172 s.
  Wall clock time (cpu1) :      0.473 s.
------------------------------------------------------------

------------------------------------------------------------
          Begin self-consistency loop: Initialization.

          Date     :  20150727, Time     :  122635.714
------------------------------------------------------------

  Initializing index lists of integration centers etc. from given atomic structure:
  | Number of centers in hartree potential         :        12
  | Number of centers in hartree multipole         :        12
  | Number of centers in electron density summation:        12
  | Number of centers in basis integrals           :        12
  | Number of centers in integrals                 :        12
  Partitioning the integration grid into batches with parallel hashing+maxmin method.
  | Number of batches:     1555
  | Maximal batch size:     200
  | Minimal batch size:      49
  | Average batch size:     101.201
  | Standard deviation of batch sizes:      29.128

  Integration load balanced across     8 MPI tasks.
  Work distribution over tasks is as follows:
  Task     0 has      19616 integration points.
  Task     1 has      19671 integration points.
  Task     2 has      19638 integration points.
  Task     3 has      19701 integration points.
  Task     4 has      19736 integration points.
  Task     5 has      19636 integration points.
  Task     6 has      19670 integration points.
  Task     7 has      19700 integration points.
  Initializing partition tables, free-atom densities, potentials, etc. across the integration grid (initialize_grid_storage).
  | Net number of integration points:   157368
  | of which are non-zero points    :   156836
  Obtaining max. number of non-zero basis functions in each batch (get_n_compute_maxes).
  | Maximal number of non-zero basis functions:      273 in task     0
  | Maximal number of non-zero basis functions:      274 in task     1
  | Maximal number of non-zero basis functions:      273 in task     2
  | Maximal number of non-zero basis functions:      273 in task     3
  | Maximal number of non-zero basis functions:      274 in task     4
  | Maximal number of non-zero basis functions:      273 in task     5
  | Maximal number of non-zero basis functions:      273 in task     6
  | Maximal number of non-zero basis functions:      274 in task     7
  Integrating Hamiltonian matrix: batch-based integration.
  Time summed over all CPUs for integration: real work        4.158 s, elapsed        4.325 s
  Integrating overlap matrix.
  Time summed over all CPUs for integration: real work        2.198 s, elapsed        2.280 s

  Updating Kohn-Sham eigenvalues, eigenvectors, occupation numbers, and Fermi level.
  Solving generalized eigenproblem
  Updating Kohn-Sham eigenvalues and eigenfunctions.
  Transforming overlap matrix and checking for singularities.
  Overlap matrix is nonsingular:
  | Lowest eigenvalue:  0.310212E-03
  Solving real generalised eigenvalue problem by standard LAPACK (fast)
  Determining occupation numbers for Kohn-Sham eigenstates.
  | Chemical potential (Fermi level) in eV                 : -.54638759E+01
  | Error in electron count due to remaining E_F inaccuracy: 0.00000000E+00
  | Maximum occupation number of highest empty state:  0.00E+00

  Writing Kohn-Sham eigenvalues.

  State    Occupation    Eigenvalue [Ha]    Eigenvalue [eV]
      1       2.00000         -19.064783         -518.77915
      2       2.00000         -19.054628         -518.50280
      3       2.00000         -19.032582         -517.90290
      4       2.00000         -19.019416         -517.54464
      5       2.00000          -1.121136          -30.50767
      6       2.00000          -1.105402          -30.07951
      7       2.00000          -1.064864          -28.97643
      8       2.00000          -1.043111          -28.38450
      9       2.00000          -0.651586          -17.73056
     10       2.00000          -0.650060          -17.68904
     11       2.00000          -0.596122          -16.22130
     12       2.00000          -0.594036          -16.16454
     13       2.00000          -0.524332          -14.26780
     14       2.00000          -0.509066          -13.85240
     15       2.00000          -0.490144          -13.33749
     16       2.00000          -0.481878          -13.11256
     17       2.00000          -0.440884          -11.99706
     18       2.00000          -0.438620          -11.93546
     19       2.00000          -0.424837          -11.56041
     20       2.00000          -0.409554          -11.14453
     21       0.00000          -0.091648           -2.49387
     22       0.00000          -0.071168           -1.93658
     23       0.00000          -0.046784           -1.27306
     24       0.00000          -0.036152           -0.98376
     25       0.00000          -0.017348           -0.47205
     26       0.00000           0.001152            0.03134
     27       0.00000           0.039257            1.06822
     28       0.00000           0.054367            1.47939
     29       0.00000           0.076237            2.07450
     30       0.00000           0.079977            2.17628
     31       0.00000           0.092439            2.51539
     32       0.00000           0.096590            2.62834
     33       0.00000           0.102537            2.79017
     34       0.00000           0.106555            2.89950
     35       0.00000           0.111715            3.03992
     36       0.00000           0.123890            3.37123
     37       0.00000           0.135329            3.68248
     38       0.00000           0.149672            4.07279
     39       0.00000           0.154860            4.21397
     40       0.00000           0.167753            4.56479
     41       0.00000           0.184194            5.01218
     42       0.00000           0.186522            5.07552
     43       0.00000           0.239969            6.52989
     44       0.00000           0.244976            6.66614
     45       0.00000           0.248517            6.76250
     46       0.00000           0.267079            7.26758
     47       0.00000           0.275441            7.49512
     48       0.00000           0.287483            7.82282
     49       0.00000           0.334724            9.10830
     50       0.00000           0.349626            9.51382
     51       0.00000           0.359881            9.79285
     52       0.00000           0.373671           10.16811
     53       0.00000           0.384184           10.45417
     54       0.00000           0.398643           10.84763
     55       0.00000           0.405383           11.03102
     56       0.00000           0.418983           11.40110
     57       0.00000           0.437853           11.91460
     58       0.00000           0.443113           12.05772
     59       0.00000           0.456712           12.42778
     60       0.00000           0.477983           13.00659
     61       0.00000           0.496682           13.51542
     62       0.00000           0.536417           14.59664
     63       0.00000           0.547027           14.88535
     64       0.00000           0.570758           15.53111
     65       0.00000           0.580425           15.79417
     66       0.00000           0.603314           16.41700
     67       0.00000           0.654317           17.80488
     68       0.00000           0.673818           18.33551

  Highest occupied state (VBM) at    -11.14453219 eV
  | Occupation number:      2.00000000

  Lowest unoccupied state (CBM) at    -2.49386597 eV
  | Occupation number:      0.00000000

  Overall HOMO-LUMO gap:      8.65066622 eV.
  Calculating total energy contributions from superposition of free atom densities.

  Total energy components:
  | Sum of eigenvalues            :        -173.43408207 Ha       -4719.38149253 eV
  | XC energy correction          :         -36.43715182 Ha        -991.50534834 eV
  | XC potential correction       :          46.55590752 Ha        1266.85070040 eV
  | Free-atom electrostatic energy:        -143.15162610 Ha       -3895.35393967 eV
  | Hartree energy correction     :           0.00000000 Ha           0.00000000 eV
  | van der Waals energy corr.    :           0.00000000 Ha           0.00000000 eV
  | Entropy correction            :           0.00000000 Ha           0.00000000 eV
  | ---------------------------
  | Total energy                  :        -306.46695247 Ha       -8339.39008014 eV
  | Total energy, T -> 0          :        -306.46695247 Ha       -8339.39008014 eV  <-- do not rely on this value for anything but (periodic) metals
  | Electronic free energy        :        -306.46695247 Ha       -8339.39008014 eV

  Derived energy quantities:
  | Kinetic energy                :         303.28613321 Ha        8252.83558431 eV
  | Electrostatic energy          :        -573.31593386 Ha      -15600.72031611 eV
  | Energy correction for multipole
  | error in Hartree potential    :           0.00000000 Ha           0.00000000 eV
  | Sum of eigenvalues per atom                           :        -393.28179104 eV
  | Total energy (T->0) per atom                          :        -694.94917334 eV  <-- do not rely on this value for anything but (periodic) metals
  | Electronic free energy per atom                       :        -694.94917334 eV
  Initialize hartree_potential_storage
  Max. number of atoms included in rho_multipole:           12

  End scf initialization - timings             :  max(cpu_time)    wall_clock(cpu1)
  | Time for scf. initialization               :        1.203 s           1.202 s
  | Boundary condition initialization          :        0.000 s           0.000 s
  | Integration                                :        0.829 s           0.829 s
  | Solution of K.-S. eqns.                    :        0.119 s           0.118 s
  | Grid partitioning                          :        0.108 s           0.107 s
  | Preloading free-atom quantities on grid    :        0.014 s           0.013 s
  | Free-atom superposition energy             :        0.045 s           0.046 s
  | Total energy evaluation                    :        0.000 s           0.000 s
------------------------------------------------------------

------------------------------------------------------------
          Begin self-consistency iteration #    1

  Date     :  20150727, Time     :  122636.916
------------------------------------------------------------
  Evaluating new KS density.
  Integration grid: deviation in total charge (<rho> - N_e) =   0.000000E+00
  Pulay mixing of updated and previous charge densities.

  Evaluating partitioned Hartree potential by multipole expansion.
  | Analytical far-field extrapolation by fixed multipoles:
  | Hartree multipole sum: apparent total charge =  -0.178931E-05
  Summing up the Hartree potential.
  Time summed over all CPUs for potential: real work        1.653 s, elapsed        1.657 s
  | RMS charge density error from multipole expansion :   0.144814E-02

  Integrating Hamiltonian matrix: batch-based integration.
  Time summed over all CPUs for integration: real work        4.145 s, elapsed        4.302 s

  Updating Kohn-Sham eigenvalues, eigenvectors, occupation numbers, and Fermi level.
  Solving generalized eigenproblem
  Updating Kohn-Sham eigenvalues and eigenfunctions.
  Solving real generalised eigenvalue problem by standard LAPACK (fast)
  Determining occupation numbers for Kohn-Sham eigenstates.
  | Chemical potential (Fermi level) in eV                 : -.50523465E+01
  | Error in electron count due to remaining E_F inaccuracy: 0.00000000E+00
  | Maximum occupation number of highest empty state:  0.00E+00

  Writing Kohn-Sham eigenvalues.

  State    Occupation    Eigenvalue [Ha]    Eigenvalue [eV]
      1       2.00000         -18.997719         -516.95423
      2       2.00000         -18.968935         -516.17097
      3       2.00000         -18.965770         -516.08485
      4       2.00000         -18.931866         -515.16229
      5       2.00000          -1.089788          -29.65463
      6       2.00000          -1.062022          -28.89908
      7       2.00000          -1.032139          -28.08594
      8       2.00000          -0.995225          -27.08146
      9       2.00000          -0.623247          -16.95940
     10       2.00000          -0.613655          -16.69840
     11       2.00000          -0.567511          -15.44277
     12       2.00000          -0.560463          -15.25098
     13       2.00000          -0.485672          -13.21582
     14       2.00000          -0.471072          -12.81851
     15       2.00000          -0.452070          -12.30146
     16       2.00000          -0.443100          -12.05738
     17       2.00000          -0.399771          -10.87832
     18       2.00000          -0.394530          -10.73570
     19       2.00000          -0.388671          -10.57627
     20       2.00000          -0.360204           -9.80164
     21       0.00000          -0.084313           -2.29428
     22       0.00000          -0.064073           -1.74353
     23       0.00000          -0.037943           -1.03248
     24       0.00000          -0.025374           -0.69047
     25       0.00000          -0.011832           -0.32196
     26       0.00000           0.006880            0.18723
     27       0.00000           0.049612            1.35001
     28       0.00000           0.062270            1.69447
     29       0.00000           0.086255            2.34713
     30       0.00000           0.088971            2.42101
     31       0.00000           0.102761            2.79626
     32       0.00000           0.107177            2.91645
     33       0.00000           0.112680            3.06618
     34       0.00000           0.115925            3.15449
     35       0.00000           0.122950            3.34564
     36       0.00000           0.131902            3.58924
     37       0.00000           0.149874            4.07829
     38       0.00000           0.161110            4.38403
     39       0.00000           0.165674            4.50822
     40       0.00000           0.175544            4.77679
     41       0.00000           0.193534            5.26632
     42       0.00000           0.198772            5.40887
     43       0.00000           0.250445            6.81497
     44       0.00000           0.255052            6.94032
     45       0.00000           0.256925            6.99128
     46       0.00000           0.275861            7.50657
     47       0.00000           0.283361            7.71065
     48       0.00000           0.298000            8.10899
     49       0.00000           0.342302            9.31450
     50       0.00000           0.358882            9.76568
     51       0.00000           0.371005           10.09557
     52       0.00000           0.382872           10.41848
     53       0.00000           0.393307           10.70244
     54       0.00000           0.409183           11.13444
     55       0.00000           0.414963           11.29171
     56       0.00000           0.426851           11.61520
     57       0.00000           0.444638           12.09923
     58       0.00000           0.453495           12.34022
     59       0.00000           0.464673           12.64440
     60       0.00000           0.491801           13.38257
     61       0.00000           0.508776           13.84449
     62       0.00000           0.547227           14.89081
     63       0.00000           0.558636           15.20125
     64       0.00000           0.583713           15.88363
     65       0.00000           0.592113           16.11221
     66       0.00000           0.618106           16.81951
     67       0.00000           0.666998           18.14995
     68       0.00000           0.686533           18.68151

  Highest occupied state (VBM) at     -9.80164485 eV
  | Occupation number:      2.00000000

  Lowest unoccupied state (CBM) at    -2.29428153 eV
  | Occupation number:      0.00000000

  Overall HOMO-LUMO gap:      7.50736332 eV.

  Total energy components:
  | Sum of eigenvalues            :        -171.60685781 Ha       -4669.66019068 eV
  | XC energy correction          :         -36.63144335 Ha        -996.79228980 eV
  | XC potential correction       :          46.81045809 Ha        1273.77737374 eV
  | Free-atom electrostatic energy:        -143.15162610 Ha       -3895.35393967 eV
  | Hartree energy correction     :          -1.76901861 Ha         -48.13744547 eV
  | van der Waals energy corr.    :           0.00000000 Ha           0.00000000 eV
  | Entropy correction            :           0.00000000 Ha           0.00000000 eV
  | ---------------------------
  | Total energy                  :        -306.34848778 Ha       -8336.16649188 eV
  | Total energy, T -> 0          :        -306.34848778 Ha       -8336.16649188 eV  <-- do not rely on this value for anything but (periodic) metals
  | Electronic free energy        :        -306.34848778 Ha       -8336.16649188 eV

  Derived energy quantities:
  | Kinetic energy                :         304.43823073 Ha        8284.18575295 eV
  | Electrostatic energy          :        -574.15527516 Ha      -15623.55995504 eV
  | Energy correction for multipole
  | error in Hartree potential    :          -0.00010951 Ha          -0.00297997 eV
  | Sum of eigenvalues per atom                           :        -389.13834922 eV
  | Total energy (T->0) per atom                          :        -694.68054099 eV  <-- do not rely on this value for anything but (periodic) metals
  | Electronic free energy per atom                       :        -694.68054099 eV

  Self-consistency convergence accuracy:
  | Change of charge density      : 0.5952E+00
  | Change of sum of eigenvalues  : 0.4972E+02 eV
  | Change of total energy        : 0.3224E+01 eV

  End self-consistency iteration #     1       :  max(cpu_time)    wall_clock(cpu1)
  | Time for this iteration                    :        1.159 s           1.159 s
  | Charge density update                      :        0.372 s           0.373 s
  | Density mixing                             :        0.003 s           0.002 s
  | Hartree multipole update                   :        0.005 s           0.005 s
  | Hartree multipole summation                :        0.208 s           0.208 s
  | Integration                                :        0.539 s           0.539 s
  | Solution of K.-S. eqns.                    :        0.031 s           0.031 s
  | Total energy evaluation                    :        0.000 s           0.001 s
------------------------------------------------------------

------------------------------------------------------------
          Begin self-consistency iteration #    2

  Date     :  20150727, Time     :  122638.075
------------------------------------------------------------
  Evaluating new KS density.
  Integration grid: deviation in total charge (<rho> - N_e) =   0.000000E+00
  Pulay mixing of updated and previous charge densities.

  Evaluating partitioned Hartree potential by multipole expansion.
  | Analytical far-field extrapolation by fixed multipoles:
  | Hartree multipole sum: apparent total charge =  -0.533515E-05
  Summing up the Hartree potential.
  Time summed over all CPUs for potential: real work        1.653 s, elapsed        1.656 s
  | RMS charge density error from multipole expansion :   0.579002E-02

  Integrating Hamiltonian matrix: batch-based integration.
  Time summed over all CPUs for integration: real work        4.134 s, elapsed        4.290 s

  Updating Kohn-Sham eigenvalues, eigenvectors, occupation numbers, and Fermi level.
  Solving generalized eigenproblem
  Updating Kohn-Sham eigenvalues and eigenfunctions.
  Solving real generalised eigenvalue problem by standard LAPACK (fast)
  Determining occupation numbers for Kohn-Sham eigenstates.
  | Chemical potential (Fermi level) in eV                 : -.40125890E+01
  | Error in electron count due to remaining E_F inaccuracy: 0.00000000E+00
  | Maximum occupation number of highest empty state:  0.00E+00

  Highest occupied state (VBM) at     -6.61343247 eV
  | Occupation number:      2.00000000

  Lowest unoccupied state (CBM) at    -1.86013308 eV
  | Occupation number:      0.00000000

  Overall HOMO-LUMO gap:      4.75329939 eV.

  Total energy components:
  | Sum of eigenvalues            :        -167.29769755 Ha       -4552.40197411 eV
  | XC energy correction          :         -37.10917226 Ha       -1009.79195477 eV
  | XC potential correction       :          47.43586834 Ha        1290.79565256 eV
  | Free-atom electrostatic energy:        -143.15162610 Ha       -3895.35393967 eV
  | Hartree energy correction     :          -6.08775603 Ha        -165.65627021 eV
  | van der Waals energy corr.    :           0.00000000 Ha           0.00000000 eV
  | Entropy correction            :           0.00000000 Ha           0.00000000 eV
  | ---------------------------
  | Total energy                  :        -306.21038361 Ha       -8332.40848619 eV
  | Total energy, T -> 0          :        -306.21038361 Ha       -8332.40848619 eV  <-- do not rely on this value for anything but (periodic) metals
  | Electronic free energy        :        -306.21038361 Ha       -8332.40848619 eV

  Derived energy quantities:
  | Kinetic energy                :         306.74310124 Ha        8346.90447059 eV
  | Electrostatic energy          :        -575.84431259 Ha      -15669.52100201 eV
  | Energy correction for multipole
  | error in Hartree potential    :          -0.00103261 Ha          -0.02809872 eV
  | Sum of eigenvalues per atom                           :        -379.36683118 eV
  | Total energy (T->0) per atom                          :        -694.36737385 eV  <-- do not rely on this value for anything but (periodic) metals
  | Electronic free energy per atom                       :        -694.36737385 eV

  Self-consistency convergence accuracy:
  | Change of charge density      : 0.4499E+00
  | Change of sum of eigenvalues  : 0.1173E+03 eV
  | Change of total energy        : 0.3758E+01 eV

  End self-consistency iteration #     2       :  max(cpu_time)    wall_clock(cpu1)
  | Time for this iteration                    :        1.154 s           1.154 s
  | Charge density update                      :        0.368 s           0.369 s
  | Density mixing                             :        0.005 s           0.004 s
  | Hartree multipole update                   :        0.004 s           0.004 s
  | Hartree multipole summation                :        0.208 s           0.208 s
  | Integration                                :        0.537 s           0.537 s
  | Solution of K.-S. eqns.                    :        0.030 s           0.031 s
  | Total energy evaluation                    :        0.000 s           0.000 s
------------------------------------------------------------

------------------------------------------------------------
          Begin self-consistency iteration #    3

  Date     :  20150727, Time     :  122639.229
------------------------------------------------------------
  Evaluating new KS density.
  Integration grid: deviation in total charge (<rho> - N_e) =   0.000000E+00
  Pulay mixing of updated and previous charge densities.

  Evaluating partitioned Hartree potential by multipole expansion.
  | Analytical far-field extrapolation by fixed multipoles:
  | Hartree multipole sum: apparent total charge =  -0.589599E-05
  Summing up the Hartree potential.
  Time summed over all CPUs for potential: real work        1.653 s, elapsed        1.656 s
  | RMS charge density error from multipole expansion :   0.117090E-01

  Integrating Hamiltonian matrix: batch-based integration.
  Time summed over all CPUs for integration: real work        4.132 s, elapsed        4.281 s

  Updating Kohn-Sham eigenvalues, eigenvectors, occupation numbers, and Fermi level.
  Solving generalized eigenproblem
  Updating Kohn-Sham eigenvalues and eigenfunctions.
  Solving real generalised eigenvalue problem by standard LAPACK (fast)
  Determining occupation numbers for Kohn-Sham eigenstates.
  | Chemical potential (Fermi level) in eV                 : -.37569681E+01
  | Error in electron count due to remaining E_F inaccuracy: 0.00000000E+00
  | Maximum occupation number of highest empty state:  0.00E+00

  Highest occupied state (VBM) at     -6.38745980 eV
  | Occupation number:      2.00000000

  Lowest unoccupied state (CBM) at    -1.80366852 eV
  | Occupation number:      0.00000000

  Overall HOMO-LUMO gap:      4.58379127 eV.

  Total energy components:
  | Sum of eigenvalues            :        -167.44610464 Ha       -4556.44033636 eV
  | XC energy correction          :         -37.08559968 Ha       -1009.15051217 eV
  | XC potential correction       :          47.40141302 Ha        1289.85807545 eV
  | Free-atom electrostatic energy:        -143.15162610 Ha       -3895.35393967 eV
  | Hartree energy correction     :          -5.92341989 Ha        -161.18445609 eV
  | van der Waals energy corr.    :           0.00000000 Ha           0.00000000 eV
  | Entropy correction            :           0.00000000 Ha           0.00000000 eV
  | ---------------------------
  | Total energy                  :        -306.20533729 Ha       -8332.27116884 eV
  | Total energy, T -> 0          :        -306.20533729 Ha       -8332.27116884 eV  <-- do not rely on this value for anything but (periodic) metals
  | Electronic free energy        :        -306.20533729 Ha       -8332.27116884 eV

  Derived energy quantities:
  | Kinetic energy                :         305.08033189 Ha        8301.65821436 eV
  | Electrostatic energy          :        -574.20006950 Ha      -15624.77887103 eV
  | Energy correction for multipole
  | error in Hartree potential    :          -0.00472016 Ha          -0.12844216 eV
  | Sum of eigenvalues per atom                           :        -379.70336136 eV
  | Total energy (T->0) per atom                          :        -694.35593074 eV  <-- do not rely on this value for anything but (periodic) metals
  | Electronic free energy per atom                       :        -694.35593074 eV

  Self-consistency convergence accuracy:
  | Change of charge density      : 0.2250E+00
  | Change of sum of eigenvalues  : -.4038E+01 eV
  | Change of total energy        : 0.1373E+00 eV

  End self-consistency iteration #     3       :  max(cpu_time)    wall_clock(cpu1)
  | Time for this iteration                    :        1.151 s           1.151 s
  | Charge density update                      :        0.366 s           0.366 s
  | Density mixing                             :        0.005 s           0.005 s
  | Hartree multipole update                   :        0.004 s           0.004 s
  | Hartree multipole summation                :        0.207 s           0.208 s
  | Integration                                :        0.537 s           0.536 s
  | Solution of K.-S. eqns.                    :        0.030 s           0.031 s
  | Total energy evaluation                    :        0.000 s           0.001 s
------------------------------------------------------------

------------------------------------------------------------
          Begin self-consistency iteration #    4

  Date     :  20150727, Time     :  122640.380
------------------------------------------------------------
  Evaluating new KS density.
  Integration grid: deviation in total charge (<rho> - N_e) =  -7.105427E-15
  Pulay mixing of updated and previous charge densities.

  Evaluating partitioned Hartree potential by multipole expansion.
  | Analytical far-field extrapolation by fixed multipoles:
  | Hartree multipole sum: apparent total charge =  -0.720400E-05
  Summing up the Hartree potential.
  Time summed over all CPUs for potential: real work        1.653 s, elapsed        1.658 s
  | RMS charge density error from multipole expansion :   0.151658E-01

  Integrating Hamiltonian matrix: batch-based integration.
  Time summed over all CPUs for integration: real work        4.120 s, elapsed        4.270 s

  Updating Kohn-Sham eigenvalues, eigenvectors, occupation numbers, and Fermi level.
  Solving generalized eigenproblem
  Updating Kohn-Sham eigenvalues and eigenfunctions.
  Solving real generalised eigenvalue problem by standard LAPACK (fast)
  Determining occupation numbers for Kohn-Sham eigenstates.
  | Chemical potential (Fermi level) in eV                 : -.33377808E+01
  | Error in electron count due to remaining E_F inaccuracy: 0.00000000E+00
  | Maximum occupation number of highest empty state:  0.00E+00

  Highest occupied state (VBM) at     -5.24066423 eV
  | Occupation number:      2.00000000

  Lowest unoccupied state (CBM) at    -1.64091575 eV
  | Occupation number:      0.00000000

  Overall HOMO-LUMO gap:      3.59974848 eV.

  Total energy components:
  | Sum of eigenvalues            :        -166.09173489 Ha       -4519.58606035 eV
  | XC energy correction          :         -37.24981649 Ha       -1013.61907906 eV
  | XC potential correction       :          47.61578101 Ha        1295.69132542 eV
  | Free-atom electrostatic energy:        -143.15162610 Ha       -3895.35393967 eV
  | Hartree energy correction     :          -7.31852695 Ha        -199.14725068 eV
  | van der Waals energy corr.    :           0.00000000 Ha           0.00000000 eV
  | Entropy correction            :           0.00000000 Ha           0.00000000 eV
  | ---------------------------
  | Total energy                  :        -306.19592341 Ha       -8332.01500434 eV
  | Total energy, T -> 0          :        -306.19592341 Ha       -8332.01500434 eV  <-- do not rely on this value for anything but (periodic) metals
  | Electronic free energy        :        -306.19592341 Ha       -8332.01500434 eV

  Derived energy quantities:
  | Kinetic energy                :         305.24177688 Ha        8306.05135617 eV
  | Electrostatic energy          :        -574.18788380 Ha      -15624.44728146 eV
  | Energy correction for multipole
  | error in Hartree potential    :          -0.00632200 Ha          -0.17203048 eV
  | Sum of eigenvalues per atom                           :        -376.63217170 eV
  | Total energy (T->0) per atom                          :        -694.33458370 eV  <-- do not rely on this value for anything but (periodic) metals
  | Electronic free energy per atom                       :        -694.33458370 eV

  Self-consistency convergence accuracy:
  | Change of charge density      : 0.1231E+00
  | Change of sum of eigenvalues  : 0.3685E+02 eV
  | Change of total energy        : 0.2562E+00 eV

  End self-consistency iteration #     4       :  max(cpu_time)    wall_clock(cpu1)
  | Time for this iteration                    :        1.152 s           1.151 s
  | Charge density update                      :        0.367 s           0.367 s
  | Density mixing                             :        0.006 s           0.006 s
  | Hartree multipole update                   :        0.004 s           0.005 s
  | Hartree multipole summation                :        0.208 s           0.207 s
  | Integration                                :        0.535 s           0.534 s
  | Solution of K.-S. eqns.                    :        0.030 s           0.031 s
  | Total energy evaluation                    :        0.000 s           0.000 s
------------------------------------------------------------

------------------------------------------------------------
          Begin self-consistency iteration #    5

  Date     :  20150727, Time     :  122641.532
------------------------------------------------------------
  Evaluating new KS density.
  Integration grid: deviation in total charge (<rho> - N_e) =   1.421085E-14
  Pulay mixing of updated and previous charge densities.

  Evaluating partitioned Hartree potential by multipole expansion.
  | Analytical far-field extrapolation by fixed multipoles:
  | Hartree multipole sum: apparent total charge =  -0.728042E-05
  Summing up the Hartree potential.
  Time summed over all CPUs for potential: real work        1.652 s, elapsed        1.656 s
  | RMS charge density error from multipole expansion :   0.157289E-01

  Integrating Hamiltonian matrix: batch-based integration.
  Time summed over all CPUs for integration: real work        4.122 s, elapsed        4.268 s

  Updating Kohn-Sham eigenvalues, eigenvectors, occupation numbers, and Fermi level.
  Solving generalized eigenproblem
  Updating Kohn-Sham eigenvalues and eigenfunctions.
  Solving real generalised eigenvalue problem by standard LAPACK (fast)
  Determining occupation numbers for Kohn-Sham eigenstates.
  | Chemical potential (Fermi level) in eV                 : -.33202501E+01
  | Error in electron count due to remaining E_F inaccuracy: 0.00000000E+00
  | Maximum occupation number of highest empty state:  0.00E+00

  Highest occupied state (VBM) at     -5.07707629 eV
  | Occupation number:      2.00000000

  Lowest unoccupied state (CBM) at    -1.61808448 eV
  | Occupation number:      0.00000000

  Overall HOMO-LUMO gap:      3.45899181 eV.

  Total energy components:
  | Sum of eigenvalues            :        -166.03670233 Ha       -4518.08854831 eV
  | XC energy correction          :         -37.25938424 Ha       -1013.87943091 eV
  | XC potential correction       :          47.62783428 Ha        1296.01931156 eV
  | Free-atom electrostatic energy:        -143.15162610 Ha       -3895.35393967 eV
  | Hartree energy correction     :          -7.37580697 Ha        -200.70591951 eV
  | van der Waals energy corr.    :           0.00000000 Ha           0.00000000 eV
  | Entropy correction            :           0.00000000 Ha           0.00000000 eV
  | ---------------------------
  | Total energy                  :        -306.19568537 Ha       -8332.00852684 eV
  | Total energy, T -> 0          :        -306.19568537 Ha       -8332.00852684 eV  <-- do not rely on this value for anything but (periodic) metals
  | Electronic free energy        :        -306.19568537 Ha       -8332.00852684 eV

  Derived energy quantities:
  | Kinetic energy                :         305.24166248 Ha        8306.04824326 eV
  | Electrostatic energy          :        -574.17796361 Ha      -15624.17733919 eV
  | Energy correction for multipole
  | error in Hartree potential    :          -0.00646349 Ha          -0.17588059 eV
  | Sum of eigenvalues per atom                           :        -376.50737903 eV
  | Total energy (T->0) per atom                          :        -694.33404390 eV  <-- do not rely on this value for anything but (periodic) metals
  | Electronic free energy per atom                       :        -694.33404390 eV

  Self-consistency convergence accuracy:
  | Change of charge density      : 0.3003E-01
  | Change of sum of eigenvalues  : 0.1498E+01 eV
  | Change of total energy        : 0.6478E-02 eV

  End self-consistency iteration #     5       :  max(cpu_time)    wall_clock(cpu1)
  | Time for this iteration                    :        1.151 s           1.150 s
  | Charge density update                      :        0.366 s           0.365 s
  | Density mixing                             :        0.007 s           0.008 s
  | Hartree multipole update                   :        0.004 s           0.004 s
  | Hartree multipole summation                :        0.208 s           0.208 s
  | Integration                                :        0.535 s           0.534 s
  | Solution of K.-S. eqns.                    :        0.030 s           0.031 s
  | Total energy evaluation                    :        0.000 s           0.000 s
------------------------------------------------------------

------------------------------------------------------------
          Begin self-consistency iteration #    6

  Date     :  20150727, Time     :  122642.682
------------------------------------------------------------
  Evaluating new KS density.
  Integration grid: deviation in total charge (<rho> - N_e) =  -1.421085E-14
  Pulay mixing of updated and previous charge densities.

  Evaluating partitioned Hartree potential by multipole expansion.
  | Analytical far-field extrapolation by fixed multipoles:
  | Hartree multipole sum: apparent total charge =  -0.728776E-05
  Summing up the Hartree potential.
  Time summed over all CPUs for potential: real work        1.652 s, elapsed        1.656 s
  | RMS charge density error from multipole expansion :   0.158809E-01

  Integrating Hamiltonian matrix: batch-based integration.
  Time summed over all CPUs for integration: real work        4.119 s, elapsed        4.273 s

  Updating Kohn-Sham eigenvalues, eigenvectors, occupation numbers, and Fermi level.
  Solving generalized eigenproblem
  Updating Kohn-Sham eigenvalues and eigenfunctions.
  Solving real generalised eigenvalue problem by standard LAPACK (fast)
  Determining occupation numbers for Kohn-Sham eigenstates.
  | Chemical potential (Fermi level) in eV                 : -.33101262E+01
  | Error in electron count due to remaining E_F inaccuracy: 0.00000000E+00
  | Maximum occupation number of highest empty state:  0.00E+00

  Highest occupied state (VBM) at     -5.06449880 eV
  | Occupation number:      2.00000000

  Lowest unoccupied state (CBM) at    -1.61296662 eV
  | Occupation number:      0.00000000

  Overall HOMO-LUMO gap:      3.45153218 eV.

  Total energy components:
  | Sum of eigenvalues            :        -166.01292987 Ha       -4517.44166667 eV
  | XC energy correction          :         -37.26282998 Ha       -1013.97319418 eV
  | XC potential correction       :          47.63224756 Ha        1296.13940297 eV
  | Free-atom electrostatic energy:        -143.15162610 Ha       -3895.35393967 eV
  | Hartree energy correction     :          -7.40057860 Ha        -201.37998994 eV
  | van der Waals energy corr.    :           0.00000000 Ha           0.00000000 eV
  | Entropy correction            :           0.00000000 Ha           0.00000000 eV
  | ---------------------------
  | Total energy                  :        -306.19571700 Ha       -8332.00938749 eV
  | Total energy, T -> 0          :        -306.19571700 Ha       -8332.00938749 eV  <-- do not rely on this value for anything but (periodic) metals
  | Electronic free energy        :        -306.19571700 Ha       -8332.00938749 eV

  Derived energy quantities:
  | Kinetic energy                :         305.24043357 Ha        8306.01480283 eV
  | Electrostatic energy          :        -574.17332059 Ha      -15624.05099613 eV
  | Energy correction for multipole
  | error in Hartree potential    :          -0.00651618 Ha          -0.17731431 eV
  | Sum of eigenvalues per atom                           :        -376.45347222 eV
  | Total energy (T->0) per atom                          :        -694.33411562 eV  <-- do not rely on this value for anything but (periodic) metals
  | Electronic free energy per atom                       :        -694.33411562 eV

  Self-consistency convergence accuracy:
  | Change of charge density      : 0.1034E-01
  | Change of sum of eigenvalues  : 0.6469E+00 eV
  | Change of total energy        : -.8606E-03 eV

  End self-consistency iteration #     6       :  max(cpu_time)    wall_clock(cpu1)
  | Time for this iteration                    :        1.154 s           1.154 s
  | Charge density update                      :        0.367 s           0.366 s
  | Density mixing                             :        0.009 s           0.009 s
  | Hartree multipole update                   :        0.004 s           0.004 s
  | Hartree multipole summation                :        0.208 s           0.208 s
  | Integration                                :        0.535 s           0.535 s
  | Solution of K.-S. eqns.                    :        0.031 s           0.031 s
  | Total energy evaluation                    :        0.000 s           0.000 s
------------------------------------------------------------

------------------------------------------------------------
          Begin self-consistency iteration #    7

  Date     :  20150727, Time     :  122643.836
------------------------------------------------------------
  Evaluating new KS density.
  Integration grid: deviation in total charge (<rho> - N_e) =  -1.421085E-14
  Pulay mixing of updated and previous charge densities.

  Evaluating partitioned Hartree potential by multipole expansion.
  | Analytical far-field extrapolation by fixed multipoles:
  | Hartree multipole sum: apparent total charge =  -0.714393E-05
  Summing up the Hartree potential.
  Time summed over all CPUs for potential: real work        1.652 s, elapsed        1.656 s
  | RMS charge density error from multipole expansion :   0.158810E-01

  Integrating Hamiltonian matrix: batch-based integration.
  Time summed over all CPUs for integration: real work        4.118 s, elapsed        4.269 s

  Updating Kohn-Sham eigenvalues, eigenvectors, occupation numbers, and Fermi level.
  Solving generalized eigenproblem
  Updating Kohn-Sham eigenvalues and eigenfunctions.
  Solving real generalised eigenvalue problem by standard LAPACK (fast)
  Determining occupation numbers for Kohn-Sham eigenstates.
  | Chemical potential (Fermi level) in eV                 : -.33512353E+01
  | Error in electron count due to remaining E_F inaccuracy: 0.00000000E+00
  | Maximum occupation number of highest empty state:  0.00E+00

  Highest occupied state (VBM) at     -5.19976129 eV
  | Occupation number:      2.00000000

  Lowest unoccupied state (CBM) at    -1.62809836 eV
  | Occupation number:      0.00000000

  Overall HOMO-LUMO gap:      3.57166293 eV.

  Total energy components:
  | Sum of eigenvalues            :        -166.13287131 Ha       -4520.70543941 eV
  | XC energy correction          :         -37.25040890 Ha       -1013.63519928 eV
  | XC potential correction       :          47.61550793 Ha        1295.68389458 eV
  | Free-atom electrostatic energy:        -143.15162610 Ha       -3895.35393967 eV
  | Hartree energy correction     :          -7.27621921 Ha        -197.99599858 eV
  | van der Waals energy corr.    :           0.00000000 Ha           0.00000000 eV
  | Entropy correction            :           0.00000000 Ha           0.00000000 eV
  | ---------------------------
  | Total energy                  :        -306.19561759 Ha       -8332.00668237 eV
  | Total energy, T -> 0          :        -306.19561759 Ha       -8332.00668237 eV  <-- do not rely on this value for anything but (periodic) metals
  | Electronic free energy        :        -306.19561759 Ha       -8332.00668237 eV

  Derived energy quantities:
  | Kinetic energy                :         305.28527152 Ha        8307.23490561 eV
  | Electrostatic energy          :        -574.23048021 Ha      -15625.60638869 eV
  | Energy correction for multipole
  | error in Hartree potential    :          -0.00633268 Ha          -0.17232108 eV
  | Sum of eigenvalues per atom                           :        -376.72545328 eV
  | Total energy (T->0) per atom                          :        -694.33389020 eV  <-- do not rely on this value for anything but (periodic) metals
  | Electronic free energy per atom                       :        -694.33389020 eV

  Self-consistency convergence accuracy:
  | Change of charge density      : 0.1016E-01
  | Change of sum of eigenvalues  : -.3264E+01 eV
  | Change of total energy        : 0.2705E-02 eV

  End self-consistency iteration #     7       :  max(cpu_time)    wall_clock(cpu1)
  | Time for this iteration                    :        1.153 s           1.154 s
  | Charge density update                      :        0.366 s           0.366 s
  | Density mixing                             :        0.009 s           0.010 s
  | Hartree multipole update                   :        0.004 s           0.004 s
  | Hartree multipole summation                :        0.207 s           0.208 s
  | Integration                                :        0.534 s           0.535 s
  | Solution of K.-S. eqns.                    :        0.031 s           0.030 s
  | Total energy evaluation                    :        0.000 s           0.000 s
------------------------------------------------------------

------------------------------------------------------------
          Begin self-consistency iteration #    8

  Date     :  20150727, Time     :  122644.990
------------------------------------------------------------
  Evaluating new KS density.
  Integration grid: deviation in total charge (<rho> - N_e) =  -1.421085E-14
  Pulay mixing of updated and previous charge densities.

  Evaluating partitioned Hartree potential by multipole expansion.
  | Analytical far-field extrapolation by fixed multipoles:
  | Hartree multipole sum: apparent total charge =  -0.715128E-05
  Summing up the Hartree potential.
  Time summed over all CPUs for potential: real work        1.652 s, elapsed        1.656 s
  | RMS charge density error from multipole expansion :   0.159364E-01

  Integrating Hamiltonian matrix: batch-based integration.
  Time summed over all CPUs for integration: real work        4.121 s, elapsed        4.272 s

  Updating Kohn-Sham eigenvalues, eigenvectors, occupation numbers, and Fermi level.
  Solving generalized eigenproblem
  Updating Kohn-Sham eigenvalues and eigenfunctions.
  Solving real generalised eigenvalue problem by standard LAPACK (fast)
  Determining occupation numbers for Kohn-Sham eigenstates.
  | Chemical potential (Fermi level) in eV                 : -.33468980E+01
  | Error in electron count due to remaining E_F inaccuracy: 0.00000000E+00
  | Maximum occupation number of highest empty state:  0.00E+00

  Highest occupied state (VBM) at     -5.17754829 eV
  | Occupation number:      2.00000000

  Lowest unoccupied state (CBM) at    -1.62752010 eV
  | Occupation number:      0.00000000

  Overall HOMO-LUMO gap:      3.55002819 eV.

  Total energy components:
  | Sum of eigenvalues            :        -166.12049859 Ha       -4520.36876033 eV
  | XC energy correction          :         -37.25190219 Ha       -1013.67583389 eV
  | XC potential correction       :          47.61742906 Ha        1295.73617105 eV
  | Free-atom electrostatic energy:        -143.15162610 Ha       -3895.35393967 eV
  | Hartree energy correction     :          -7.28902035 Ha        -198.34433550 eV
  | van der Waals energy corr.    :           0.00000000 Ha           0.00000000 eV
  | Entropy correction            :           0.00000000 Ha           0.00000000 eV
  | ---------------------------
  | Total energy                  :        -306.19561817 Ha       -8332.00669834 eV
  | Total energy, T -> 0          :        -306.19561817 Ha       -8332.00669834 eV  <-- do not rely on this value for anything but (periodic) metals
  | Electronic free energy        :        -306.19561817 Ha       -8332.00669834 eV

  Derived energy quantities:
  | Kinetic energy                :         305.28812093 Ha        8307.31244179 eV
  | Electrostatic energy          :        -574.23183691 Ha      -15625.64330624 eV
  | Energy correction for multipole
  | error in Hartree potential    :          -0.00635841 Ha          -0.17302122 eV
  | Sum of eigenvalues per atom                           :        -376.69739669 eV
  | Total energy (T->0) per atom                          :        -694.33389153 eV  <-- do not rely on this value for anything but (periodic) metals
  | Electronic free energy per atom                       :        -694.33389153 eV

  Self-consistency convergence accuracy:
  | Change of charge density      : 0.1746E-02
  | Change of sum of eigenvalues  : 0.3367E+00 eV
  | Change of total energy        : -.1597E-04 eV

  End self-consistency iteration #     8       :  max(cpu_time)    wall_clock(cpu1)
  | Time for this iteration                    :        1.154 s           1.154 s
  | Charge density update                      :        0.365 s           0.365 s
  | Density mixing                             :        0.010 s           0.010 s
  | Hartree multipole update                   :        0.005 s           0.005 s
  | Hartree multipole summation                :        0.207 s           0.207 s
  | Integration                                :        0.536 s           0.535 s
  | Solution of K.-S. eqns.                    :        0.030 s           0.030 s
  | Total energy evaluation                    :        0.001 s           0.001 s
------------------------------------------------------------

------------------------------------------------------------
          Begin self-consistency iteration #    9

  Date     :  20150727, Time     :  122646.144
------------------------------------------------------------
  Evaluating new KS density.
  Integration grid: deviation in total charge (<rho> - N_e) =  -1.421085E-14
  Pulay mixing of updated and previous charge densities.

  Evaluating partitioned Hartree potential by multipole expansion.
  | Analytical far-field extrapolation by fixed multipoles:
  | Hartree multipole sum: apparent total charge =  -0.714600E-05
  Summing up the Hartree potential.
  Time summed over all CPUs for potential: real work        1.652 s, elapsed        1.656 s
  | RMS charge density error from multipole expansion :   0.159256E-01

  Integrating Hamiltonian matrix: batch-based integration.
  Time summed over all CPUs for integration: real work        4.120 s, elapsed        4.263 s

  Updating Kohn-Sham eigenvalues, eigenvectors, occupation numbers, and Fermi level.
  Solving generalized eigenproblem
  Updating Kohn-Sham eigenvalues and eigenfunctions.
  Solving real generalised eigenvalue problem by standard LAPACK (fast)
  Determining occupation numbers for Kohn-Sham eigenstates.
  | Chemical potential (Fermi level) in eV                 : -.33478843E+01
  | Error in electron count due to remaining E_F inaccuracy: 0.00000000E+00
  | Maximum occupation number of highest empty state:  0.00E+00

  Highest occupied state (VBM) at     -5.18329898 eV
  | Occupation number:      2.00000000

  Lowest unoccupied state (CBM) at    -1.62826016 eV
  | Occupation number:      0.00000000

  Overall HOMO-LUMO gap:      3.55503882 eV.

  Total energy components:
  | Sum of eigenvalues            :        -166.12341178 Ha       -4520.44803233 eV
  | XC energy correction          :         -37.25151980 Ha       -1013.66542853 eV
  | XC potential correction       :          47.61692470 Ha        1295.72244675 eV
  | Free-atom electrostatic energy:        -143.15162610 Ha       -3895.35393967 eV
  | Hartree energy correction     :          -7.28598399 Ha        -198.26171176 eV
  | van der Waals energy corr.    :           0.00000000 Ha           0.00000000 eV
  | Entropy correction            :           0.00000000 Ha           0.00000000 eV
  | ---------------------------
  | Total energy                  :        -306.19561697 Ha       -8332.00666555 eV
  | Total energy, T -> 0          :        -306.19561697 Ha       -8332.00666555 eV  <-- do not rely on this value for anything but (periodic) metals
  | Electronic free energy        :        -306.19561697 Ha       -8332.00666555 eV

  Derived energy quantities:
  | Kinetic energy                :         305.29061766 Ha        8307.38038152 eV
  | Electrostatic energy          :        -574.23471483 Ha      -15625.72161853 eV
  | Energy correction for multipole
  | error in Hartree potential    :          -0.00635049 Ha          -0.17280560 eV
  | Sum of eigenvalues per atom                           :        -376.70400269 eV
  | Total energy (T->0) per atom                          :        -694.33388880 eV  <-- do not rely on this value for anything but (periodic) metals
  | Electronic free energy per atom                       :        -694.33388880 eV

  Self-consistency convergence accuracy:
  | Change of charge density      : 0.9788E-03
  | Change of sum of eigenvalues  : -.7927E-01 eV
  | Change of total energy        : 0.3279E-04 eV

  End self-consistency iteration #     9       :  max(cpu_time)    wall_clock(cpu1)
  | Time for this iteration                    :        1.154 s           1.154 s
  | Charge density update                      :        0.365 s           0.365 s
  | Density mixing                             :        0.012 s           0.012 s
  | Hartree multipole update                   :        0.004 s           0.004 s
  | Hartree multipole summation                :        0.208 s           0.208 s
  | Integration                                :        0.534 s           0.534 s
  | Solution of K.-S. eqns.                    :        0.031 s           0.031 s
  | Total energy evaluation                    :        0.000 s           0.000 s
------------------------------------------------------------

------------------------------------------------------------
          Begin self-consistency iteration #   10

  Date     :  20150727, Time     :  122647.298
------------------------------------------------------------
  Evaluating new KS density.
  Integration grid: deviation in total charge (<rho> - N_e) =   0.000000E+00
  Pulay mixing of updated and previous charge densities.

  Evaluating partitioned Hartree potential by multipole expansion.
  | Analytical far-field extrapolation by fixed multipoles:
  | Hartree multipole sum: apparent total charge =  -0.713668E-05
  Summing up the Hartree potential.
  Time summed over all CPUs for potential: real work        1.652 s, elapsed        1.656 s
  | RMS charge density error from multipole expansion :   0.159269E-01

  Integrating Hamiltonian matrix: batch-based integration.
  Time summed over all CPUs for integration: real work        4.124 s, elapsed        4.268 s

  Updating Kohn-Sham eigenvalues, eigenvectors, occupation numbers, and Fermi level.
  Solving generalized eigenproblem
[...]
  |                                 -0.00398582       0.07164445       0.01423635
  |                                  0.03419504       0.01423635       0.06030503
  ----------------------------------------------------------------------


  Total energy components:
  | Sum of eigenvalues            :        -166.12692539 Ha       -4520.54364270 eV
  | XC energy correction          :         -37.25105865 Ha       -1013.65287983 eV
  | XC potential correction       :          47.61629612 Ha        1295.70534213 eV
  | Free-atom electrostatic energy:        -143.15162610 Ha       -3895.35393967 eV
  | Hartree energy correction     :          -7.28230203 Ha        -198.16152050 eV
  | van der Waals energy corr.    :          -0.00133271 Ha          -0.03626479 eV
  | Entropy correction            :           0.00000000 Ha           0.00000000 eV
  | ---------------------------
  | Total energy                  :        -306.19694876 Ha       -8332.04290536 eV
  | Total energy, T -> 0          :        -306.19694876 Ha       -8332.04290536 eV  <-- do not rely on this value for anything but (periodic) metals
  | Electronic free energy        :        -306.19694876 Ha       -8332.04290536 eV

  Derived energy quantities:
  | Kinetic energy                :         305.29348930 Ha        8307.45852268 eV
  | Electrostatic energy          :        -574.23804671 Ha      -15625.81228342 eV
  | Energy correction for multipole
  | error in Hartree potential    :          -0.00634905 Ha          -0.17276657 eV
  | Sum of eigenvalues per atom                           :        -376.71197022 eV
  | Total energy (T->0) per atom                          :        -694.33690878 eV  <-- do not rely on this value for anything but (periodic) metals
  | Electronic free energy per atom                       :        -694.33690878 eV

  atomic forces [eV/Ang]:
  -----------------------
  atom #    1
   Hellmann-Feynman + Multipole  : -.698386E+01 -.108884E+02 0.301610E+01
   Pulay + GGA                   : 0.766048E+01 0.134386E+02 -.391153E+01
   Van der Waals               : 0.379282E-02 0.844578E-03 0.604567E-02
   ----------------------------------------------------------------
   Total forces(   1)            : 0.680404E+00 0.255097E+01 -.889382E+00
  atom #    2
   Hellmann-Feynman + Multipole  : 0.189032E+01 -.298543E+01 0.129085E+01
   Pulay + GGA                   : -.105567E-01 0.582448E-01 -.320916E-01
   Van der Waals               : 0.190113E-02 0.104347E-02 0.318687E-02
   ----------------------------------------------------------------
   Total forces(   2)            : 0.188166E+01 -.292615E+01 0.126195E+01
  atom #    3
   Hellmann-Feynman + Multipole  : -.219895E+01 -.455403E+00 -.733016E-01
   Pulay + GGA                   : 0.120527E+00 0.367331E-01 -.558568E-02
   Van der Waals               : 0.135711E-02 0.309388E-02 0.371856E-02
   ----------------------------------------------------------------
   Total forces(   3)            : -.207707E+01 -.415576E+00 -.751687E-01
  atom #    4
   Hellmann-Feynman + Multipole  : -.602248E+01 -.893282E+01 0.918530E+01
   Pulay + GGA                   : 0.619551E+01 0.991459E+01 -.660858E+01
   Van der Waals               : -.142713E-02 0.369927E-02 0.123507E-02
   ----------------------------------------------------------------
   Total forces(   4)            : 0.171603E+00 0.985468E+00 0.257795E+01
  atom #    5
   Hellmann-Feynman + Multipole  : -.377892E+00 -.750891E+00 -.429252E+00
   Pulay + GGA                   : 0.444271E-01 0.120272E+00 0.358743E-01
   Van der Waals               : 0.242645E-02 0.987754E-03 0.277796E-02
   ----------------------------------------------------------------
   Total forces(   5)            : -.331038E+00 -.629631E+00 -.390600E+00
  atom #    6
   Hellmann-Feynman + Multipole  : -.240638E+00 0.398816E+00 -.230986E+01
   Pulay + GGA                   : -.397503E-01 0.407426E-01 -.127388E+00
   Van der Waals               : 0.832194E-03 -.361118E-03 0.638152E-03
   ----------------------------------------------------------------
   Total forces(   6)            : -.279556E+00 0.439198E+00 -.243661E+01
  atom #    7
   Hellmann-Feynman + Multipole  : 0.429046E+01 -.903043E+01 -.920741E+01
   Pulay + GGA                   : -.597700E+01 0.104762E+02 0.110712E+02
   Van der Waals               : -.676518E-03 -.152392E-02 -.427498E-02
   ----------------------------------------------------------------
   Total forces(   7)            : -.168721E+01 0.144423E+01 0.185953E+01
  atom #    8
   Hellmann-Feynman + Multipole  : -.438864E+00 0.280001E+00 -.225940E+01
   Pulay + GGA                   : 0.497641E-02 0.395224E-02 0.133696E+00
   Van der Waals               : 0.922789E-03 0.342215E-03 -.148309E-02
   ----------------------------------------------------------------
   Total forces(   8)            : -.432965E+00 0.284296E+00 -.212719E+01
  atom #    9
   Hellmann-Feynman + Multipole  : 0.185219E+01 -.194460E+01 0.612065E+00
   Pulay + GGA                   : -.976634E-01 0.951113E-01 -.909608E-02
   Van der Waals               : -.179827E-02 -.464590E-03 -.755832E-03
   ----------------------------------------------------------------
   Total forces(   9)            : 0.175272E+01 -.184996E+01 0.602213E+00
  atom #   10
   Hellmann-Feynman + Multipole  : -.195159E+01 -.361335E+01 -.159423E+02
   Pulay + GGA                   : 0.331875E+01 0.437992E+01 0.138697E+02
   Van der Waals               : -.311320E-02 -.379646E-02 -.590719E-02
   ----------------------------------------------------------------
   Total forces(  10)            : 0.136404E+01 0.762776E+00 -.207844E+01
  atom #   11
   Hellmann-Feynman + Multipole  : -.501966E+00 -.326498E+00 0.180995E+00
   Pulay + GGA                   : 0.888749E-01 0.723086E-01 0.593130E-01
   Van der Waals               : -.345630E-02 -.176869E-02 0.786945E-03
   ----------------------------------------------------------------
   Total forces(  11)            : -.416547E+00 -.255958E+00 0.241095E+00
  atom #   12
   Hellmann-Feynman + Multipole  : -.573789E+00 -.380529E+00 0.140393E+01
   Pulay + GGA                   : -.445394E-01 -.825972E-02 0.658706E-01
   Van der Waals               : -.761070E-03 -.209637E-02 -.596814E-02
   ----------------------------------------------------------------
   Total forces(  12)            : -.619089E+00 -.390886E+00 0.146383E+01
  Timings for vdw_correction_hirshfeld (Tkatchenko-Scheffler 2009):
  | CPU time:        3.037 s, Wall clock time:        3.038 s.
  Removing unitary transformations (pure translations, rotations) from forces on atoms.
  Atomic forces before filtering:
  | Net force on center of mass :  0.696166E-02 -.121529E-02 0.919086E-02 eV/A
  | Net torque on center of mass:  -.452644E-02 -.100263E-01 0.539599E-02 eV
  Atomic forces after filtering:
  | Net force on center of mass :  0.535218E-15 0.892031E-16 -.713624E-15 eV/A
  | Net torque on center of mass:  0.226580E-14 -.302107E-14 -.188817E-14 eV
 
  Energy and forces in a compact form:
  | Total energy uncorrected      :         -0.833204290535872E+04 eV
  | Total energy corrected        :         -0.833204290535872E+04 eV  <-- do not rely on this value for anything but (periodic) metals
  | Electronic free energy        :         -0.833204290535872E+04 eV
  Total atomic forces (unitary forces cleaned) [eV/Ang]:
  |   1          0.679421781478505E+00          0.255117882397957E+01         -0.890214182701006E+00
  |   2          0.188072833204025E+01         -0.292586069689337E+01          0.126123604913121E+01
  |   3         -0.207801087968419E+01         -0.415483040829877E+00         -0.761222375520258E-01
  |   4          0.170750348532123E+00          0.985858659231783E+00          0.257740962097271E+01
  |   5         -0.331752266132028E+00         -0.629312645923841E+00         -0.391165388353867E+00
  |   6         -0.280518258631484E+00          0.439652774884785E+00         -0.243713218809901E+01
  |   7         -0.168746435362438E+01          0.144420633532144E+01          0.185877696381152E+01
  |   8         -0.433082158985147E+00          0.284202825441941E+00         -0.212796374701166E+01
  |   9          0.175253631666369E+01         -0.184989041958091E+01          0.601595439410925E+00
  |  10          0.136364925738163E+01          0.762640055413811E+00         -0.207940459018795E+01
  |  11         -0.416838072149065E+00         -0.256196253256773E+00          0.240054780835934E+00
  |  12         -0.619420046889899E+00         -0.390996417788563E+00          0.146292947974322E+01
 
  ------------------------------------ 
  Start decomposition of the XC Energy 
  ------------------------------------ 
  Hartree-Fock part   :          0.000000000 Ha              0.000000000 eV
  ------------------------------------ 
  X Energy            :        -35.945616777 Ha           -978.129999212 eV
  C Energy GGA        :         -1.305441868 Ha            -35.522880615 eV
  Total XC Energy     :        -37.251058645 Ha          -1013.652879826 eV
  LDA X and C from self-consistent density 
  X Energy LDA        :        -32.385265317 Ha           -881.247906666 eV
  C Energy LDA        :         -2.637621966 Ha            -71.773345475 eV
  ------------------------------------ 
  End decomposition of the XC Energy 
  ------------------------------------ 
  Performing Hirshfeld analysis of fragment charges and moments.
  ----------------------------------------------------------------------
  | Atom     1: O
  |   Hirshfeld charge        :     -0.37339165
  |   Free atom volume        :     23.95238533
  |   Hirshfeld volume        :     24.21744456
  |   Hirshfeld dipole vector :      0.02766970       0.06806454      -0.01074122
  |   Hirshfeld dipole moment :      0.07425475
  |   Hirshfeld second moments:      0.01741490      -0.01894627       0.02585487
  |                                 -0.01894627      -0.06460708      -0.02139412
  |                                  0.02585487      -0.02139412      -0.10563258
  ----------------------------------------------------------------------
  | Atom     2: H
  |   Hirshfeld charge        :      0.06947382
  |   Free atom volume        :     10.44207651
  |   Hirshfeld volume        :      8.35296720
  |   Hirshfeld dipole vector :     -0.02256895       0.03926792      -0.01654530
  |   Hirshfeld dipole moment :      0.04821902
  |   Hirshfeld second moments:      0.07451592       0.02931847      -0.00121238
  |                                  0.02931847       0.02822816       0.01414266
  |                                 -0.00121238       0.01414266       0.06213753
  ----------------------------------------------------------------------
  | Atom     3: H
  |   Hirshfeld charge        :      0.10361829
  |   Free atom volume        :     10.44207651
  |   Hirshfeld volume        :      7.84099729
  |   Hirshfeld dipole vector :      0.11312016       0.02502405       0.00684494
  |   Hirshfeld dipole moment :      0.11605700
  |   Hirshfeld second moments:      0.08531395      -0.02001587       0.00078611
  |                                 -0.02001587       0.07905912      -0.01507383
  |                                  0.00078611      -0.01507383       0.06697969
  ----------------------------------------------------------------------
  | Atom     4: O
  |   Hirshfeld charge        :     -0.17291085
  |   Free atom volume        :     23.95238533
  |   Hirshfeld volume        :     19.82033767
  |   Hirshfeld dipole vector :      0.03180212      -0.00734339      -0.01583862
  |   Hirshfeld dipole moment :      0.03627895
  |   Hirshfeld second moments:      0.05162234       0.01939186       0.02842168
  |                                  0.01939186       0.09730284       0.01277879
  |                                  0.02842168       0.01277879       0.11368464
  ----------------------------------------------------------------------
  | Atom     5: H
  |   Hirshfeld charge        :      0.18500419
  |   Free atom volume        :     10.44207651
  |   Hirshfeld volume        :      5.96168054
  |   Hirshfeld dipole vector :      0.05376516       0.09178592       0.04200436
  |   Hirshfeld dipole moment :      0.11436658
  |   Hirshfeld second moments:      0.11153981      -0.00488796      -0.00455393
  |                                 -0.00488796       0.12724205      -0.00487551
  |                                 -0.00455393      -0.00487551       0.14436799
  ----------------------------------------------------------------------
  | Atom     6: H
  |   Hirshfeld charge        :      0.17696838
  |   Free atom volume        :     10.44207651
  |   Hirshfeld volume        :      5.54198473
  |   Hirshfeld dipole vector :     -0.01770456       0.00948244      -0.12083969
  |   Hirshfeld dipole moment :      0.12249734
  |   Hirshfeld second moments:      0.12997760       0.01068731       0.00788004
  |                                  0.01068731       0.14467114       0.00492233
  |                                  0.00788004       0.00492233       0.13184763
  ----------------------------------------------------------------------
  | Atom     7: O
  |   Hirshfeld charge        :     -0.20563101
  |   Free atom volume        :     23.95238533
  |   Hirshfeld volume        :     20.68895877
  |   Hirshfeld dipole vector :      0.01561086       0.02802367       0.00390489
  |   Hirshfeld dipole moment :      0.03231522
  |   Hirshfeld second moments:      0.05819565      -0.03904373       0.00936733
  |                                 -0.03904373       0.02811415      -0.02458511
  |                                  0.00936733      -0.02458511       0.08377656
  ----------------------------------------------------------------------
  | Atom     8: H
  |   Hirshfeld charge        :      0.16705550
  |   Free atom volume        :     10.44207651
  |   Hirshfeld volume        :      5.73599105
  |   Hirshfeld dipole vector :      0.02460457      -0.01389463       0.11873216
  |   Hirshfeld dipole moment :      0.12204824
  |   Hirshfeld second moments:      0.13353531      -0.01448925      -0.00140746
  |                                 -0.01448925       0.12755390      -0.00560257
  |                                 -0.00140746      -0.00560257       0.12156790
  ----------------------------------------------------------------------
  | Atom     9: H
  |   Hirshfeld charge        :      0.16888476
  |   Free atom volume        :     10.44207651
  |   Hirshfeld volume        :      6.00901403
  |   Hirshfeld dipole vector :     -0.08290950       0.08339506      -0.02451841
  |   Hirshfeld dipole moment :      0.12012441
  |   Hirshfeld second moments:      0.12135276      -0.00474890       0.00280675
  |                                 -0.00474890       0.10974792      -0.00071192
  |                                  0.00280675      -0.00071192       0.13811826
  ----------------------------------------------------------------------
  | Atom    10: O
  |   Hirshfeld charge        :     -0.33043744
  |   Free atom volume        :     23.95238533
  |   Hirshfeld volume        :     22.34502356
  |   Hirshfeld dipole vector :      0.00880732       0.00053097       0.06172116
  |   Hirshfeld dipole moment :      0.06234864
  |   Hirshfeld second moments:      0.03340496       0.05496331      -0.00446840
  |                                  0.05496331      -0.01688773       0.00275164
  |                                 -0.00446840       0.00275164      -0.01066411
  ----------------------------------------------------------------------
  | Atom    11: H
  |   Hirshfeld charge        :      0.13283524
  |   Free atom volume        :     10.44207651
  |   Hirshfeld volume        :      6.57723029
  |   Hirshfeld dipole vector :      0.10036773       0.06478150       0.03958714
  |   Hirshfeld dipole moment :      0.12584699
  |   Hirshfeld second moments:      0.10935052       0.01303462      -0.01122662
  |                                  0.01303462       0.09688008      -0.00498411
  |                                 -0.01122662      -0.00498411       0.11061867
  ----------------------------------------------------------------------
  | Atom    12: H
  |   Hirshfeld charge        :      0.07852387
  |   Free atom volume        :     10.44207651
  |   Hirshfeld volume        :      7.86742993
  |   Hirshfeld dipole vector :     -0.02496412      -0.01826163       0.04082807
  |   Hirshfeld dipole moment :      0.05122135
  |   Hirshfeld second moments:      0.06808260      -0.00398582       0.03419504
  |                                 -0.00398582       0.07164445       0.01423635
  |                                  0.03419504       0.01423635       0.06030503
  ----------------------------------------------------------------------


------------------------------------------------------------------------------
  Final output of selected total energy values:

  The following output summarizes some interesting total energy values
  at the end of a run (AFTER all relaxation, molecular dynamics, etc.).

  | Total energy of the DFT / Hartree-Fock s.c.f. calculation      :          -8332.042905359 eV
  | Final zero-broadening corrected energy (caution - metals only) :          -8332.042905359 eV
  | For reference only, the value of 1 Hartree used in FHI-aims is :             27.211384500 eV

  Before relying on these values, please be sure to understand exactly which
  total energy value is referred to by a given number. Different objects may
  all carry the same name 'total energy'. Definitions:

  Total energy of the DFT / Hartree-Fock s.c.f. calculation:
  | Note that this energy does not include ANY quantities calculated after the
  | s.c.f. cycle, in particular not ANY RPA, MP2, etc. many-body perturbation terms.

  Final zero-broadening corrected energy:
  | For metallic systems only, a broadening of the occupation numbers at the Fermi
  | level can be extrapolated back to zero broadening by an electron-gas inspired
  | formula. For all systems that are not real metals, this value can be
  | meaningless and should be avoided.

------------------------------------------------------------------------------

------------------------------------------------------------
          Leaving FHI-aims.
          Date     :  20150727, Time     :  122657.712

          Computational steps:
          | Number of self-consistency cycles          :           16

          Detailed time accounting                     :  max(cpu_time)    wall_clock(cpu1)
          | Total time                                 :       22.527 s          22.526 s
          | Preparation time                           :        0.172 s           0.473 s
          | Grid partitioning                          :        0.108 s           0.107 s
          | Preloading free-atom quantities on grid    :        0.014 s           0.013 s
          | Free-atom superposition energy             :        0.045 s           0.046 s
          | Total time for integrations                :        9.383 s           9.383 s
          | Total time for solution of K.-S. equations :        0.607 s           0.610 s
          | Total time for density & force components  :        7.395 s           7.396 s
          | Total time for mixing                      :        0.162 s           0.161 s
          | Total time for Hartree multipole update    :        0.067 s           0.070 s
          | Total time for Hartree multipole sum       :        4.013 s           4.013 s
          | Total time for total energy evaluation     :        0.003 s           0.006 s
          | Total time for scaled ZORA corrections     :        0.000 s           0.000 s
          | Total time for TS (2009) vdW correction    :        0.034 s           0.034 s

          Have a nice day.
------------------------------------------------------------
