  MPI-parallelism will be employed.
------------------------------------------------------------
          Invoking FHI-aims ...
          Version 081213
          Compiled on 2013/08/29 at 17:41:06 on host generoso.

          When using FHI-aims, please cite the following reference:

          Volker Blum, Ralf Gehrke, Felix Hanke, Paula Havu,
          Ville Havu, Xinguo Ren, Karsten Reuter, and Matthias Scheffler,
          'Ab Initio Molecular Simulations with Numeric Atom-Centered Orbitals: FHI-aims',
          Computer Physics Communications 180, 2175-2196 (2009)

          For any questions about FHI-aims, please visit the aimsclub website
          with its forums and wiki. Contributions to both the forums and the
          wiki are warmly encouraged - they are for you, and everyone is welcome there.

------------------------------------------------------------

  Date     :  20150727, Time     :  122916.693
  Time zero on CPU 1             :   0.459920000000000E-01  s.
  Internal wall clock time zero  :           207232156.693  s.

  Using        8 parallel tasks.
  Task        0 on host gen60 reporting.
  Task        1 on host gen60 reporting.
  Task        2 on host gen60 reporting.
  Task        3 on host gen60 reporting.
  Task        4 on host gen60 reporting.
  Task        5 on host gen60 reporting.
  Task        6 on host gen60 reporting.
  Task        7 on host gen60 reporting.

  Performing system and environment tests:
  | Environment variable OMP_NUM_THREADS correctly set to 1.
  | Checking for scalapack...
  | No scalapack compiled in.

  Obtaining array dimensions for all initial allocations:
  
  -----------------------------------------------------------------------
  Parsing control.in (first pass over file, find array dimensions only).
  The contents of control.in will be repeated verbatim below
  unless switched off by setting 'verbatim_writeout .false.' .
  in the first line of control.in .
  -----------------------------------------------------------------------
  
  #########################################################################################
  #
  #  Volker Blum, FHI 2008 : Test run input file control.in
  #
  #########################################################################################
  #
  #  Physical model
  #
    xc                 rpbe
    spin               none
    relativistic       atomic_zora scalar
    charge             0.
   vdw_correction_hirshfeld
  #
  #  SCF convergence
  #
    occupation_type    gaussian 0.01
    mixer              pulay
      n_max_pulay        10
      charge_mix_param   0.1
    sc_accuracy_rho    5E-5
    sc_accuracy_eev    5E-3
    sc_accuracy_etot   5E-6
    sc_iter_limit      3000
  #
  #  Eigenvalue solver
  #
    KS_method          lapack
      empty_states       8
      basis_threshold    0.e-5
  #
  #  Efficiency
  #
  #   all previous settings are now default, except stratmann still
  #   undecided. Continue to handle stratmann with care, if at all.
  #
  #  partition_type stratmann
    partition_type rho_r2
  #  hartree_partition_type stratmann
  #
  #  Oprions for large clusters (100's of atoms: memory saving / better scaling)
  #
  # for periodic systems:
  #
    density_update_method orbital
    packed_matrix_format none
  #  k_grid 6 6 6
  #  output k_eigenvalue 1
  #  distributed_spline_storage .true.
  #
  #  Relaxation
  #
  #  relax_geometry   bfgs 5.e-3
    sc_accuracy_forces 5.E-4
    final_forces_cleaned .true.
  #
  #  Output options
  #
  #  output mulliken
    output Hirshfeld
  #  output dipole
  
  #harmonic_length_scale 0.001
  
  ################################################################################
  #
  #  FHI-aims code project
  #  VB, Fritz-Haber Institut, 2007
  #
  #  Suggested "safe" defaults for H atom (to be pasted into control.in file)
  #  Basis constructed for a non-relativistic H2 molecule using the
  #  PW-LDA functional.
  #
  ################################################################################
    species        H
  #     global species definitions
      nucleus             1
      cut_pot             4.0  2.0  1.0
      cut_free_atom       finite 8.0
      logarithmic         0.00010000 100.00  1.0123
      basis_dep_cutoff    1d-4  # 1d-4 is safe default - please check 5d-4 if you wish!
      radial_base         24 7.0
      radial_multiplier   2
      angular_grids       specified
        division   0.2783  110
        division   0.3822  194
        division   0.5626  302
  #      division   0.5922  434
  #      division   0.6227  590
  #      division   0.7206  770
        outer_grid  302
      l_hartree           4
  ################################################################################
  #
  #  Definition of "minimal" basis
  #
  ################################################################################
  #     valence basis states
      valence      1  s   1.
  #     ion occupancy
      ion_occ      1  s   0.5
  ################################################################################
  #
  #  Suggested additional basis functions. For production calculations,
  #  uncomment them one after another (the most important basis functions are
  #  listed first).
  #
  ################################################################################
  #  "First tier" - improvements: -1014.90 meV to -62.69 meV
       hydro 2 s 2.1
       hydro 2 p 3.5
  #  "Second tier" - improvements: -12.89 meV to -1.83 meV
       hydro 1 s 0.85
       hydro 2 p 3.7
       hydro 2 s 1.2
       hydro 3 d 7
  #  "Third tier" - improvements: -0.25 meV to -0.12 meV
  #     hydro 4 f 11.2
  #     hydro 3 p 4.8
  #     hydro 4 d 9
  #     hydro 3 s 3.2
  
  ################################################################################
  #
  #  FHI-aims code project
  #  VB, Fritz-Haber Institut, 2007
  #
  #  Suggested "safe" defaults for O atom (to be pasted into control.in file)
  #  All values have been tested for a non-relativistic, non-spinpolarized O2
  #  molecule using the PW-LDA functional. Validity for PBE is expected.
  #
  #  Constructed for dimers: 1.0 A, 1.208 A, 1.5 A, 2.0 A, 3.0 A
  #
  ################################################################################
    species        O
  #     global species definitions
      nucleus             8
      mass                15.9994
      l_hartree           4
      cut_pot             4.0  2.0  1.0
      cut_free_atom       finite 8.0
      basis_dep_cutoff    1d-4  # 1d-4 is safe default - please check 5d-4 if you wish!
      logarithmic         0.00010000 100.00  1.0123
      radial_base         36 7.0
      radial_multiplier   2
       angular_grids specified
        division   0.4087  110
        division   0.5181  194
        division   0.6184  302
  #      division   0.7315  434
  #      division   0.7934  590
  #      division   0.9656  770
  #      division   1.4041  974
  #      outer_grid 974
        outer_grid 302
  ################################################################################
  #
  #  Definition of "minimal" basis
  #
  ################################################################################
  #     valence basis states
      valence      2  s   2.
      valence      2  p   4.
  #     ion occupancy
      ion_occ      2  s   1.
      ion_occ      2  p   3.
  ################################################################################
  #
  #  Suggested additional basis functions. For production calculations,
  #  uncomment them one after another (the most important basis functions are
  #  listed first).
  #
  ################################################################################
  #  "First tier" - improvements: -699.05 meV to -159.38 meV
       hydro 2 p 1.8
       hydro 3 d 7.6
       hydro 3 s 6.4
  #  "Second tier" - improvements: -49.91 meV to -5.39 meV
       hydro 4 f 11.6
       hydro 3 p 6.2
       hydro 3 d 5.6
       hydro 5 g 17.6
       hydro 1 s 0.75
  #  "Third tier" - improvements: -2.83 meV to -0.50 meV
  #     ionic 2 p auto
  #     hydro 4 f 10.8
  #     hydro 4 d 4.7
  #     hydro 2 s 6.8
  #  "Fourth tier" - improvements: -0.40 meV to -0.12 meV
  #     hydro 3 p 5
  #     hydro 3 s 3.3
  #     hydro 5 g 15.6
  #     hydro 4 f 17.6
  #     hydro 4 d 14
  # Further basis functions - -0.08 meV and below
  #     hydro 3 s 2.1
  #     hydro 4 d 11.6
  #     hydro 3 p 16
  #     hydro 2 s 17.2
  
  
  -----------------------------------------------------------------------
  Completed first pass over input file control.in .
  -----------------------------------------------------------------------
  
  
  -----------------------------------------------------------------------
  Parsing geometry.in (first pass over file, find array dimensions only).
  The contents of geometry.in will be repeated verbatim below
  unless switched off by setting 'verbatim_writeout .false.' .
  in the first line of geometry.in .
  -----------------------------------------------------------------------
  
  atom      -4.053030000      0.065001000     -1.525160000  O
  atom      -4.566710000      0.974813000     -1.912820000  H
  atom      -3.067820000      0.330172000     -1.477310000  H
  atom      -5.293160000      2.192130000     -2.328800000  O
  atom      -4.829300000      2.988660000     -1.973850000  H
  atom      -5.428570000      2.328640000     -3.235170000  H
  atom      -1.975360000      2.858040000      0.453140000  O
  atom      -1.223550000      3.375850000      0.786238000  H
  atom      -2.537520000      2.567960000      1.156120000  H
  atom      -4.066610000      4.258280000     -0.900064000  O
  atom      -3.224110000      3.876870000     -0.569443000  H
  atom      -3.737450000      5.116530000     -1.322720000  H
  
  -----------------------------------------------------------------------
  Completed first pass over input file geometry.in .
  -----------------------------------------------------------------------
  
 
  Basic array size parameters: 
  | Number of species                 :        2
  | Number of atoms                   :       12
  | Max. basis fn. angular momentum   :        4
  | Max. atomic/ionic basis occupied n:        2
  | Max. number of basis fn. types    :        2
  | Max. radial fns per species/type  :        8
  | Max. logarithmic grid size        :     1301
  | Max. radial integration grid size :       73
  | Max. angular integration grid size:      302
  | Max. angular grid division number :        8
  | Radial grid for Hartree potential :     1301
  | Number of spin channels           :        1

------------------------------------------------------------
          Reading file control.in.
------------------------------------------------------------
  XC: Using RPBE gradient-corrected functionals.
  Spin treatment: No spin polarisation.
  Scalar relativistic treatment of kinetic energy: on-site free-atom approximation to ZORA.
  Charge =   0.000000E+00: Neutral system requested explicitly.
  Using non-empirical van der Waals correction (Hirshfeld partitioning):
  Occupation type: Gaussian broadening, width =   0.100000E-01 eV.
  Using pulay charge density mixing.
  Pulay mixing - number of memorized iterations:   10
  Charge density mixing - mixing parameter:     0.1000
  Convergence accuracy of self-consistent charge density: 0.5000E-04
  Convergence accuracy of sum of eigenvalues: 0.5000E-02
  Convergence accuracy of total energy: 0.5000E-05
  Maximum number of s.-c. iterations  :  3000
  Kohn-Sham eigenvalues and eigenfunctions calculated by lapack diagonalisation (D&C).
  Number of empty states per atom:        8
  Threshold for basis singularities: 0.0000E+00
  Partition function in integrals calculations: rho / r^2
 Using packed matrix format           0
  Convergence accuracy of forces: 0.5000E-03
  Cleaning forces before final output.
  Hirshfeld charge analysis will be performed.
 
  Reading configuration options for species H                   .
  | Found nuclear charge :   1.0000
  | Found cutoff potl. onset [A], width [A], scale factor :    4.00000    2.00000    1.00000
  | Found cutoff specification for free atom: Cutoff potential begins at    8.00000 A.
  | Found logarithmic grid data [bohr] : 0.1000E-03 0.1000E+03 0.1012E+01
  | Threshold for basis-dependent cutoff potential is   0.100000E-03
  | Found data for basic radial integration grid :    24 points, outermost radius =    7.000 A
  | Found multiplier for basic radial grid :   2
  | Found angular grid specification: user-specified.
  | Specified grid contains     4 separate shells.
  | Check grid settings after all constraints further below.
  | Found l_max for Hartree potential  :   4
  | Found free-atom valence shell :  1 s   1.000
  | No ionic wave fns used. Skipping ion_occ.
  | Found hydrogenic basis function :  2 s   2.100
  | Found hydrogenic basis function :  2 p   3.500
  | Found hydrogenic basis function :  1 s   0.850
  | Found hydrogenic basis function :  2 p   3.700
  | Found hydrogenic basis function :  2 s   1.200
  | Found hydrogenic basis function :  3 d   7.000
  Species H                   : Missing cutoff potential type.
  Defaulting to exp(1/x)/(1-x)^2 type cutoff potential.
  Species H : On-site basis accuracy parameter (for Gram-Schmidt orthonormalisation) not specified.
  Using default value basis_acc =  0.1000000E-03.
  Species H                   : Using default innermost maximum threshold i_radial=  2 for radial functions.
  Species H                   : Basic radial grid will be enhanced according to radial_multiplier =   2, to contain    49 grid points.
 
  Reading configuration options for species O                   .
  | Found nuclear charge :   8.0000
  | Found atomic mass :    15.9994000000000      amu
  | Found l_max for Hartree potential  :   4
  | Found cutoff potl. onset [A], width [A], scale factor :    4.00000    2.00000    1.00000
  | Found cutoff specification for free atom: Cutoff potential begins at    8.00000 A.
  | Threshold for basis-dependent cutoff potential is   0.100000E-03
  | Found logarithmic grid data [bohr] : 0.1000E-03 0.1000E+03 0.1012E+01
  | Found data for basic radial integration grid :    36 points, outermost radius =    7.000 A
  | Found multiplier for basic radial grid :   2
  | Found angular grid specification: user-specified.
  | Specified grid contains     4 separate shells.
  | Check grid settings after all constraints further below.
  | Found free-atom valence shell :  2 s   2.000
  | Found free-atom valence shell :  2 p   4.000
  | No ionic wave fns used. Skipping ion_occ.
  | No ionic wave fns used. Skipping ion_occ.
  | Found hydrogenic basis function :  2 p   1.800
  | Found hydrogenic basis function :  3 d   7.600
  | Found hydrogenic basis function :  3 s   6.400
  | Found hydrogenic basis function :  4 f  11.600
  | Found hydrogenic basis function :  3 p   6.200
  | Found hydrogenic basis function :  3 d   5.600
  | Found hydrogenic basis function :  5 g  17.600
  | Found hydrogenic basis function :  1 s   0.750
  Species O                   : Missing cutoff potential type.
  Defaulting to exp(1/x)/(1-x)^2 type cutoff potential.
  Species O : On-site basis accuracy parameter (for Gram-Schmidt orthonormalisation) not specified.
  Using default value basis_acc =  0.1000000E-03.
  Species O                   : Using default innermost maximum threshold i_radial=  2 for radial functions.
  Species O                   : Basic radial grid will be enhanced according to radial_multiplier =   2, to contain    73 grid points.
 
  Finished reading input file 'control.in'. Consistency checks are next.
 
  Target number of points in a grid batch is not set. Defaulting to  100
  Method for grid partitioning is not set. Defaulting to parallel hash+maxmin partitioning.
  Batch size limit is not set. Defaulting to    200
  By default, will store active basis functions for each batch.
  If in need of memory, prune_basis_once .false. can be used to disable this option.
  communication_type for Hartree potential was not specified.
  Defaulting to calc_hartree .
  Pulay mixer: Number of initial linear mixing iterations not set.
  Defaulting to    0 iterations.
  Work space size for distributed Hartree potential not set.
  Defaulting to   0.200000E+03 MB.
  Algorithm-dependent basis array size parameters:
  | n_max_pulay                         :       10
  Geometry relaxation not requested: no relaxation will be performed.
  Handling of forces: Unphysical translation and rotation will be removed from forces.
  No accuracy limit for integral partition fn. given. Defaulting to 0.1000E-14.
  No threshold value for u(r) in integrations given. Defaulting to 0.1000E-05.
  No accuracy for occupation numbers given. Defaulting to 0.1000E-07.
  No threshold value for occupation numbers given. Defaulting to 0.0000E+00.
  No accuracy for fermi level given. Defaulting to 0.1000E-19.
  Maximum # of iterations to find E_F not set. Defaulting to  200.
  Will not use alltoall communication since running on < 1024 CPUs.
  Partitioning for Hartree potential was not defined. Using partition_type for integrals.
  | Reporting present value of keyword multip_moments_threshold  :       0.10000000E-09
  | This value may affect high angular momentum components of the Hartree potential in periodic systems.
  No q(lm)/r^(l+1) cutoff set for long-range Hartree potential.
  | Using default value of  0.100000E-09 .
  | Verify using the multipole_threshold keyword.
  Defaulting to new monopole extrapolation.
  Density update method: Loop over occupied states selected for charge density update.
------------------------------------------------------------


------------------------------------------------------------
          Reading geometry description geometry.in.
------------------------------------------------------------
  Input structure read successfully.
  The structure contains       12 atoms,  and a total of         40.000 electrons.

  Input geometry:
  | No unit cell requested.
  | Atomic structure:
  |       Atom                x [A]            y [A]            z [A]
  |    1: Species O             -4.053030         0.065001        -1.525160
  |    2: Species H             -4.566710         0.974813        -1.912820
  |    3: Species H             -3.067820         0.330172        -1.477310
  |    4: Species O             -5.293160         2.192130        -2.328800
  |    5: Species H             -4.829300         2.988660        -1.973850
  |    6: Species H             -5.428570         2.328640        -3.235170
  |    7: Species O             -1.975360         2.858040         0.453140
  |    8: Species H             -1.223550         3.375850         0.786238
  |    9: Species H             -2.537520         2.567960         1.156120
  |   10: Species O             -4.066610         4.258280        -0.900064
  |   11: Species H             -3.224110         3.876870        -0.569443
  |   12: Species H             -3.737450         5.116530        -1.322720
  |

  | The smallest distance between any two atoms is         0.92654057 AA.
  |
  | The first atom of this pair is atom number                      4 .
  | The second atom of this pair is atom number                     6 .

  Structure-dependent array size parameters: 
  | Maximum number of distinct radial functions  :       18
  | Maximum number of basis functions            :      276
  | Number of Kohn-Sham states (occupied + empty):       68
------------------------------------------------------------

------------------------------------------------------------
          Preparing all fixed parts of the calculation.
------------------------------------------------------------
  Determining machine precision:
    2.225073858507201E-308
  Setting up grids for atomic and cluster calculations.

  Creating wave function, potential, and density for free atoms.

  Species: H

  List of occupied orbitals and eigenvalues:
    n    l              occ      energy [Ha]    energy [eV]
    1    0           1.0000        -0.241408        -6.5691


  Species: O

  List of occupied orbitals and eigenvalues:
    n    l              occ      energy [Ha]    energy [eV]
    1    0           2.0000       -18.944147      -515.4965
    2    0           2.0000        -0.883529       -24.0421
    2    1           4.0000        -0.330176        -8.9845

  Creating fixed part of basis set: Ionic, confined, hydrogenic.
 
  H                    hydrogenic:
 
  List of hydrogenic basis orbitals: 
    n    l      effective z      eigenvalue [eV]  inner max. [A]     outer max. [A]     outer radius [A]   
    2    0         2.100000       -14.9965           0.193241           1.317192           5.372934
    2    1         3.500000       -41.6672           0.602363           0.602363           4.056010
    1    0         0.850000        -9.8292           0.624864           0.624864           5.372934
    2    1         3.700000       -46.5653           0.573616           0.573616           3.909951
    2    0         1.200000        -4.5995           0.334977           2.228160           5.505921
    3    2         7.000000       -74.0753           0.680692           0.680692           3.769152
 
 
  O                    hydrogenic:
 
  List of hydrogenic basis orbitals: 
    n    l      effective z      eigenvalue [eV]  inner max. [A]     outer max. [A]     outer radius [A]   
    2    1         1.800000       -11.0118           1.178546           1.178546           5.432516
    3    2         7.600000       -87.3182           0.624117           0.624117           3.541422
    3    0         6.400000       -61.9209           0.061166           1.081887           4.306510
    4    3        11.600000      -114.4238           0.731621           0.731621           3.584982
    3    1         6.200000       -58.1113           0.255677           1.030255           4.306510
    3    2         5.600000       -47.4081           0.847222           0.847222           4.413102
    5    4        17.600000      -168.5799           0.749730           0.749730           3.372413
    1    0         0.750000        -7.6499           0.705275           0.705275           5.366508
 

  Adding cutoff potential to free-atom effective potential.
  Creating atomic-like basis functions for current effective potential.

  Species H                   :

  List of atomic basis orbitals and eigenvalues:
    n    l      energy [Ha]    energy [eV]    outer radius [A]
    1    0        -0.241374        -6.5681       5.372934


  Species O                   :

  List of atomic basis orbitals and eigenvalues:
    n    l      energy [Ha]    energy [eV]    outer radius [A]
    1    0       -18.944147      -515.4965       1.415745
    2    0        -0.883529       -24.0421       5.048305
    2    1        -0.330173        -8.9845       5.301302

  Assembling full basis from fixed parts.
  | Species H :   atomic orbital   1 s accepted.
  | Species H :    hydro orbital   2 s accepted.
  | Species H :    hydro orbital   1 s accepted.
  | Species H :    hydro orbital   2 s accepted.
  | Species H :    hydro orbital   2 p accepted.
  | Species H :    hydro orbital   2 p accepted.
  | Species H :    hydro orbital   3 d accepted.
  | Species O :   atomic orbital   1 s accepted.
  | Species O :    hydro orbital   3 s accepted.
  | Species O :   atomic orbital   2 s accepted.
  | Species O :    hydro orbital   1 s accepted.
  | Species O :    hydro orbital   3 p accepted.
  | Species O :   atomic orbital   2 p accepted.
  | Species O :    hydro orbital   2 p accepted.
  | Species O :    hydro orbital   3 d accepted.
  | Species O :    hydro orbital   3 d accepted.
  | Species O :    hydro orbital   4 f accepted.
  | Species O :    hydro orbital   5 g accepted.
 
  Basis size parameters after reduction:
  | Total number of radial functions:       18
  | Total number of basis functions :      276
 
  Testing on-site integration grid accuracy.
  |  Species  Function  <phi|h_atom|phi> (log., in eV)  <phi|h_atom|phi> (rad., in eV)
           1        1                 -6.5683835025                 -6.5684759159
           1        2                 13.3711789951                 13.3708738703
           1        3                 23.6590910787                 23.6532055418
           1        4                 16.2963827186                 16.1870710655 ***
           1        5                 28.7627214838                 28.7627215090
           1        6                 59.5965249172                 59.5965950857
           1        7                 60.2220506392                 60.2220503827
           2        8               -515.4964576505               -515.4964530710
           2        9                 15.3030791347                 15.3030722972
           2       10                -21.7296094581                -21.7296135470
           2       11                 14.2969371730                 14.2969701621
           2       12                 21.0679693190                 21.0679697493
           2       13                 -2.3833606469                 -2.3833613176
           2       14                 13.7067136422                 13.7066766629
           2       15                 45.8013116808                 45.8013116965
           2       16                 52.2309815402                 52.2309831494
           2       17                 85.4120732416                 85.4120732763
           2       18                142.1019167745                142.1019167817
 * Note: Onsite integrals marked "***" above are less accurate than
 * onsite_accuracy_threshold =    0.03000 eV. Usually, this is harmless.
 * When in doubt, tighten the "radial" and/or "radial_multiplier" flags to check.

  Preparing densities etc. for the partition functions (integrals / Hartree potential).

  Preparations completed.
  max(cpu_time)          :      0.170 s.
  Wall clock time (cpu1) :      0.429 s.
------------------------------------------------------------

------------------------------------------------------------
          Begin self-consistency loop: Initialization.

          Date     :  20150727, Time     :  122917.157
------------------------------------------------------------

  Initializing index lists of integration centers etc. from given atomic structure:
  | Number of centers in hartree potential         :        12
  | Number of centers in hartree multipole         :        12
  | Number of centers in electron density summation:        12
  | Number of centers in basis integrals           :        12
  | Number of centers in integrals                 :        12
  Partitioning the integration grid into batches with parallel hashing+maxmin method.
  | Number of batches:     1734
  | Maximal batch size:     192
  | Minimal batch size:      53
  | Average batch size:      90.754
  | Standard deviation of batch sizes:      26.859

  Integration load balanced across     8 MPI tasks.
  Work distribution over tasks is as follows:
  Task     0 has      19607 integration points.
  Task     1 has      19685 integration points.
  Task     2 has      19696 integration points.
  Task     3 has      19656 integration points.
  Task     4 has      19684 integration points.
  Task     5 has      19719 integration points.
  Task     6 has      19625 integration points.
  Task     7 has      19696 integration points.
  Initializing partition tables, free-atom densities, potentials, etc. across the integration grid (initialize_grid_storage).
  | Net number of integration points:   157368
  | of which are non-zero points    :   156848
  Obtaining max. number of non-zero basis functions in each batch (get_n_compute_maxes).
  | Maximal number of non-zero basis functions:      274 in task     0
  | Maximal number of non-zero basis functions:      274 in task     1
  | Maximal number of non-zero basis functions:      274 in task     2
  | Maximal number of non-zero basis functions:      274 in task     3
  | Maximal number of non-zero basis functions:      274 in task     4
  | Maximal number of non-zero basis functions:      274 in task     5
  | Maximal number of non-zero basis functions:      274 in task     6
  | Maximal number of non-zero basis functions:      274 in task     7
  Integrating Hamiltonian matrix: batch-based integration.
  Time summed over all CPUs for integration: real work        4.692 s, elapsed        4.815 s
  Integrating overlap matrix.
  Time summed over all CPUs for integration: real work        2.497 s, elapsed        2.549 s

  Updating Kohn-Sham eigenvalues, eigenvectors, occupation numbers, and Fermi level.
  Solving generalized eigenproblem
  Updating Kohn-Sham eigenvalues and eigenfunctions.
  Transforming overlap matrix and checking for singularities.
  Overlap matrix is nonsingular:
  | Lowest eigenvalue:  0.308291E-03
  Solving real generalised eigenvalue problem by standard LAPACK (fast)
  Determining occupation numbers for Kohn-Sham eigenstates.
  | Chemical potential (Fermi level) in eV                 : -.43953084E+01
  | Error in electron count due to remaining E_F inaccuracy: 0.00000000E+00
  | Maximum occupation number of highest empty state:  0.00E+00

  Writing Kohn-Sham eigenvalues.

  State    Occupation    Eigenvalue [Ha]    Eigenvalue [eV]
      1       2.00000         -19.064895         -518.78218
      2       2.00000         -19.056640         -518.55756
      3       2.00000         -19.042958         -518.18526
      4       2.00000         -19.019418         -517.54470
      5       2.00000          -1.122112          -30.53421
      6       2.00000          -1.107349          -30.13250
      7       2.00000          -1.086436          -29.56344
      8       2.00000          -1.043120          -28.38474
      9       2.00000          -0.653292          -17.77699
     10       2.00000          -0.649063          -17.66189
     11       2.00000          -0.609062          -16.57342
     12       2.00000          -0.596925          -16.24314
     13       2.00000          -0.528187          -14.37269
     14       2.00000          -0.513788          -13.98088
     15       2.00000          -0.501320          -13.64161
     16       2.00000          -0.482311          -13.12435
     17       2.00000          -0.443565          -12.07001
     18       2.00000          -0.440876          -11.99684
     19       2.00000          -0.433130          -11.78606
     20       2.00000          -0.409571          -11.14500
     21       0.00000          -0.089837           -2.44459
     22       0.00000          -0.057245           -1.55773
     23       0.00000          -0.051446           -1.39993
     24       0.00000          -0.026519           -0.72162
     25       0.00000          -0.005294           -0.14405
     26       0.00000           0.031040            0.84464
     27       0.00000           0.040253            1.09535
     28       0.00000           0.050336            1.36972
     29       0.00000           0.080034            2.17783
     30       0.00000           0.082995            2.25840
     31       0.00000           0.097719            2.65906
     32       0.00000           0.098924            2.69185
     33       0.00000           0.106423            2.89591
     34       0.00000           0.107763            2.93239
     35       0.00000           0.110840            3.01610
     36       0.00000           0.126041            3.42974
     37       0.00000           0.132853            3.61511
     38       0.00000           0.144511            3.93233
     39       0.00000           0.148171            4.03194
     40       0.00000           0.176339            4.79844
     41       0.00000           0.193093            5.25433
     42       0.00000           0.228921            6.22926
     43       0.00000           0.241871            6.58166
     44       0.00000           0.251092            6.83255
     45       0.00000           0.259694            7.06663
     46       0.00000           0.274416            7.46725
     47       0.00000           0.299754            8.15673
     48       0.00000           0.317817            8.64825
     49       0.00000           0.335810            9.13785
     50       0.00000           0.342732            9.32622
     51       0.00000           0.364443            9.91701
     52       0.00000           0.376393           10.24217
     53       0.00000           0.388310           10.56646
     54       0.00000           0.394077           10.72337
     55       0.00000           0.418238           11.38085
     56       0.00000           0.433640           11.79995
     57       0.00000           0.438409           11.92973
     58       0.00000           0.459627           12.50709
     59       0.00000           0.466934           12.70592
     60       0.00000           0.507649           13.81382
     61       0.00000           0.534691           14.54967
     62       0.00000           0.540519           14.70828
     63       0.00000           0.569024           15.48394
     64       0.00000           0.595518           16.20487
     65       0.00000           0.617149           16.79348
     66       0.00000           0.652300           17.74998
     67       0.00000           0.690293           18.78382
     68       0.00000           0.714913           19.45377

  Highest occupied state (VBM) at    -11.14499607 eV
  | Occupation number:      2.00000000

  Lowest unoccupied state (CBM) at    -2.44458881 eV
  | Occupation number:      0.00000000

  Overall HOMO-LUMO gap:      8.70040726 eV.
  Calculating total energy contributions from superposition of free atom densities.

  Total energy components:
  | Sum of eigenvalues            :        -173.60803195 Ha       -4724.11490973 eV
  | XC energy correction          :         -36.46418860 Ha        -992.24105640 eV
  | XC potential correction       :          46.59507303 Ha        1267.91644794 eV
  | Free-atom electrostatic energy:        -142.99598993 Ha       -3891.11886395 eV
  | Hartree energy correction     :           0.00000000 Ha           0.00000000 eV
  | van der Waals energy corr.    :           0.00000000 Ha           0.00000000 eV
  | Entropy correction            :           0.00000000 Ha           0.00000000 eV
  | ---------------------------
  | Total energy                  :        -306.47313745 Ha       -8339.55838215 eV
  | Total energy, T -> 0          :        -306.47313745 Ha       -8339.55838215 eV  <-- do not rely on this value for anything but (periodic) metals
  | Electronic free energy        :        -306.47313745 Ha       -8339.55838215 eV

  Derived energy quantities:
  | Kinetic energy                :         303.33032073 Ha        8254.03798791 eV
  | Electrostatic energy          :        -573.33926959 Ha      -15601.35531366 eV
  | Energy correction for multipole
  | error in Hartree potential    :           0.00000000 Ha           0.00000000 eV
  | Sum of eigenvalues per atom                           :        -393.67624248 eV
  | Total energy (T->0) per atom                          :        -694.96319851 eV  <-- do not rely on this value for anything but (periodic) metals
  | Electronic free energy per atom                       :        -694.96319851 eV
  Initialize hartree_potential_storage
  Max. number of atoms included in rho_multipole:           12

  End scf initialization - timings             :  max(cpu_time)    wall_clock(cpu1)
  | Time for scf. initialization               :        1.327 s           1.326 s
  | Boundary condition initialization          :        0.000 s           0.000 s
  | Integration                                :        0.923 s           0.923 s
  | Solution of K.-S. eqns.                    :        0.119 s           0.119 s
  | Grid partitioning                          :        0.137 s           0.137 s
  | Preloading free-atom quantities on grid    :        0.013 s           0.013 s
  | Free-atom superposition energy             :        0.046 s           0.045 s
  | Total energy evaluation                    :        0.000 s           0.000 s
------------------------------------------------------------

------------------------------------------------------------
          Begin self-consistency iteration #    1

  Date     :  20150727, Time     :  122918.484
------------------------------------------------------------
  Evaluating new KS density.
  Integration grid: deviation in total charge (<rho> - N_e) =   7.105427E-15
  Pulay mixing of updated and previous charge densities.

  Evaluating partitioned Hartree potential by multipole expansion.
  | Analytical far-field extrapolation by fixed multipoles:
  | Hartree multipole sum: apparent total charge =  -0.144841E-05
  Summing up the Hartree potential.
  Time summed over all CPUs for potential: real work        1.656 s, elapsed        1.661 s
  | RMS charge density error from multipole expansion :   0.147973E-02

  Integrating Hamiltonian matrix: batch-based integration.
  Time summed over all CPUs for integration: real work        4.697 s, elapsed        4.831 s

  Updating Kohn-Sham eigenvalues, eigenvectors, occupation numbers, and Fermi level.
  Solving generalized eigenproblem
  Updating Kohn-Sham eigenvalues and eigenfunctions.
  Solving real generalised eigenvalue problem by standard LAPACK (fast)
  Determining occupation numbers for Kohn-Sham eigenstates.
  | Chemical potential (Fermi level) in eV                 : -.39810228E+01
  | Error in electron count due to remaining E_F inaccuracy: 0.00000000E+00
  | Maximum occupation number of highest empty state:  0.00E+00

  Writing Kohn-Sham eigenvalues.

  State    Occupation    Eigenvalue [Ha]    Eigenvalue [eV]
      1       2.00000         -18.992538         -516.81326
      2       2.00000         -18.984491         -516.59429
      3       2.00000         -18.972614         -516.27109
      4       2.00000         -18.932474         -515.17882
      5       2.00000          -1.086441          -29.56357
      6       2.00000          -1.073865          -29.22134
      7       2.00000          -1.052391          -28.63701
      8       2.00000          -0.995794          -27.09695
      9       2.00000          -0.622051          -16.92687
     10       2.00000          -0.620613          -16.88775
     11       2.00000          -0.580180          -15.78751
     12       2.00000          -0.560047          -15.23967
     13       2.00000          -0.490334          -13.34268
     14       2.00000          -0.478330          -13.01603
     15       2.00000          -0.466625          -12.69752
     16       2.00000          -0.441590          -12.01627
     17       2.00000          -0.408260          -11.10931
     18       2.00000          -0.398101          -10.83288
     19       2.00000          -0.397240          -10.80944
     20       2.00000          -0.360885           -9.82017
     21       0.00000          -0.082143           -2.23522
     22       0.00000          -0.050494           -1.37400
     23       0.00000          -0.042277           -1.15040
     24       0.00000          -0.018189           -0.49495
     25       0.00000          -0.000441           -0.01200
     26       0.00000           0.040960            1.11459
     27       0.00000           0.050568            1.37602
     28       0.00000           0.057517            1.56510
     29       0.00000           0.088896            2.41897
     30       0.00000           0.095256            2.59204
     31       0.00000           0.108504            2.95253
     32       0.00000           0.110255            3.00019
     33       0.00000           0.113781            3.09613
     34       0.00000           0.116146            3.16049
     35       0.00000           0.125300            3.40960
     36       0.00000           0.138078            3.75728
     37       0.00000           0.143656            3.90907
     38       0.00000           0.151704            4.12808
     39       0.00000           0.159590            4.34267
     40       0.00000           0.184265            5.01410
     41       0.00000           0.201607            5.48602
     42       0.00000           0.238749            6.49669
     43       0.00000           0.247658            6.73911
     44       0.00000           0.259952            7.07366
     45       0.00000           0.269159            7.32419
     46       0.00000           0.285447            7.76741
     47       0.00000           0.306769            8.34760
     48       0.00000           0.326552            8.88592
     49       0.00000           0.342418            9.31768
     50       0.00000           0.352296            9.58645
     51       0.00000           0.375310           10.21271
     52       0.00000           0.385478           10.48939
     53       0.00000           0.396375           10.78591
     54       0.00000           0.402362           10.94882
     55       0.00000           0.430690           11.71967
     56       0.00000           0.440217           11.97892
     57       0.00000           0.444947           12.10761
     58       0.00000           0.469890           12.78637
     59       0.00000           0.476276           12.96013
     60       0.00000           0.521300           14.18530
     61       0.00000           0.545949           14.85603
     62       0.00000           0.552037           15.02169
     63       0.00000           0.577957           15.72701
     64       0.00000           0.607060           16.51894
     65       0.00000           0.627298           17.06964
     66       0.00000           0.664369           18.07840
     67       0.00000           0.701713           19.09458
     68       0.00000           0.727489           19.79597

  Highest occupied state (VBM) at     -9.82016883 eV
  | Occupation number:      2.00000000

  Lowest unoccupied state (CBM) at    -2.23522010 eV
  | Occupation number:      0.00000000

  Overall HOMO-LUMO gap:      7.58494873 eV.

  Total energy components:
  | Sum of eigenvalues            :        -171.82972928 Ha       -4675.72483206 eV
  | XC energy correction          :         -36.65777279 Ha        -997.50875039 eV
  | XC potential correction       :          46.84830409 Ha        1274.80721563 eV
  | Free-atom electrostatic energy:        -142.99598993 Ha       -3891.11886395 eV
  | Hartree energy correction     :          -1.72476650 Ha         -46.93328439 eV
  | van der Waals energy corr.    :           0.00000000 Ha           0.00000000 eV
  | Entropy correction            :           0.00000000 Ha           0.00000000 eV
  | ---------------------------
  | Total energy                  :        -306.35995442 Ha       -8336.47851516 eV
  | Total energy, T -> 0          :        -306.35995442 Ha       -8336.47851516 eV  <-- do not rely on this value for anything but (periodic) metals
  | Electronic free energy        :        -306.35995442 Ha       -8336.47851516 eV

  Derived energy quantities:
  | Kinetic energy                :         304.48019366 Ha        8285.32762239 eV
  | Electrostatic energy          :        -574.18237529 Ha      -15624.29738716 eV
  | Energy correction for multipole
  | error in Hartree potential    :           0.00001246 Ha           0.00033902 eV
  | Sum of eigenvalues per atom                           :        -389.64373601 eV
  | Total energy (T->0) per atom                          :        -694.70654293 eV  <-- do not rely on this value for anything but (periodic) metals
  | Electronic free energy per atom                       :        -694.70654293 eV

  Self-consistency convergence accuracy:
  | Change of charge density      : 0.5932E+00
  | Change of sum of eigenvalues  : 0.4839E+02 eV
  | Change of total energy        : 0.3080E+01 eV

  End self-consistency iteration #     1       :  max(cpu_time)    wall_clock(cpu1)
  | Time for this iteration                    :        1.242 s           1.241 s
  | Charge density update                      :        0.389 s           0.389 s
  | Density mixing                             :        0.003 s           0.002 s
  | Hartree multipole update                   :        0.004 s           0.005 s
  | Hartree multipole summation                :        0.209 s           0.208 s
  | Integration                                :        0.605 s           0.605 s
  | Solution of K.-S. eqns.                    :        0.031 s           0.031 s
  | Total energy evaluation                    :        0.000 s           0.000 s
------------------------------------------------------------

------------------------------------------------------------
          Begin self-consistency iteration #    2

  Date     :  20150727, Time     :  122919.725
------------------------------------------------------------
  Evaluating new KS density.
  Integration grid: deviation in total charge (<rho> - N_e) =  -1.421085E-14
  Pulay mixing of updated and previous charge densities.

  Evaluating partitioned Hartree potential by multipole expansion.
  | Analytical far-field extrapolation by fixed multipoles:
  | Hartree multipole sum: apparent total charge =  -0.408413E-05
  Summing up the Hartree potential.
  Time summed over all CPUs for potential: real work        1.656 s, elapsed        1.661 s
  | RMS charge density error from multipole expansion :   0.597287E-02

  Integrating Hamiltonian matrix: batch-based integration.
  Time summed over all CPUs for integration: real work        4.682 s, elapsed        4.824 s

  Updating Kohn-Sham eigenvalues, eigenvectors, occupation numbers, and Fermi level.
  Solving generalized eigenproblem
  Updating Kohn-Sham eigenvalues and eigenfunctions.
  Solving real generalised eigenvalue problem by standard LAPACK (fast)
  Determining occupation numbers for Kohn-Sham eigenstates.
  | Chemical potential (Fermi level) in eV                 : -.28898105E+01
  | Error in electron count due to remaining E_F inaccuracy: 0.00000000E+00
  | Maximum occupation number of highest empty state:  0.00E+00

  Highest occupied state (VBM) at     -6.62308740 eV
  | Occupation number:      2.00000000

  Lowest unoccupied state (CBM) at    -1.79801754 eV
  | Occupation number:      0.00000000

  Overall HOMO-LUMO gap:      4.82506986 eV.

  Total energy components:
  | Sum of eigenvalues            :        -167.55988097 Ha       -4559.53634776 eV
  | XC energy correction          :         -37.14339608 Ha       -1010.72323241 eV
  | XC potential correction       :          47.48296641 Ha        1292.07725607 eV
  | Free-atom electrostatic energy:        -142.99598993 Ha       -3891.11886395 eV
  | Hartree energy correction     :          -6.01087488 Ha        -163.56422746 eV
  | van der Waals energy corr.    :           0.00000000 Ha           0.00000000 eV
  | Entropy correction            :           0.00000000 Ha           0.00000000 eV
  | ---------------------------
  | Total energy                  :        -306.22717545 Ha       -8332.86541552 eV
  | Total energy, T -> 0          :        -306.22717545 Ha       -8332.86541552 eV  <-- do not rely on this value for anything but (periodic) metals
  | Electronic free energy        :        -306.22717545 Ha       -8332.86541552 eV

  Derived energy quantities:
  | Kinetic energy                :         306.83663799 Ha        8349.44973510 eV
  | Electrostatic energy          :        -575.92041736 Ha      -15671.59191821 eV
  | Energy correction for multipole
  | error in Hartree potential    :          -0.00061090 Ha          -0.01662355 eV
  | Sum of eigenvalues per atom                           :        -379.96136231 eV
  | Total energy (T->0) per atom                          :        -694.40545129 eV  <-- do not rely on this value for anything but (periodic) metals
  | Electronic free energy per atom                       :        -694.40545129 eV

  Self-consistency convergence accuracy:
  | Change of charge density      : 0.4493E+00
  | Change of sum of eigenvalues  : 0.1162E+03 eV
  | Change of total energy        : 0.3613E+01 eV

  End self-consistency iteration #     2       :  max(cpu_time)    wall_clock(cpu1)
  | Time for this iteration                    :        1.239 s           1.240 s
  | Charge density update                      :        0.387 s           0.387 s
  | Density mixing                             :        0.004 s           0.005 s
  | Hartree multipole update                   :        0.005 s           0.004 s
  | Hartree multipole summation                :        0.208 s           0.208 s
  | Integration                                :        0.604 s           0.604 s
  | Solution of K.-S. eqns.                    :        0.031 s           0.031 s
  | Total energy evaluation                    :        0.000 s           0.000 s
------------------------------------------------------------

------------------------------------------------------------
          Begin self-consistency iteration #    3

  Date     :  20150727, Time     :  122920.965
------------------------------------------------------------
  Evaluating new KS density.
  Integration grid: deviation in total charge (<rho> - N_e) =   1.421085E-14
  Pulay mixing of updated and previous charge densities.

  Evaluating partitioned Hartree potential by multipole expansion.
  | Analytical far-field extrapolation by fixed multipoles:
  | Hartree multipole sum: apparent total charge =  -0.370973E-05
  Summing up the Hartree potential.
  Time summed over all CPUs for potential: real work        1.656 s, elapsed        1.661 s
  | RMS charge density error from multipole expansion :   0.122175E-01

  Integrating Hamiltonian matrix: batch-based integration.
  Time summed over all CPUs for integration: real work        4.679 s, elapsed        4.797 s

  Updating Kohn-Sham eigenvalues, eigenvectors, occupation numbers, and Fermi level.
  Solving generalized eigenproblem
  Updating Kohn-Sham eigenvalues and eigenfunctions.
  Solving real generalised eigenvalue problem by standard LAPACK (fast)
  Determining occupation numbers for Kohn-Sham eigenstates.
  | Chemical potential (Fermi level) in eV                 : -.25954214E+01
  | Error in electron count due to remaining E_F inaccuracy: 0.00000000E+00
  | Maximum occupation number of highest empty state:  0.00E+00

  Highest occupied state (VBM) at     -6.32210264 eV
  | Occupation number:      2.00000000

  Lowest unoccupied state (CBM) at    -1.73025822 eV
  | Occupation number:      0.00000000

  Overall HOMO-LUMO gap:      4.59184442 eV.

  Total energy components:
  | Sum of eigenvalues            :        -167.59624910 Ha       -4560.52597509 eV
  | XC energy correction          :         -37.13884581 Ha       -1010.59941325 eV
  | XC potential correction       :          47.47296031 Ha        1291.80497639 eV
  | Free-atom electrostatic energy:        -142.99598993 Ha       -3891.11886395 eV
  | Hartree energy correction     :          -5.96375733 Ha        -162.28209373 eV
  | van der Waals energy corr.    :           0.00000000 Ha           0.00000000 eV
  | Entropy correction            :           0.00000000 Ha           0.00000000 eV
  | ---------------------------
  | Total energy                  :        -306.22188186 Ha       -8332.72136963 eV
  | Total energy, T -> 0          :        -306.22188186 Ha       -8332.72136963 eV  <-- do not rely on this value for anything but (periodic) metals
  | Electronic free energy        :        -306.22188186 Ha       -8332.72136963 eV

  Derived energy quantities:
  | Kinetic energy                :         305.21901403 Ha        8305.43194759 eV
  | Electrostatic energy          :        -574.30205008 Ha      -15627.55390398 eV
  | Energy correction for multipole
  | error in Hartree potential    :          -0.00442191 Ha          -0.12032618 eV
  | Sum of eigenvalues per atom                           :        -380.04383126 eV
  | Total energy (T->0) per atom                          :        -694.39344747 eV  <-- do not rely on this value for anything but (periodic) metals
  | Electronic free energy per atom                       :        -694.39344747 eV

  Self-consistency convergence accuracy:
  | Change of charge density      : 0.2205E+00
  | Change of sum of eigenvalues  : -.9896E+00 eV
  | Change of total energy        : 0.1440E+00 eV

  End self-consistency iteration #     3       :  max(cpu_time)    wall_clock(cpu1)
  | Time for this iteration                    :        1.234 s           1.234 s
  | Charge density update                      :        0.384 s           0.384 s
  | Density mixing                             :        0.005 s           0.005 s
  | Hartree multipole update                   :        0.005 s           0.005 s
  | Hartree multipole summation                :        0.208 s           0.208 s
  | Integration                                :        0.601 s           0.601 s
  | Solution of K.-S. eqns.                    :        0.030 s           0.030 s
  | Total energy evaluation                    :        0.000 s           0.000 s
------------------------------------------------------------

------------------------------------------------------------
          Begin self-consistency iteration #    4

  Date     :  20150727, Time     :  122922.199
------------------------------------------------------------
  Evaluating new KS density.
  Integration grid: deviation in total charge (<rho> - N_e) =   0.000000E+00
  Pulay mixing of updated and previous charge densities.

  Evaluating partitioned Hartree potential by multipole expansion.
  | Analytical far-field extrapolation by fixed multipoles:
  | Hartree multipole sum: apparent total charge =  -0.423133E-05
  Summing up the Hartree potential.
  Time summed over all CPUs for potential: real work        1.655 s, elapsed        1.662 s
  | RMS charge density error from multipole expansion :   0.150329E-01

  Integrating Hamiltonian matrix: batch-based integration.
  Time summed over all CPUs for integration: real work        4.665 s, elapsed        4.783 s

  Updating Kohn-Sham eigenvalues, eigenvectors, occupation numbers, and Fermi level.
  Solving generalized eigenproblem
  Updating Kohn-Sham eigenvalues and eigenfunctions.
  Solving real generalised eigenvalue problem by standard LAPACK (fast)
  Determining occupation numbers for Kohn-Sham eigenstates.
  | Chemical potential (Fermi level) in eV                 : -.22408214E+01
  | Error in electron count due to remaining E_F inaccuracy: 0.00000000E+00
  | Maximum occupation number of highest empty state:  0.00E+00

  Highest occupied state (VBM) at     -5.41668550 eV
  | Occupation number:      2.00000000

  Lowest unoccupied state (CBM) at    -1.61655492 eV
  | Occupation number:      0.00000000

  Overall HOMO-LUMO gap:      3.80013058 eV.

  Total energy components:
  | Sum of eigenvalues            :        -166.56007248 Ha       -4532.33017466 eV
  | XC energy correction          :         -37.26923711 Ha       -1014.14754098 eV
  | XC potential correction       :          47.64277282 Ha        1296.42580995 eV
  | Free-atom electrostatic energy:        -142.99598993 Ha       -3891.11886395 eV
  | Hartree energy correction     :          -7.03191744 Ha        -191.34820916 eV
  | van der Waals energy corr.    :           0.00000000 Ha           0.00000000 eV
  | Entropy correction            :           0.00000000 Ha           0.00000000 eV
  | ---------------------------
  | Total energy                  :        -306.21444413 Ha       -8332.51897881 eV
  | Total energy, T -> 0          :        -306.21444413 Ha       -8332.51897881 eV  <-- do not rely on this value for anything but (periodic) metals
  | Electronic free energy        :        -306.21444413 Ha       -8332.51897881 eV

  Derived energy quantities:
  | Kinetic energy                :         305.34241367 Ha        8308.78982244 eV
  | Electrostatic energy          :        -574.28762069 Ha      -15627.16126027 eV
  | Energy correction for multipole
  | error in Hartree potential    :          -0.00567719 Ha          -0.15448408 eV
  | Sum of eigenvalues per atom                           :        -377.69418122 eV
  | Total energy (T->0) per atom                          :        -694.37658157 eV  <-- do not rely on this value for anything but (periodic) metals
  | Electronic free energy per atom                       :        -694.37658157 eV

  Self-consistency convergence accuracy:
  | Change of charge density      : 0.1121E+00
  | Change of sum of eigenvalues  : 0.2820E+02 eV
  | Change of total energy        : 0.2024E+00 eV

  End self-consistency iteration #     4       :  max(cpu_time)    wall_clock(cpu1)
  | Time for this iteration                    :        1.234 s           1.234 s
  | Charge density update                      :        0.384 s           0.384 s
  | Density mixing                             :        0.007 s           0.006 s
  | Hartree multipole update                   :        0.004 s           0.004 s
  | Hartree multipole summation                :        0.208 s           0.208 s
  | Integration                                :        0.599 s           0.599 s
  | Solution of K.-S. eqns.                    :        0.030 s           0.031 s
  | Total energy evaluation                    :        0.000 s           0.001 s
------------------------------------------------------------

------------------------------------------------------------
          Begin self-consistency iteration #    5

  Date     :  20150727, Time     :  122923.433
------------------------------------------------------------
  Evaluating new KS density.
  Integration grid: deviation in total charge (<rho> - N_e) =   1.421085E-14
  Pulay mixing of updated and previous charge densities.

  Evaluating partitioned Hartree potential by multipole expansion.
  | Analytical far-field extrapolation by fixed multipoles:
  | Hartree multipole sum: apparent total charge =  -0.427290E-05
  Summing up the Hartree potential.
  Time summed over all CPUs for potential: real work        1.655 s, elapsed        1.660 s
  | RMS charge density error from multipole expansion :   0.159447E-01

  Integrating Hamiltonian matrix: batch-based integration.
  Time summed over all CPUs for integration: real work        4.663 s, elapsed        4.784 s

  Updating Kohn-Sham eigenvalues, eigenvectors, occupation numbers, and Fermi level.
  Solving generalized eigenproblem
  Updating Kohn-Sham eigenvalues and eigenfunctions.
  Solving real generalised eigenvalue problem by standard LAPACK (fast)
  Determining occupation numbers for Kohn-Sham eigenstates.
  | Chemical potential (Fermi level) in eV                 : -.21795143E+01
  | Error in electron count due to remaining E_F inaccuracy: 0.00000000E+00
  | Maximum occupation number of highest empty state:  0.00E+00

  Highest occupied state (VBM) at     -5.08972547 eV
  | Occupation number:      2.00000000

  Lowest unoccupied state (CBM) at    -1.59345820 eV
  | Occupation number:      0.00000000

  Overall HOMO-LUMO gap:      3.49626727 eV.

  Total energy components:
  | Sum of eigenvalues            :        -166.35498766 Ha       -4526.74953281 eV
  | XC energy correction          :         -37.29886304 Ha       -1014.95370349 eV
  | XC potential correction       :          47.68107641 Ha        1297.46810344 eV
  | Free-atom electrostatic energy:        -142.99598993 Ha       -3891.11886395 eV
  | Hartree energy correction     :          -7.24534366 Ha        -197.15583206 eV
  | van der Waals energy corr.    :           0.00000000 Ha           0.00000000 eV
  | Entropy correction            :           0.00000000 Ha           0.00000000 eV
  | ---------------------------
  | Total energy                  :        -306.21410788 Ha       -8332.50982888 eV
  | Total energy, T -> 0          :        -306.21410788 Ha       -8332.50982888 eV  <-- do not rely on this value for anything but (periodic) metals
  | Electronic free energy        :        -306.21410788 Ha       -8332.50982888 eV

  Derived energy quantities:
  | Kinetic energy                :         305.36616994 Ha        8309.43626349 eV
  | Electrostatic energy          :        -574.28141478 Ha      -15626.99238888 eV
  | Energy correction for multipole
  | error in Hartree potential    :          -0.00611351 Ha          -0.16635698 eV
  | Sum of eigenvalues per atom                           :        -377.22912773 eV
  | Total energy (T->0) per atom                          :        -694.37581907 eV  <-- do not rely on this value for anything but (periodic) metals
  | Electronic free energy per atom                       :        -694.37581907 eV

  Self-consistency convergence accuracy:
  | Change of charge density      : 0.3403E-01
  | Change of sum of eigenvalues  : 0.5581E+01 eV
  | Change of total energy        : 0.9150E-02 eV

  End self-consistency iteration #     5       :  max(cpu_time)    wall_clock(cpu1)
  | Time for this iteration                    :        1.236 s           1.235 s
  | Charge density update                      :        0.385 s           0.384 s
  | Density mixing                             :        0.007 s           0.008 s
  | Hartree multipole update                   :        0.005 s           0.004 s
  | Hartree multipole summation                :        0.208 s           0.208 s
  | Integration                                :        0.599 s           0.600 s
  | Solution of K.-S. eqns.                    :        0.031 s           0.031 s
  | Total energy evaluation                    :        0.001 s           0.000 s
------------------------------------------------------------

------------------------------------------------------------
          Begin self-consistency iteration #    6

  Date     :  20150727, Time     :  122924.668
------------------------------------------------------------
  Evaluating new KS density.
  Integration grid: deviation in total charge (<rho> - N_e) =  -7.105427E-15
  Pulay mixing of updated and previous charge densities.

  Evaluating partitioned Hartree potential by multipole expansion.
  | Analytical far-field extrapolation by fixed multipoles:
  | Hartree multipole sum: apparent total charge =  -0.426595E-05
  Summing up the Hartree potential.
  Time summed over all CPUs for potential: real work        1.655 s, elapsed        1.661 s
  | RMS charge density error from multipole expansion :   0.161945E-01

  Integrating Hamiltonian matrix: batch-based integration.
  Time summed over all CPUs for integration: real work        4.663 s, elapsed        4.797 s

  Updating Kohn-Sham eigenvalues, eigenvectors, occupation numbers, and Fermi level.
  Solving generalized eigenproblem
  Updating Kohn-Sham eigenvalues and eigenfunctions.
  Solving real generalised eigenvalue problem by standard LAPACK (fast)
  Determining occupation numbers for Kohn-Sham eigenstates.
  | Chemical potential (Fermi level) in eV                 : -.21642112E+01
  | Error in electron count due to remaining E_F inaccuracy: 0.00000000E+00
  | Maximum occupation number of highest empty state:  0.00E+00

  Highest occupied state (VBM) at     -5.05424934 eV
  | Occupation number:      2.00000000

  Lowest unoccupied state (CBM) at    -1.58684186 eV
  | Occupation number:      0.00000000

  Overall HOMO-LUMO gap:      3.46740748 eV.

  Total energy components:
  | Sum of eigenvalues            :        -166.31460893 Ha       -4525.65077158 eV
  | XC energy correction          :         -37.30498808 Ha       -1015.12037429 eV
  | XC potential correction       :          47.68892940 Ha        1297.68179431 eV
  | Free-atom electrostatic energy:        -142.99598993 Ha       -3891.11886395 eV
  | Hartree energy correction     :          -7.28751156 Ha        -198.30327902 eV
  | van der Waals energy corr.    :           0.00000000 Ha           0.00000000 eV
  | Entropy correction            :           0.00000000 Ha           0.00000000 eV
  | ---------------------------
  | Total energy                  :        -306.21416909 Ha       -8332.51149453 eV
  | Total energy, T -> 0          :        -306.21416909 Ha       -8332.51149453 eV  <-- do not rely on this value for anything but (periodic) metals
  | Electronic free energy        :        -306.21416909 Ha       -8332.51149453 eV

  Derived energy quantities:
  | Kinetic energy                :         305.36757293 Ha        8309.47444086 eV
  | Electrostatic energy          :        -574.27675395 Ha      -15626.86556110 eV
  | Energy correction for multipole
  | error in Hartree potential    :          -0.00623077 Ha          -0.16954799 eV
  | Sum of eigenvalues per atom                           :        -377.13756430 eV
  | Total energy (T->0) per atom                          :        -694.37595788 eV  <-- do not rely on this value for anything but (periodic) metals
  | Electronic free energy per atom                       :        -694.37595788 eV

  Self-consistency convergence accuracy:
  | Change of charge density      : 0.8973E-02
  | Change of sum of eigenvalues  : 0.1099E+01 eV
  | Change of total energy        : -.1666E-02 eV

  End self-consistency iteration #     6       :  max(cpu_time)    wall_clock(cpu1)
  | Time for this iteration                    :        1.238 s           1.238 s
  | Charge density update                      :        0.384 s           0.385 s
  | Density mixing                             :        0.009 s           0.008 s
  | Hartree multipole update                   :        0.004 s           0.005 s
  | Hartree multipole summation                :        0.208 s           0.208 s
  | Integration                                :        0.601 s           0.601 s
  | Solution of K.-S. eqns.                    :        0.031 s           0.030 s
  | Total energy evaluation                    :        0.000 s           0.000 s
------------------------------------------------------------

------------------------------------------------------------
          Begin self-consistency iteration #    7

  Date     :  20150727, Time     :  122925.906
------------------------------------------------------------
  Evaluating new KS density.
  Integration grid: deviation in total charge (<rho> - N_e) =   1.421085E-14
  Pulay mixing of updated and previous charge densities.

  Evaluating partitioned Hartree potential by multipole expansion.
  | Analytical far-field extrapolation by fixed multipoles:
  | Hartree multipole sum: apparent total charge =  -0.411878E-05
  Summing up the Hartree potential.
  Time summed over all CPUs for potential: real work        1.655 s, elapsed        1.660 s
  | RMS charge density error from multipole expansion :   0.160954E-01

  Integrating Hamiltonian matrix: batch-based integration.
  Time summed over all CPUs for integration: real work        4.665 s, elapsed        4.805 s

  Updating Kohn-Sham eigenvalues, eigenvectors, occupation numbers, and Fermi level.
  Solving generalized eigenproblem
  Updating Kohn-Sham eigenvalues and eigenfunctions.
  Solving real generalised eigenvalue problem by standard LAPACK (fast)
  Determining occupation numbers for Kohn-Sham eigenstates.
  | Chemical potential (Fermi level) in eV                 : -.22154736E+01
  | Error in electron count due to remaining E_F inaccuracy: 0.00000000E+00
  | Maximum occupation number of highest empty state:  0.00E+00

  Highest occupied state (VBM) at     -5.20637894 eV
  | Occupation number:      2.00000000

  Lowest unoccupied state (CBM) at    -1.61050055 eV
  | Occupation number:      0.00000000

  Overall HOMO-LUMO gap:      3.59587839 eV.

  Total energy components:
  | Sum of eigenvalues            :        -166.44871799 Ha       -4529.30006478 eV
  | XC energy correction          :         -37.28975658 Ha       -1014.70590431 eV
  | XC potential correction       :          47.66865881 Ha        1297.13020345 eV
  | Free-atom electrostatic energy:        -142.99598993 Ha       -3891.11886395 eV
  | Hartree energy correction     :          -7.14826153 Ha        -194.51409303 eV
  | van der Waals energy corr.    :           0.00000000 Ha           0.00000000 eV
  | Entropy correction            :           0.00000000 Ha           0.00000000 eV
  | ---------------------------
  | Total energy                  :        -306.21406723 Ha       -8332.50872262 eV
  | Total energy, T -> 0          :        -306.21406723 Ha       -8332.50872262 eV  <-- do not rely on this value for anything but (periodic) metals
  | Electronic free energy        :        -306.21406723 Ha       -8332.50872262 eV

  Derived energy quantities:
  | Kinetic energy                :         305.40055102 Ha        8310.37182026 eV
  | Electrostatic energy          :        -574.32486166 Ha      -15628.17463858 eV
  | Energy correction for multipole
  | error in Hartree potential    :          -0.00615810 Ha          -0.16757037 eV
  | Sum of eigenvalues per atom                           :        -377.44167207 eV
  | Total energy (T->0) per atom                          :        -694.37572688 eV  <-- do not rely on this value for anything but (periodic) metals
  | Electronic free energy per atom                       :        -694.37572688 eV

  Self-consistency convergence accuracy:
  | Change of charge density      : 0.1004E-01
  | Change of sum of eigenvalues  : -.3649E+01 eV
  | Change of total energy        : 0.2772E-02 eV

  End self-consistency iteration #     7       :  max(cpu_time)    wall_clock(cpu1)
  | Time for this iteration                    :        1.239 s           1.239 s
  | Charge density update                      :        0.384 s           0.384 s
  | Density mixing                             :        0.009 s           0.009 s
  | Hartree multipole update                   :        0.005 s           0.004 s
  | Hartree multipole summation                :        0.208 s           0.208 s
  | Integration                                :        0.602 s           0.602 s
  | Solution of K.-S. eqns.                    :        0.031 s           0.031 s
  | Total energy evaluation                    :        0.000 s           0.000 s
------------------------------------------------------------

------------------------------------------------------------
          Begin self-consistency iteration #    8

  Date     :  20150727, Time     :  122927.145
------------------------------------------------------------
  Evaluating new KS density.
  Integration grid: deviation in total charge (<rho> - N_e) =  -1.421085E-14
  Pulay mixing of updated and previous charge densities.

  Evaluating partitioned Hartree potential by multipole expansion.
  | Analytical far-field extrapolation by fixed multipoles:
  | Hartree multipole sum: apparent total charge =  -0.411966E-05
  Summing up the Hartree potential.
  Time summed over all CPUs for potential: real work        1.655 s, elapsed        1.660 s
  | RMS charge density error from multipole expansion :   0.161498E-01

  Integrating Hamiltonian matrix: batch-based integration.
  Time summed over all CPUs for integration: real work        4.666 s, elapsed        4.802 s

  Updating Kohn-Sham eigenvalues, eigenvectors, occupation numbers, and Fermi level.
  Solving generalized eigenproblem
  Updating Kohn-Sham eigenvalues and eigenfunctions.
  Solving real generalised eigenvalue problem by standard LAPACK (fast)
  Determining occupation numbers for Kohn-Sham eigenstates.
  | Chemical potential (Fermi level) in eV                 : -.22096777E+01
  | Error in electron count due to remaining E_F inaccuracy: 0.00000000E+00
  | Maximum occupation number of highest empty state:  0.00E+00

  Highest occupied state (VBM) at     -5.18016903 eV
  | Occupation number:      2.00000000

  Lowest unoccupied state (CBM) at    -1.60835419 eV
  | Occupation number:      0.00000000

  Overall HOMO-LUMO gap:      3.57181483 eV.

  Total energy components:
  | Sum of eigenvalues            :        -166.43321188 Ha       -4528.87812197 eV
  | XC energy correction          :         -37.29166612 Ha       -1014.75786540 eV
  | XC potential correction       :          47.67113053 Ha        1297.19746248 eV
  | Free-atom electrostatic energy:        -142.99598993 Ha       -3891.11886395 eV
  | Hartree energy correction     :          -7.16433005 Ha        -194.95133960 eV
  | van der Waals energy corr.    :           0.00000000 Ha           0.00000000 eV
  | Entropy correction            :           0.00000000 Ha           0.00000000 eV
  | ---------------------------
  | Total energy                  :        -306.21406744 Ha       -8332.50872845 eV
  | Total energy, T -> 0          :        -306.21406744 Ha       -8332.50872845 eV  <-- do not rely on this value for anything but (periodic) metals
  | Electronic free energy        :        -306.21406744 Ha       -8332.50872845 eV

  Derived energy quantities:
  | Kinetic energy                :         305.40256230 Ha        8310.42655011 eV
  | Electrostatic energy          :        -574.32496363 Ha      -15628.17741315 eV
  | Energy correction for multipole
  | error in Hartree potential    :          -0.00618875 Ha          -0.16840439 eV
  | Sum of eigenvalues per atom                           :        -377.40651016 eV
  | Total energy (T->0) per atom                          :        -694.37572737 eV  <-- do not rely on this value for anything but (periodic) metals
  | Electronic free energy per atom                       :        -694.37572737 eV

  Self-consistency convergence accuracy:
  | Change of charge density      : 0.1993E-02
  | Change of sum of eigenvalues  : 0.4219E+00 eV
  | Change of total energy        : -.5831E-05 eV

  End self-consistency iteration #     8       :  max(cpu_time)    wall_clock(cpu1)
  | Time for this iteration                    :        1.240 s           1.240 s
  | Charge density update                      :        0.384 s           0.384 s
  | Density mixing                             :        0.010 s           0.010 s
  | Hartree multipole update                   :        0.004 s           0.004 s
  | Hartree multipole summation                :        0.208 s           0.208 s
  | Integration                                :        0.601 s           0.601 s
  | Solution of K.-S. eqns.                    :        0.030 s           0.031 s
  | Total energy evaluation                    :        0.001 s           0.001 s
------------------------------------------------------------

------------------------------------------------------------
          Begin self-consistency iteration #    9

  Date     :  20150727, Time     :  122928.385
------------------------------------------------------------
  Evaluating new KS density.
  Integration grid: deviation in total charge (<rho> - N_e) =   7.105427E-15
  Pulay mixing of updated and previous charge densities.

  Evaluating partitioned Hartree potential by multipole expansion.
  | Analytical far-field extrapolation by fixed multipoles:
  | Hartree multipole sum: apparent total charge =  -0.411634E-05
  Summing up the Hartree potential.
  Time summed over all CPUs for potential: real work        1.655 s, elapsed        1.660 s
  | RMS charge density error from multipole expansion :   0.161539E-01

  Integrating Hamiltonian matrix: batch-based integration.
  Time summed over all CPUs for integration: real work        4.668 s, elapsed        4.803 s

  Updating Kohn-Sham eigenvalues, eigenvectors, occupation numbers, and Fermi level.
  Solving generalized eigenproblem
  Updating Kohn-Sham eigenvalues and eigenfunctions.
  Solving real generalised eigenvalue problem by standard LAPACK (fast)
  Determining occupation numbers for Kohn-Sham eigenstates.
  | Chemical potential (Fermi level) in eV                 : -.22095996E+01
  | Error in electron count due to remaining E_F inaccuracy: 0.00000000E+00
  | Maximum occupation number of highest empty state:  0.00E+00

  Highest occupied state (VBM) at     -5.18391000 eV
  | Occupation number:      2.00000000

  Lowest unoccupied state (CBM) at    -1.60830849 eV
  | Occupation number:      0.00000000

  Overall HOMO-LUMO gap:      3.57560151 eV.

  Total energy components:
  | Sum of eigenvalues            :        -166.43283212 Ha       -4528.86778817 eV
  | XC energy correction          :         -37.29170923 Ha       -1014.75903842 eV
  | XC potential correction       :          47.67117510 Ha        1297.19867522 eV
  | Free-atom electrostatic energy:        -142.99598993 Ha       -3891.11886395 eV
  | Hartree energy correction     :          -7.16471103 Ha        -194.96170678 eV
  | van der Waals energy corr.    :           0.00000000 Ha           0.00000000 eV
  | Entropy correction            :           0.00000000 Ha           0.00000000 eV
  | ---------------------------
  | Total energy                  :        -306.21406721 Ha       -8332.50872211 eV
  | Total energy, T -> 0          :        -306.21406721 Ha       -8332.50872211 eV  <-- do not rely on this value for anything but (periodic) metals
  | Electronic free energy        :        -306.21406721 Ha       -8332.50872211 eV

  Derived energy quantities:
  | Kinetic energy                :         305.40530582 Ha        8310.50120506 eV
  | Electrostatic energy          :        -574.32766380 Ha      -15628.25088875 eV
  | Energy correction for multipole
  | error in Hartree potential    :          -0.00618942 Ha          -0.16842263 eV
  | Sum of eigenvalues per atom                           :        -377.40564901 eV
  | Total energy (T->0) per atom                          :        -694.37572684 eV  <-- do not rely on this value for anything but (periodic) metals
  | Electronic free energy per atom                       :        -694.37572684 eV

  Self-consistency convergence accuracy:
  | Change of charge density      : 0.9005E-03
  | Change of sum of eigenvalues  : 0.1033E-01 eV
  | Change of total energy        : 0.6335E-05 eV

  End self-consistency iteration #     9       :  max(cpu_time)    wall_clock(cpu1)
  | Time for this iteration                    :        1.240 s           1.240 s
  | Charge density update                      :        0.383 s           0.383 s
  | Density mixing                             :        0.012 s           0.012 s
  | Hartree multipole update                   :        0.004 s           0.004 s
  | Hartree multipole summation                :        0.208 s           0.208 s
  | Integration                                :        0.601 s           0.602 s
  | Solution of K.-S. eqns.                    :        0.031 s           0.031 s
  | Total energy evaluation                    :        0.000 s           0.000 s
------------------------------------------------------------

------------------------------------------------------------
          Begin self-consistency iteration #   10

  Date     :  20150727, Time     :  122929.625
------------------------------------------------------------
  Evaluating new KS density.
  Integration grid: deviation in total charge (<rho> - N_e) =   1.421085E-14
  Pulay mixing of updated and previous charge densities.

  Evaluating partitioned Hartree potential by multipole expansion.
  | Analytical far-field extrapolation by fixed multipoles:
  | Hartree multipole sum: apparent total charge =  -0.410733E-05
  Summing up the Hartree potential.
  Time summed over all CPUs for potential: real work        1.655 s, elapsed        1.660 s
  | RMS charge density error from multipole expansion :   0.161553E-01

  Integrating Hamiltonian matrix: batch-based integration.
  Time summed over all CPUs for integration: real work        4.659 s, elapsed        4.799 s

  Updating Kohn-Sham eigenvalues, eigenvectors, occupation numbers, and Fermi level.
  Solving generalized eigenproblem
[...]
  |                                 -0.00489259       0.12396949      -0.00213644
  |                                  0.01118121      -0.00213644       0.11480861
  ----------------------------------------------------------------------


  Total energy components:
  | Sum of eigenvalues            :        -166.43548555 Ha       -4528.93999175 eV
  | XC energy correction          :         -37.29135428 Ha       -1014.74937979 eV
  | XC potential correction       :          47.67068734 Ha        1297.18540258 eV
  | Free-atom electrostatic energy:        -142.99598993 Ha       -3891.11886395 eV
  | Hartree energy correction     :          -7.16192389 Ha        -194.88586476 eV
  | van der Waals energy corr.    :          -0.00167564 Ha          -0.04559656 eV
  | Entropy correction            :           0.00000000 Ha           0.00000000 eV
  | ---------------------------
  | Total energy                  :        -306.21574195 Ha       -8332.55429424 eV
  | Total energy, T -> 0          :        -306.21574195 Ha       -8332.55429424 eV  <-- do not rely on this value for anything but (periodic) metals
  | Electronic free energy        :        -306.21574195 Ha       -8332.55429424 eV

  Derived energy quantities:
  | Kinetic energy                :         305.40834362 Ha        8310.58386782 eV
  | Electrostatic energy          :        -574.33105565 Ha      -15628.34318571 eV
  | Energy correction for multipole
  | error in Hartree potential    :          -0.00619271 Ha          -0.16851231 eV
  | Sum of eigenvalues per atom                           :        -377.41166598 eV
  | Total energy (T->0) per atom                          :        -694.37952452 eV  <-- do not rely on this value for anything but (periodic) metals
  | Electronic free energy per atom                       :        -694.37952452 eV

  atomic forces [eV/Ang]:
  -----------------------
  atom #    1
   Hellmann-Feynman + Multipole  : -.699693E+01 -.109145E+02 0.270323E+01
   Pulay + GGA                   : 0.785988E+01 0.133071E+02 -.340324E+01
   Van der Waals               : 0.428721E-02 0.114066E-02 0.435310E-02
   ----------------------------------------------------------------
   Total forces(   1)            : 0.867234E+00 0.239378E+01 -.695662E+00
  atom #    2
   Hellmann-Feynman + Multipole  : 0.160650E+01 -.259268E+01 0.110093E+01
   Pulay + GGA                   : -.651004E-02 0.593418E-01 -.261403E-01
   Van der Waals               : 0.259816E-02 0.454534E-02 0.303287E-02
   ----------------------------------------------------------------
   Total forces(   2)            : 0.160258E+01 -.252879E+01 0.107783E+01
  atom #    3
   Hellmann-Feynman + Multipole  : -.219768E+01 -.507561E+00 -.156133E+00
   Pulay + GGA                   : 0.121555E+00 0.438503E-01 0.707585E-02
   Van der Waals               : 0.172206E-02 0.488625E-02 0.307453E-02
   ----------------------------------------------------------------
   Total forces(   3)            : -.207441E+01 -.458825E+00 -.145983E+00
  atom #    4
   Hellmann-Feynman + Multipole  : -.606409E+01 -.783955E+01 0.910988E+01
   Pulay + GGA                   : 0.605309E+01 0.809338E+01 -.699289E+01
   Van der Waals               : -.244196E-02 0.306223E-02 -.127979E-02
   ----------------------------------------------------------------
   Total forces(   4)            : -.134350E-01 0.256891E+00 0.211571E+01
  atom #    5
   Hellmann-Feynman + Multipole  : -.151947E+00 -.677356E-01 0.647206E-01
   Pulay + GGA                   : 0.415002E-01 0.816600E-01 0.160386E-02
   Van der Waals               : 0.226624E-03 0.174670E-03 0.431911E-03
   ----------------------------------------------------------------
   Total forces(   5)            : -.110221E+00 0.140990E-01 0.667564E-01
  atom #    6
   Hellmann-Feynman + Multipole  : -.277560E+00 0.288467E+00 -.223967E+01
   Pulay + GGA                   : -.342860E-01 0.373845E-01 -.122020E+00
   Van der Waals               : 0.233666E-02 0.223811E-02 0.281135E-02
   ----------------------------------------------------------------
   Total forces(   6)            : -.309510E+00 0.328090E+00 -.235888E+01
  atom #    7
   Hellmann-Feynman + Multipole  : -.749297E+00 -.459199E+01 -.154950E+02
   Pulay + GGA                   : 0.154864E+01 0.505626E+01 0.139102E+02
   Van der Waals               : -.350807E-02 -.473307E-02 -.463970E-02
   ----------------------------------------------------------------
   Total forces(   7)            : 0.795839E+00 0.459542E+00 -.158947E+01
  atom #    8
   Hellmann-Feynman + Multipole  : -.449244E+00 -.311987E+00 0.341092E+00
   Pulay + GGA                   : 0.101050E+00 0.591386E-01 0.538645E-01
   Van der Waals               : -.115971E-02 -.844725E-04 -.910353E-03
   ----------------------------------------------------------------
   Total forces(   8)            : -.349354E+00 -.252933E+00 0.394046E+00
  atom #    9
   Hellmann-Feynman + Multipole  : -.327372E+00 -.197162E+00 0.109453E+01
   Pulay + GGA                   : -.724264E-01 -.427139E-01 0.997607E-01
   Van der Waals               : -.135587E-02 -.255739E-02 -.257971E-02
   ----------------------------------------------------------------
   Total forces(   9)            : -.401154E+00 -.242433E+00 0.119171E+01
  atom #   10
   Hellmann-Feynman + Multipole  : -.125336E+02 -.310406E+01 0.275441E+01
   Pulay + GGA                   : 0.133451E+02 0.481827E+01 -.366501E+01
   Van der Waals               : -.989300E-03 -.178729E-02 -.229213E-02
   ----------------------------------------------------------------
   Total forces(  10)            : 0.810462E+00 0.171242E+01 -.912892E+00
  atom #   11
   Hellmann-Feynman + Multipole  : -.118477E+00 -.265256E+00 0.186996E+00
   Pulay + GGA                   : 0.846024E-01 -.252488E-01 0.225739E-01
   Van der Waals               : -.328375E-02 -.305617E-02 -.367216E-02
   ----------------------------------------------------------------
   Total forces(  11)            : -.371580E-01 -.293561E+00 0.205898E+00
  atom #   12
   Hellmann-Feynman + Multipole  : -.826696E+00 -.149718E+01 0.694779E+00
   Pulay + GGA                   : 0.479697E-01 0.107451E+00 -.520303E-01
   Van der Waals               : 0.156796E-02 -.382887E-02 0.167009E-02
   ----------------------------------------------------------------
   Total forces(  12)            : -.777159E+00 -.139356E+01 0.644419E+00
  Timings for vdw_correction_hirshfeld (Tkatchenko-Scheffler 2009):
  | CPU time:        3.231 s, Wall clock time:        3.230 s.
  Removing unitary transformations (pure translations, rotations) from forces on atoms.
  Atomic forces before filtering:
  | Net force on center of mass :  0.372323E-02 -.528892E-02 -.651368E-02 eV/A
  | Net torque on center of mass:  0.516559E-02 -.683325E-02 -.677779E-02 eV
  Atomic forces after filtering:
  | Net force on center of mass :  -.267609E-15 -.178406E-15 0.178406E-15 eV/A
  | Net torque on center of mass:  -.755268E-15 0.755268E-15 0.226580E-14 eV
 
  Energy and forces in a compact form:
  | Total energy uncorrected      :         -0.833255429424078E+04 eV
  | Total energy corrected        :         -0.833255429424078E+04 eV  <-- do not rely on this value for anything but (periodic) metals
  | Electronic free energy        :         -0.833255429424078E+04 eV
  Total atomic forces (unitary forces cleaned) [eV/Ang]:
  |   1          0.867249528649363E+00          0.239413654910219E+01         -0.694957325264276E+00
  |   2          0.160236960643851E+01         -0.252853002877065E+01          0.107860578166267E+01
  |   3         -0.207442502308924E+01         -0.458297828395933E+00         -0.145487434948186E+00
  |   4         -0.139367643694887E-01          0.257018978949240E+00          0.211660063498329E+01
  |   5         -0.110782826589238E+00          0.143163640750165E-01          0.675217784172364E-01
  |   6         -0.310218300599021E+00          0.328165785022538E+00         -0.235797010430700E+01
  |   7          0.795792259906540E+00          0.460314858330381E+00         -0.158927944763441E+01
  |   8         -0.349419851492650E+00         -0.252024004161458E+00          0.394065709831938E+00
  |   9         -0.401010404827599E+00         -0.241730269555056E+00          0.119202504692184E+01
  |  10          0.809907150742825E+00          0.171280149769654E+01         -0.912324047933304E+00
  |  11         -0.375826443539162E-01         -0.293029955507605E+00          0.206307671137448E+00
  |  12         -0.777942730416085E+00         -0.139314194678520E+01          0.644891737132752E+00
 
  ------------------------------------ 
  Start decomposition of the XC Energy 
  ------------------------------------ 
  Hartree-Fock part   :          0.000000000 Ha              0.000000000 eV
  ------------------------------------ 
  X Energy            :        -35.981248680 Ha           -979.099592629 eV
  C Energy GGA        :         -1.310105598 Ha            -35.649787162 eV
  Total XC Energy     :        -37.291354278 Ha          -1014.749379791 eV
  LDA X and C from self-consistent density 
  X Energy LDA        :        -32.428190741 Ha           -882.415966887 eV
  C Energy LDA        :         -2.640733976 Ha            -71.858027575 eV
  ------------------------------------ 
  End decomposition of the XC Energy 
  ------------------------------------ 
  Performing Hirshfeld analysis of fragment charges and moments.
  ----------------------------------------------------------------------
  | Atom     1: O
  |   Hirshfeld charge        :     -0.37889781
  |   Free atom volume        :     23.95238533
  |   Hirshfeld volume        :     24.37995579
  |   Hirshfeld dipole vector :      0.02226571       0.06968367      -0.01918082
  |   Hirshfeld dipole moment :      0.07562724
  |   Hirshfeld second moments:      0.01498943      -0.01746158       0.02629012
  |                                 -0.01746158      -0.06907972      -0.01961691
  |                                  0.02629012      -0.01961691      -0.11209576
  ----------------------------------------------------------------------
  | Atom     2: H
  |   Hirshfeld charge        :      0.06883047
  |   Free atom volume        :     10.44207651
  |   Hirshfeld volume        :      8.50803764
  |   Hirshfeld dipole vector :     -0.02079838       0.03611388      -0.01630300
  |   Hirshfeld dipole moment :      0.04475012
  |   Hirshfeld second moments:      0.07158655       0.02998041      -0.00105541
  |                                  0.02998041       0.02422965       0.01519562
  |                                 -0.00105541       0.01519562       0.05899954
  ----------------------------------------------------------------------
  | Atom     3: H
  |   Hirshfeld charge        :      0.09466593
  |   Free atom volume        :     10.44207651
  |   Hirshfeld volume        :      7.83353132
  |   Hirshfeld dipole vector :      0.11250721       0.02757390       0.00488871
  |   Hirshfeld dipole moment :      0.11594003
  |   Hirshfeld second moments:      0.08445394      -0.01797208       0.00249593
  |                                 -0.01797208       0.07812310      -0.01278635
  |                                  0.00249593      -0.01278635       0.06464410
  ----------------------------------------------------------------------
  | Atom     4: O
  |   Hirshfeld charge        :     -0.20186644
  |   Free atom volume        :     23.95238533
  |   Hirshfeld volume        :     20.43546635
  |   Hirshfeld dipole vector :      0.03003475      -0.00655943      -0.01523025
  |   Hirshfeld dipole moment :      0.03430850
  |   Hirshfeld second moments:      0.03629361       0.00970142       0.02608486
  |                                  0.00970142       0.07681617       0.00477286
  |                                  0.02608486       0.00477286       0.09944120
  ----------------------------------------------------------------------
  | Atom     5: H
  |   Hirshfeld charge        :      0.11681237
  |   Free atom volume        :     10.44207651
  |   Hirshfeld volume        :      7.34163352
  |   Hirshfeld dipole vector :      0.02554489       0.03737027       0.00633387
  |   Hirshfeld dipole moment :      0.04570772
  |   Hirshfeld second moments:      0.08147347      -0.02190268      -0.00686047
  |                                 -0.02190268       0.06862333      -0.02916151
  |                                 -0.00686047      -0.02916151       0.10157196
  ----------------------------------------------------------------------
  | Atom     6: H
  |   Hirshfeld charge        :      0.16313794
  |   Free atom volume        :     10.44207651
  |   Hirshfeld volume        :      5.87457854
  |   Hirshfeld dipole vector :     -0.01834181       0.01064436      -0.11983981
  |   Hirshfeld dipole moment :      0.12170171
  |   Hirshfeld second moments:      0.12137705       0.00757031       0.00745852
  |                                  0.00757031       0.13587523       0.00286780
  |                                  0.00745852       0.00286780       0.12450501
  ----------------------------------------------------------------------
  | Atom     7: O
  |   Hirshfeld charge        :     -0.23047484
  |   Free atom volume        :     23.95238533
  |   Hirshfeld volume        :     20.18944980
  |   Hirshfeld dipole vector :     -0.01486584       0.02097205       0.03105569
  |   Hirshfeld dipole moment :      0.04031471
  |   Hirshfeld second moments:      0.09216923       0.04034478      -0.00248959
  |                                  0.04034478       0.04582374      -0.01654795
  |                                 -0.00248959      -0.01654795       0.06554099
  ----------------------------------------------------------------------
  | Atom     8: H
  |   Hirshfeld charge        :      0.17087802
  |   Free atom volume        :     10.44207651
  |   Hirshfeld volume        :      5.54758358
  |   Hirshfeld dipole vector :      0.09707158       0.06840542       0.03427833
  |   Hirshfeld dipole moment :      0.12360096
  |   Hirshfeld second moments:      0.13447308       0.00635491      -0.00881570
  |                                  0.00635491       0.12201396      -0.00953314
  |                                 -0.00881570      -0.00953314       0.14026322
  ----------------------------------------------------------------------
  | Atom     9: H
  |   Hirshfeld charge        :      0.17303723
  |   Free atom volume        :     10.44207651
  |   Hirshfeld volume        :      5.91453192
  |   Hirshfeld dipole vector :     -0.07668052      -0.03842467       0.08731981
  |   Hirshfeld dipole moment :      0.12239733
  |   Hirshfeld second moments:      0.12984125       0.00964385       0.00548477
  |                                  0.00964385       0.12121780      -0.00052421
  |                                  0.00548477      -0.00052421       0.12964401
  ----------------------------------------------------------------------
  | Atom    10: O
  |   Hirshfeld charge        :     -0.24143225
  |   Free atom volume        :     23.95238533
  |   Hirshfeld volume        :     20.97534833
  |   Hirshfeld dipole vector :      0.02476117      -0.01513752      -0.02545642
  |   Hirshfeld dipole moment :      0.03860427
  |   Hirshfeld second moments:      0.03892510       0.00677971       0.02290529
  |                                  0.00677971       0.07992983      -0.03071680
  |                                  0.02290529      -0.03071680       0.02244644
  ----------------------------------------------------------------------
  | Atom    11: H
  |   Hirshfeld charge        :      0.10859647
  |   Free atom volume        :     10.44207651
  |   Hirshfeld volume        :      7.21878006
  |   Hirshfeld dipole vector :      0.05213558      -0.01953803       0.00635923
  |   Hirshfeld dipole moment :      0.05603832
  |   Hirshfeld second moments:      0.07087553       0.03244789      -0.01966203
  |                                  0.03244789       0.09782851       0.00246076
  |                                 -0.01966203       0.00246076       0.08695301
  ----------------------------------------------------------------------
  | Atom    12: H
  |   Hirshfeld charge        :      0.15671679
  |   Free atom volume        :     10.44207651
  |   Hirshfeld volume        :      5.90788992
  |   Hirshfeld dipole vector :      0.03608990       0.10188422      -0.05431546
  |   Hirshfeld dipole moment :      0.12096712
  |   Hirshfeld second moments:      0.13060437      -0.00489259       0.01118121
  |                                 -0.00489259       0.12396949      -0.00213644
  |                                  0.01118121      -0.00213644       0.11480861
  ----------------------------------------------------------------------


------------------------------------------------------------------------------
  Final output of selected total energy values:

  The following output summarizes some interesting total energy values
  at the end of a run (AFTER all relaxation, molecular dynamics, etc.).

  | Total energy of the DFT / Hartree-Fock s.c.f. calculation      :          -8332.554294241 eV
  | Final zero-broadening corrected energy (caution - metals only) :          -8332.554294241 eV
  | For reference only, the value of 1 Hartree used in FHI-aims is :             27.211384500 eV

  Before relying on these values, please be sure to understand exactly which
  total energy value is referred to by a given number. Different objects may
  all carry the same name 'total energy'. Definitions:

  Total energy of the DFT / Hartree-Fock s.c.f. calculation:
  | Note that this energy does not include ANY quantities calculated after the
  | s.c.f. cycle, in particular not ANY RPA, MP2, etc. many-body perturbation terms.

  Final zero-broadening corrected energy:
  | For metallic systems only, a broadening of the occupation numbers at the Fermi
  | level can be extrapolated back to zero broadening by an electron-gas inspired
  | formula. For all systems that are not real metals, this value can be
  | meaningless and should be avoided.

------------------------------------------------------------------------------

------------------------------------------------------------
          Leaving FHI-aims.
          Date     :  20150727, Time     :  122939.507

          Computational steps:
          | Number of self-consistency cycles          :           15

          Detailed time accounting                     :  max(cpu_time)    wall_clock(cpu1)
          | Total time                                 :       22.782 s          22.814 s
          | Preparation time                           :        0.170 s           0.429 s
          | Grid partitioning                          :        0.137 s           0.137 s
          | Preloading free-atom quantities on grid    :        0.013 s           0.013 s
          | Free-atom superposition energy             :        0.046 s           0.045 s
          | Total time for integrations                :        9.939 s           9.944 s
          | Total time for solution of K.-S. equations :        0.578 s           0.581 s
          | Total time for density & force components  :        7.407 s           7.408 s
          | Total time for mixing                      :        0.147 s           0.144 s
          | Total time for Hartree multipole update    :        0.065 s           0.064 s
          | Total time for Hartree multipole sum       :        3.812 s           3.811 s
          | Total time for total energy evaluation     :        0.004 s           0.003 s
          | Total time for scaled ZORA corrections     :        0.000 s           0.000 s
          | Total time for TS (2009) vdW correction    :        0.034 s           0.035 s

          Have a nice day.
------------------------------------------------------------
