  MPI-parallelism will be employed.
------------------------------------------------------------
          Invoking FHI-aims ...
          Version 081213
          Compiled on 2013/08/29 at 17:41:06 on host generoso.

          When using FHI-aims, please cite the following reference:

          Volker Blum, Ralf Gehrke, Felix Hanke, Paula Havu,
          Ville Havu, Xinguo Ren, Karsten Reuter, and Matthias Scheffler,
          'Ab Initio Molecular Simulations with Numeric Atom-Centered Orbitals: FHI-aims',
          Computer Physics Communications 180, 2175-2196 (2009)

          For any questions about FHI-aims, please visit the aimsclub website
          with its forums and wiki. Contributions to both the forums and the
          wiki are warmly encouraged - they are for you, and everyone is welcome there.

------------------------------------------------------------

  Date     :  20150727, Time     :  115218.656
  Time zero on CPU 1             :   0.459920000000000E-01  s.
  Internal wall clock time zero  :           207229938.656  s.

  Using        8 parallel tasks.
  Task        0 on host gen60 reporting.
  Task        1 on host gen60 reporting.
  Task        2 on host gen60 reporting.
  Task        3 on host gen60 reporting.
  Task        4 on host gen60 reporting.
  Task        5 on host gen60 reporting.
  Task        6 on host gen60 reporting.
  Task        7 on host gen60 reporting.

  Performing system and environment tests:
  | Environment variable OMP_NUM_THREADS correctly set to 1.
  | Checking for scalapack...
  | No scalapack compiled in.

  Obtaining array dimensions for all initial allocations:
  
  -----------------------------------------------------------------------
  Parsing control.in (first pass over file, find array dimensions only).
  The contents of control.in will be repeated verbatim below
  unless switched off by setting 'verbatim_writeout .false.' .
  in the first line of control.in .
  -----------------------------------------------------------------------
  
  #########################################################################################
  #
  #  Volker Blum, FHI 2008 : Test run input file control.in
  #
  #########################################################################################
  #
  #  Physical model
  #
    xc                 rpbe
    spin               none
    relativistic       atomic_zora scalar
    charge             0.
   vdw_correction_hirshfeld
  #
  #  SCF convergence
  #
    occupation_type    gaussian 0.01
    mixer              pulay
      n_max_pulay        10
      charge_mix_param   0.1
    sc_accuracy_rho    5E-5
    sc_accuracy_eev    5E-3
    sc_accuracy_etot   5E-6
    sc_iter_limit      3000
  #
  #  Eigenvalue solver
  #
    KS_method          lapack
      empty_states       8
      basis_threshold    0.e-5
  #
  #  Efficiency
  #
  #   all previous settings are now default, except stratmann still
  #   undecided. Continue to handle stratmann with care, if at all.
  #
  #  partition_type stratmann
    partition_type rho_r2
  #  hartree_partition_type stratmann
  #
  #  Oprions for large clusters (100's of atoms: memory saving / better scaling)
  #
  # for periodic systems:
  #
    density_update_method orbital
    packed_matrix_format none
  #  k_grid 6 6 6
  #  output k_eigenvalue 1
  #  distributed_spline_storage .true.
  #
  #  Relaxation
  #
  #  relax_geometry   bfgs 5.e-3
    sc_accuracy_forces 5.E-4
    final_forces_cleaned .true.
  #
  #  Output options
  #
  #  output mulliken
    output Hirshfeld
  #  output dipole
  
  #harmonic_length_scale 0.001
  
  ################################################################################
  #
  #  FHI-aims code project
  #  VB, Fritz-Haber Institut, 2007
  #
  #  Suggested "safe" defaults for H atom (to be pasted into control.in file)
  #  Basis constructed for a non-relativistic H2 molecule using the
  #  PW-LDA functional.
  #
  ################################################################################
    species        H
  #     global species definitions
      nucleus             1
      cut_pot             4.0  2.0  1.0
      cut_free_atom       finite 8.0
      logarithmic         0.00010000 100.00  1.0123
      basis_dep_cutoff    1d-4  # 1d-4 is safe default - please check 5d-4 if you wish!
      radial_base         24 7.0
      radial_multiplier   2
      angular_grids       specified
        division   0.2783  110
        division   0.3822  194
        division   0.5626  302
  #      division   0.5922  434
  #      division   0.6227  590
  #      division   0.7206  770
        outer_grid  302
      l_hartree           4
  ################################################################################
  #
  #  Definition of "minimal" basis
  #
  ################################################################################
  #     valence basis states
      valence      1  s   1.
  #     ion occupancy
      ion_occ      1  s   0.5
  ################################################################################
  #
  #  Suggested additional basis functions. For production calculations,
  #  uncomment them one after another (the most important basis functions are
  #  listed first).
  #
  ################################################################################
  #  "First tier" - improvements: -1014.90 meV to -62.69 meV
       hydro 2 s 2.1
       hydro 2 p 3.5
  #  "Second tier" - improvements: -12.89 meV to -1.83 meV
       hydro 1 s 0.85
       hydro 2 p 3.7
       hydro 2 s 1.2
       hydro 3 d 7
  #  "Third tier" - improvements: -0.25 meV to -0.12 meV
  #     hydro 4 f 11.2
  #     hydro 3 p 4.8
  #     hydro 4 d 9
  #     hydro 3 s 3.2
  
  ################################################################################
  #
  #  FHI-aims code project
  #  VB, Fritz-Haber Institut, 2007
  #
  #  Suggested "safe" defaults for O atom (to be pasted into control.in file)
  #  All values have been tested for a non-relativistic, non-spinpolarized O2
  #  molecule using the PW-LDA functional. Validity for PBE is expected.
  #
  #  Constructed for dimers: 1.0 A, 1.208 A, 1.5 A, 2.0 A, 3.0 A
  #
  ################################################################################
    species        O
  #     global species definitions
      nucleus             8
      mass                15.9994
      l_hartree           4
      cut_pot             4.0  2.0  1.0
      cut_free_atom       finite 8.0
      basis_dep_cutoff    1d-4  # 1d-4 is safe default - please check 5d-4 if you wish!
      logarithmic         0.00010000 100.00  1.0123
      radial_base         36 7.0
      radial_multiplier   2
       angular_grids specified
        division   0.4087  110
        division   0.5181  194
        division   0.6184  302
  #      division   0.7315  434
  #      division   0.7934  590
  #      division   0.9656  770
  #      division   1.4041  974
  #      outer_grid 974
        outer_grid 302
  ################################################################################
  #
  #  Definition of "minimal" basis
  #
  ################################################################################
  #     valence basis states
      valence      2  s   2.
      valence      2  p   4.
  #     ion occupancy
      ion_occ      2  s   1.
      ion_occ      2  p   3.
  ################################################################################
  #
  #  Suggested additional basis functions. For production calculations,
  #  uncomment them one after another (the most important basis functions are
  #  listed first).
  #
  ################################################################################
  #  "First tier" - improvements: -699.05 meV to -159.38 meV
       hydro 2 p 1.8
       hydro 3 d 7.6
       hydro 3 s 6.4
  #  "Second tier" - improvements: -49.91 meV to -5.39 meV
       hydro 4 f 11.6
       hydro 3 p 6.2
       hydro 3 d 5.6
       hydro 5 g 17.6
       hydro 1 s 0.75
  #  "Third tier" - improvements: -2.83 meV to -0.50 meV
  #     ionic 2 p auto
  #     hydro 4 f 10.8
  #     hydro 4 d 4.7
  #     hydro 2 s 6.8
  #  "Fourth tier" - improvements: -0.40 meV to -0.12 meV
  #     hydro 3 p 5
  #     hydro 3 s 3.3
  #     hydro 5 g 15.6
  #     hydro 4 f 17.6
  #     hydro 4 d 14
  # Further basis functions - -0.08 meV and below
  #     hydro 3 s 2.1
  #     hydro 4 d 11.6
  #     hydro 3 p 16
  #     hydro 2 s 17.2
  
  
  -----------------------------------------------------------------------
  Completed first pass over input file control.in .
  -----------------------------------------------------------------------
  
  
  -----------------------------------------------------------------------
  Parsing geometry.in (first pass over file, find array dimensions only).
  The contents of geometry.in will be repeated verbatim below
  unless switched off by setting 'verbatim_writeout .false.' .
  in the first line of geometry.in .
  -----------------------------------------------------------------------
  
  atom      -4.053030000      0.065001000     -1.525160000  O
  atom      -4.566710000      0.974813000     -1.912820000  H
  atom      -3.067820000      0.330172000     -1.477310000  H
  atom      -4.581760000     -0.256435000      0.939478000  O
  atom      -4.349860000      0.471090000      1.504340000  H
  atom      -5.393870000     -0.726611000      1.228070000  H
  atom      -5.293160000      2.192130000     -2.328800000  O
  atom      -4.829300000      2.988660000     -1.973850000  H
  atom      -5.428570000      2.328640000     -3.235170000  H
  atom      -1.975360000      2.858040000      0.453140000  O
  atom      -1.223550000      3.375850000      0.786238000  H
  atom      -2.537520000      2.567960000      1.156120000  H
  atom      -4.066610000      4.258280000     -0.900064000  O
  atom      -3.224110000      3.876870000     -0.569443000  H
  atom      -3.737450000      5.116530000     -1.322720000  H
  atom      -5.628340000      3.730740000      1.385610000  O
  atom      -6.090650000      4.418470000      1.860350000  H
  atom      -5.158540000      4.200260000      0.615875000  H
  
  -----------------------------------------------------------------------
  Completed first pass over input file geometry.in .
  -----------------------------------------------------------------------
  
 
  Basic array size parameters: 
  | Number of species                 :        2
  | Number of atoms                   :       18
  | Max. basis fn. angular momentum   :        4
  | Max. atomic/ionic basis occupied n:        2
  | Max. number of basis fn. types    :        2
  | Max. radial fns per species/type  :        8
  | Max. logarithmic grid size        :     1301
  | Max. radial integration grid size :       73
  | Max. angular integration grid size:      302
  | Max. angular grid division number :        8
  | Radial grid for Hartree potential :     1301
  | Number of spin channels           :        1

------------------------------------------------------------
          Reading file control.in.
------------------------------------------------------------
  XC: Using RPBE gradient-corrected functionals.
  Spin treatment: No spin polarisation.
  Scalar relativistic treatment of kinetic energy: on-site free-atom approximation to ZORA.
  Charge =   0.000000E+00: Neutral system requested explicitly.
  Using non-empirical van der Waals correction (Hirshfeld partitioning):
  Occupation type: Gaussian broadening, width =   0.100000E-01 eV.
  Using pulay charge density mixing.
  Pulay mixing - number of memorized iterations:   10
  Charge density mixing - mixing parameter:     0.1000
  Convergence accuracy of self-consistent charge density: 0.5000E-04
  Convergence accuracy of sum of eigenvalues: 0.5000E-02
  Convergence accuracy of total energy: 0.5000E-05
  Maximum number of s.-c. iterations  :  3000
  Kohn-Sham eigenvalues and eigenfunctions calculated by lapack diagonalisation (D&C).
  Number of empty states per atom:        8
  Threshold for basis singularities: 0.0000E+00
  Partition function in integrals calculations: rho / r^2
 Using packed matrix format           0
  Convergence accuracy of forces: 0.5000E-03
  Cleaning forces before final output.
  Hirshfeld charge analysis will be performed.
 
  Reading configuration options for species H                   .
  | Found nuclear charge :   1.0000
  | Found cutoff potl. onset [A], width [A], scale factor :    4.00000    2.00000    1.00000
  | Found cutoff specification for free atom: Cutoff potential begins at    8.00000 A.
  | Found logarithmic grid data [bohr] : 0.1000E-03 0.1000E+03 0.1012E+01
  | Threshold for basis-dependent cutoff potential is   0.100000E-03
  | Found data for basic radial integration grid :    24 points, outermost radius =    7.000 A
  | Found multiplier for basic radial grid :   2
  | Found angular grid specification: user-specified.
  | Specified grid contains     4 separate shells.
  | Check grid settings after all constraints further below.
  | Found l_max for Hartree potential  :   4
  | Found free-atom valence shell :  1 s   1.000
  | No ionic wave fns used. Skipping ion_occ.
  | Found hydrogenic basis function :  2 s   2.100
  | Found hydrogenic basis function :  2 p   3.500
  | Found hydrogenic basis function :  1 s   0.850
  | Found hydrogenic basis function :  2 p   3.700
  | Found hydrogenic basis function :  2 s   1.200
  | Found hydrogenic basis function :  3 d   7.000
  Species H                   : Missing cutoff potential type.
  Defaulting to exp(1/x)/(1-x)^2 type cutoff potential.
  Species H : On-site basis accuracy parameter (for Gram-Schmidt orthonormalisation) not specified.
  Using default value basis_acc =  0.1000000E-03.
  Species H                   : Using default innermost maximum threshold i_radial=  2 for radial functions.
  Species H                   : Basic radial grid will be enhanced according to radial_multiplier =   2, to contain    49 grid points.
 
  Reading configuration options for species O                   .
  | Found nuclear charge :   8.0000
  | Found atomic mass :    15.9994000000000      amu
  | Found l_max for Hartree potential  :   4
  | Found cutoff potl. onset [A], width [A], scale factor :    4.00000    2.00000    1.00000
  | Found cutoff specification for free atom: Cutoff potential begins at    8.00000 A.
  | Threshold for basis-dependent cutoff potential is   0.100000E-03
  | Found logarithmic grid data [bohr] : 0.1000E-03 0.1000E+03 0.1012E+01
  | Found data for basic radial integration grid :    36 points, outermost radius =    7.000 A
  | Found multiplier for basic radial grid :   2
  | Found angular grid specification: user-specified.
  | Specified grid contains     4 separate shells.
  | Check grid settings after all constraints further below.
  | Found free-atom valence shell :  2 s   2.000
  | Found free-atom valence shell :  2 p   4.000
  | No ionic wave fns used. Skipping ion_occ.
  | No ionic wave fns used. Skipping ion_occ.
  | Found hydrogenic basis function :  2 p   1.800
  | Found hydrogenic basis function :  3 d   7.600
  | Found hydrogenic basis function :  3 s   6.400
  | Found hydrogenic basis function :  4 f  11.600
  | Found hydrogenic basis function :  3 p   6.200
  | Found hydrogenic basis function :  3 d   5.600
  | Found hydrogenic basis function :  5 g  17.600
  | Found hydrogenic basis function :  1 s   0.750
  Species O                   : Missing cutoff potential type.
  Defaulting to exp(1/x)/(1-x)^2 type cutoff potential.
  Species O : On-site basis accuracy parameter (for Gram-Schmidt orthonormalisation) not specified.
  Using default value basis_acc =  0.1000000E-03.
  Species O                   : Using default innermost maximum threshold i_radial=  2 for radial functions.
  Species O                   : Basic radial grid will be enhanced according to radial_multiplier =   2, to contain    73 grid points.
 
  Finished reading input file 'control.in'. Consistency checks are next.
 
  Target number of points in a grid batch is not set. Defaulting to  100
  Method for grid partitioning is not set. Defaulting to parallel hash+maxmin partitioning.
  Batch size limit is not set. Defaulting to    200
  By default, will store active basis functions for each batch.
  If in need of memory, prune_basis_once .false. can be used to disable this option.
  communication_type for Hartree potential was not specified.
  Defaulting to calc_hartree .
  Pulay mixer: Number of initial linear mixing iterations not set.
  Defaulting to    0 iterations.
  Work space size for distributed Hartree potential not set.
  Defaulting to   0.200000E+03 MB.
  Algorithm-dependent basis array size parameters:
  | n_max_pulay                         :       10
  Geometry relaxation not requested: no relaxation will be performed.
  Handling of forces: Unphysical translation and rotation will be removed from forces.
  No accuracy limit for integral partition fn. given. Defaulting to 0.1000E-14.
  No threshold value for u(r) in integrations given. Defaulting to 0.1000E-05.
  No accuracy for occupation numbers given. Defaulting to 0.1000E-07.
  No threshold value for occupation numbers given. Defaulting to 0.0000E+00.
  No accuracy for fermi level given. Defaulting to 0.1000E-19.
  Maximum # of iterations to find E_F not set. Defaulting to  200.
  Will not use alltoall communication since running on < 1024 CPUs.
  Partitioning for Hartree potential was not defined. Using partition_type for integrals.
  | Reporting present value of keyword multip_moments_threshold  :       0.10000000E-09
  | This value may affect high angular momentum components of the Hartree potential in periodic systems.
  No q(lm)/r^(l+1) cutoff set for long-range Hartree potential.
  | Using default value of  0.100000E-09 .
  | Verify using the multipole_threshold keyword.
  Defaulting to new monopole extrapolation.
  Density update method: Loop over occupied states selected for charge density update.
------------------------------------------------------------


------------------------------------------------------------
          Reading geometry description geometry.in.
------------------------------------------------------------
  Input structure read successfully.
  The structure contains       18 atoms,  and a total of         60.000 electrons.

  Input geometry:
  | No unit cell requested.
  | Atomic structure:
  |       Atom                x [A]            y [A]            z [A]
  |    1: Species O             -4.053030         0.065001        -1.525160
  |    2: Species H             -4.566710         0.974813        -1.912820
  |    3: Species H             -3.067820         0.330172        -1.477310
  |    4: Species O             -4.581760        -0.256435         0.939478
  |    5: Species H             -4.349860         0.471090         1.504340
  |    6: Species H             -5.393870        -0.726611         1.228070
  |    7: Species O             -5.293160         2.192130        -2.328800
  |    8: Species H             -4.829300         2.988660        -1.973850
  |    9: Species H             -5.428570         2.328640        -3.235170
  |   10: Species O             -1.975360         2.858040         0.453140
  |   11: Species H             -1.223550         3.375850         0.786238
  |   12: Species H             -2.537520         2.567960         1.156120
  |   13: Species O             -4.066610         4.258280        -0.900064
  |   14: Species H             -3.224110         3.876870        -0.569443
  |   15: Species H             -3.737450         5.116530        -1.322720
  |   16: Species O             -5.628340         3.730740         1.385610
  |   17: Species H             -6.090650         4.418470         1.860350
  |   18: Species H             -5.158540         4.200260         0.615875
  |

  | The smallest distance between any two atoms is         0.92654057 AA.
  |
  | The first atom of this pair is atom number                      7 .
  | The second atom of this pair is atom number                     9 .

  Structure-dependent array size parameters: 
  | Maximum number of distinct radial functions  :       18
  | Maximum number of basis functions            :      414
  | Number of Kohn-Sham states (occupied + empty):      102
------------------------------------------------------------

------------------------------------------------------------
          Preparing all fixed parts of the calculation.
------------------------------------------------------------
  Determining machine precision:
    2.225073858507201E-308
  Setting up grids for atomic and cluster calculations.

  Creating wave function, potential, and density for free atoms.

  Species: H

  List of occupied orbitals and eigenvalues:
    n    l              occ      energy [Ha]    energy [eV]
    1    0           1.0000        -0.241408        -6.5691


  Species: O

  List of occupied orbitals and eigenvalues:
    n    l              occ      energy [Ha]    energy [eV]
    1    0           2.0000       -18.944147      -515.4965
    2    0           2.0000        -0.883529       -24.0421
    2    1           4.0000        -0.330176        -8.9845

  Creating fixed part of basis set: Ionic, confined, hydrogenic.
 
  H                    hydrogenic:
 
  List of hydrogenic basis orbitals: 
    n    l      effective z      eigenvalue [eV]  inner max. [A]     outer max. [A]     outer radius [A]   
    2    0         2.100000       -14.9965           0.193241           1.317192           5.372934
    2    1         3.500000       -41.6672           0.602363           0.602363           4.056010
    1    0         0.850000        -9.8292           0.624864           0.624864           5.372934
    2    1         3.700000       -46.5653           0.573616           0.573616           3.909951
    2    0         1.200000        -4.5995           0.334977           2.228160           5.505921
    3    2         7.000000       -74.0753           0.680692           0.680692           3.769152
 
 
  O                    hydrogenic:
 
  List of hydrogenic basis orbitals: 
    n    l      effective z      eigenvalue [eV]  inner max. [A]     outer max. [A]     outer radius [A]   
    2    1         1.800000       -11.0118           1.178546           1.178546           5.432516
    3    2         7.600000       -87.3182           0.624117           0.624117           3.541422
    3    0         6.400000       -61.9209           0.061166           1.081887           4.306510
    4    3        11.600000      -114.4238           0.731621           0.731621           3.584982
    3    1         6.200000       -58.1113           0.255677           1.030255           4.306510
    3    2         5.600000       -47.4081           0.847222           0.847222           4.413102
    5    4        17.600000      -168.5799           0.749730           0.749730           3.372413
    1    0         0.750000        -7.6499           0.705275           0.705275           5.366508
 

  Adding cutoff potential to free-atom effective potential.
  Creating atomic-like basis functions for current effective potential.

  Species H                   :

  List of atomic basis orbitals and eigenvalues:
    n    l      energy [Ha]    energy [eV]    outer radius [A]
    1    0        -0.241374        -6.5681       5.372934


  Species O                   :

  List of atomic basis orbitals and eigenvalues:
    n    l      energy [Ha]    energy [eV]    outer radius [A]
    1    0       -18.944147      -515.4965       1.415745
    2    0        -0.883529       -24.0421       5.048305
    2    1        -0.330173        -8.9845       5.301302

  Assembling full basis from fixed parts.
  | Species H :   atomic orbital   1 s accepted.
  | Species H :    hydro orbital   2 s accepted.
  | Species H :    hydro orbital   1 s accepted.
  | Species H :    hydro orbital   2 s accepted.
  | Species H :    hydro orbital   2 p accepted.
  | Species H :    hydro orbital   2 p accepted.
  | Species H :    hydro orbital   3 d accepted.
  | Species O :   atomic orbital   1 s accepted.
  | Species O :    hydro orbital   3 s accepted.
  | Species O :   atomic orbital   2 s accepted.
  | Species O :    hydro orbital   1 s accepted.
  | Species O :    hydro orbital   3 p accepted.
  | Species O :   atomic orbital   2 p accepted.
  | Species O :    hydro orbital   2 p accepted.
  | Species O :    hydro orbital   3 d accepted.
  | Species O :    hydro orbital   3 d accepted.
  | Species O :    hydro orbital   4 f accepted.
  | Species O :    hydro orbital   5 g accepted.
 
  Basis size parameters after reduction:
  | Total number of radial functions:       18
  | Total number of basis functions :      414
 
  Testing on-site integration grid accuracy.
  |  Species  Function  <phi|h_atom|phi> (log., in eV)  <phi|h_atom|phi> (rad., in eV)
           1        1                 -6.5683835025                 -6.5684759159
           1        2                 13.3711789951                 13.3708738703
           1        3                 23.6590910787                 23.6532055418
           1        4                 16.2963827186                 16.1870710655 ***
           1        5                 28.7627214838                 28.7627215090
           1        6                 59.5965249172                 59.5965950857
           1        7                 60.2220506392                 60.2220503827
           2        8               -515.4964576505               -515.4964530710
           2        9                 15.3030791347                 15.3030722972
           2       10                -21.7296094581                -21.7296135470
           2       11                 14.2969371730                 14.2969701621
           2       12                 21.0679693190                 21.0679697493
           2       13                 -2.3833606469                 -2.3833613176
           2       14                 13.7067136422                 13.7066766629
           2       15                 45.8013116808                 45.8013116965
           2       16                 52.2309815402                 52.2309831494
           2       17                 85.4120732416                 85.4120732763
           2       18                142.1019167745                142.1019167817
 * Note: Onsite integrals marked "***" above are less accurate than
 * onsite_accuracy_threshold =    0.03000 eV. Usually, this is harmless.
 * When in doubt, tighten the "radial" and/or "radial_multiplier" flags to check.

  Preparing densities etc. for the partition functions (integrals / Hartree potential).

  Preparations completed.
  max(cpu_time)          :      0.174 s.
  Wall clock time (cpu1) :      0.589 s.
------------------------------------------------------------

------------------------------------------------------------
          Begin self-consistency loop: Initialization.

          Date     :  20150727, Time     :  115219.268
------------------------------------------------------------

  Initializing index lists of integration centers etc. from given atomic structure:
  | Number of centers in hartree potential         :        18
  | Number of centers in hartree multipole         :        18
  | Number of centers in electron density summation:        18
  | Number of centers in basis integrals           :        18
  | Number of centers in integrals                 :        18
  Partitioning the integration grid into batches with parallel hashing+maxmin method.
  | Number of batches:     2382
  | Maximal batch size:     170
  | Minimal batch size:      52
  | Average batch size:      99.098
  | Standard deviation of batch sizes:      32.347

  Integration load balanced across     8 MPI tasks.
  Work distribution over tasks is as follows:
  Task     0 has      29488 integration points.
  Task     1 has      29496 integration points.
  Task     2 has      29504 integration points.
  Task     3 has      29469 integration points.
  Task     4 has      29535 integration points.
  Task     5 has      29458 integration points.
  Task     6 has      29549 integration points.
  Task     7 has      29553 integration points.
  Initializing partition tables, free-atom densities, potentials, etc. across the integration grid (initialize_grid_storage).
  | Net number of integration points:   236052
  | of which are non-zero points    :   235483
  Obtaining max. number of non-zero basis functions in each batch (get_n_compute_maxes).
  | Maximal number of non-zero basis functions:      410 in task     0
  | Maximal number of non-zero basis functions:      409 in task     1
  | Maximal number of non-zero basis functions:      410 in task     2
  | Maximal number of non-zero basis functions:      410 in task     3
  | Maximal number of non-zero basis functions:      410 in task     4
  | Maximal number of non-zero basis functions:      409 in task     5
  | Maximal number of non-zero basis functions:      410 in task     6
  | Maximal number of non-zero basis functions:      409 in task     7
  Integrating Hamiltonian matrix: batch-based integration.
  Time summed over all CPUs for integration: real work       10.883 s, elapsed       11.049 s
  Integrating overlap matrix.
  Time summed over all CPUs for integration: real work        5.963 s, elapsed        6.037 s

  Updating Kohn-Sham eigenvalues, eigenvectors, occupation numbers, and Fermi level.
  Solving generalized eigenproblem
  Updating Kohn-Sham eigenvalues and eigenfunctions.
  Transforming overlap matrix and checking for singularities.
  Overlap matrix is nonsingular:
  | Lowest eigenvalue:  0.294611E-03
  Solving real generalised eigenvalue problem by standard LAPACK (fast)
  Determining occupation numbers for Kohn-Sham eigenstates.
  | Chemical potential (Fermi level) in eV                 : -.34587914E+01
  | Error in electron count due to remaining E_F inaccuracy: 0.00000000E+00
  | Maximum occupation number of highest empty state:  0.00E+00

  Writing Kohn-Sham eigenvalues.

  State    Occupation    Eigenvalue [Ha]    Eigenvalue [eV]
      1       2.00000         -19.064908         -518.78255
      2       2.00000         -19.056670         -518.55837
      3       2.00000         -19.051950         -518.42995
      4       2.00000         -19.045451         -518.25310
      5       2.00000         -19.044648         -518.23124
      6       2.00000         -19.019671         -517.55159
      7       2.00000          -1.122223          -30.53725
      8       2.00000          -1.107612          -30.13966
      9       2.00000          -1.098548          -29.89301
     10       2.00000          -1.093360          -29.75185
     11       2.00000          -1.086046          -29.55282
     12       2.00000          -1.043479          -28.39450
     13       2.00000          -0.653516          -17.78308
     14       2.00000          -0.649448          -17.67237
     15       2.00000          -0.644408          -17.53524
     16       2.00000          -0.623629          -16.96982
     17       2.00000          -0.610161          -16.60333
     18       2.00000          -0.597243          -16.25180
     19       2.00000          -0.529929          -14.42011
     20       2.00000          -0.518927          -14.12072
     21       2.00000          -0.504798          -13.73624
     22       2.00000          -0.504117          -13.71771
     23       2.00000          -0.498151          -13.55537
     24       2.00000          -0.479594          -13.05043
     25       2.00000          -0.444428          -12.09351
     26       2.00000          -0.440989          -11.99991
     27       2.00000          -0.438525          -11.93289
     28       2.00000          -0.438007          -11.91877
     29       2.00000          -0.430168          -11.70547
     30       2.00000          -0.402640          -10.95640
     31       0.00000          -0.099341           -2.70320
     32       0.00000          -0.067747           -1.84350
     33       0.00000          -0.058917           -1.60320
     34       0.00000          -0.052377           -1.42525
     35       0.00000          -0.036574           -0.99523
     36       0.00000          -0.027921           -0.75976
     37       0.00000          -0.010921           -0.29718
     38       0.00000           0.024363            0.66294
     39       0.00000           0.036541            0.99434
     40       0.00000           0.041587            1.13164
     41       0.00000           0.043756            1.19067
     42       0.00000           0.052908            1.43969
     43       0.00000           0.069218            1.88351
     44       0.00000           0.083404            2.26954
     45       0.00000           0.089100            2.42455
     46       0.00000           0.091496            2.48974
     47       0.00000           0.094242            2.56446
     48       0.00000           0.102143            2.77946
     49       0.00000           0.107070            2.91353
     50       0.00000           0.110798            3.01497
     51       0.00000           0.115942            3.15494
     52       0.00000           0.127917            3.48079
     53       0.00000           0.132269            3.59921
     54       0.00000           0.135853            3.69676
     55       0.00000           0.141819            3.85909
     56       0.00000           0.147923            4.02519
     57       0.00000           0.152621            4.15304
     58       0.00000           0.170191            4.63114
     59       0.00000           0.175350            4.77152
     60       0.00000           0.198131            5.39143
     61       0.00000           0.207823            5.65514
     62       0.00000           0.214877            5.84710
     63       0.00000           0.237398            6.45993
     64       0.00000           0.248511            6.76234
     65       0.00000           0.255017            6.93936
     66       0.00000           0.260486            7.08819
     67       0.00000           0.270554            7.36216
     68       0.00000           0.289436            7.87595
     69       0.00000           0.302888            8.24200
     70       0.00000           0.314736            8.56441
     71       0.00000           0.325979            8.87033
     72       0.00000           0.333115            9.06451
     73       0.00000           0.349481            9.50986
     74       0.00000           0.356573            9.70286
     75       0.00000           0.369702           10.06010
     76       0.00000           0.382042           10.39589
     77       0.00000           0.384936           10.47463
     78       0.00000           0.400307           10.89290
     79       0.00000           0.404544           11.00821
     80       0.00000           0.423597           11.52666
     81       0.00000           0.429128           11.67716
     82       0.00000           0.443396           12.06542
     83       0.00000           0.450985           12.27191
     84       0.00000           0.451750           12.29274
     85       0.00000           0.455744           12.40144
     86       0.00000           0.474215           12.90404
     87       0.00000           0.490672           13.35186
     88       0.00000           0.494897           13.46684
     89       0.00000           0.528246           14.37431
     90       0.00000           0.531699           14.46827
     91       0.00000           0.551340           15.00273
     92       0.00000           0.560893           15.26268
     93       0.00000           0.564548           15.36214
     94       0.00000           0.583039           15.86530
     95       0.00000           0.608181           16.54944
     96       0.00000           0.621844           16.92123
     97       0.00000           0.639533           17.40259
     98       0.00000           0.681860           18.55435
     99       0.00000           0.696167           18.94367
    100       0.00000           0.701415           19.08649
    101       0.00000           0.721070           19.62131
    102       0.00000           0.749585           20.39725

  Highest occupied state (VBM) at    -10.95640465 eV
  | Occupation number:      2.00000000

  Lowest unoccupied state (CBM) at    -2.70320446 eV
  | Occupation number:      0.00000000

  Overall HOMO-LUMO gap:      8.25320020 eV.
  Calculating total energy contributions from superposition of free atom densities.

  Total energy components:
  | Sum of eigenvalues            :        -260.48649230 Ha       -7088.19809913 eV
  | XC energy correction          :         -54.69702040 Ha       -1488.38165302 eV
  | XC potential correction       :          69.89237465 Ha        1901.86828014 eV
  | Free-atom electrostatic energy:        -214.42121652 Ha       -5834.69816774 eV
  | Hartree energy correction     :           0.00000000 Ha           0.00000000 eV
  | van der Waals energy corr.    :           0.00000000 Ha           0.00000000 eV
  | Entropy correction            :           0.00000000 Ha           0.00000000 eV
  | ---------------------------
  | Total energy                  :        -459.71235458 Ha      -12509.40963975 eV
  | Total energy, T -> 0          :        -459.71235458 Ha      -12509.40963975 eV  <-- do not rely on this value for anything but (periodic) metals
  | Electronic free energy        :        -459.71235458 Ha      -12509.40963975 eV

  Derived energy quantities:
  | Kinetic energy                :         454.98833403 Ha       12380.86250038 eV
  | Electrostatic energy          :        -860.00366821 Ha      -23401.89048711 eV
  | Energy correction for multipole
  | error in Hartree potential    :           0.00000000 Ha           0.00000000 eV
  | Sum of eigenvalues per atom                           :        -393.78878328 eV
  | Total energy (T->0) per atom                          :        -694.96720221 eV  <-- do not rely on this value for anything but (periodic) metals
  | Electronic free energy per atom                       :        -694.96720221 eV
  Initialize hartree_potential_storage
  Max. number of atoms included in rho_multipole:           18

  End scf initialization - timings             :  max(cpu_time)    wall_clock(cpu1)
  | Time for scf. initialization               :        2.906 s           2.906 s
  | Boundary condition initialization          :        0.000 s           0.000 s
  | Integration                                :        2.141 s           2.141 s
  | Solution of K.-S. eqns.                    :        0.295 s           0.294 s
  | Grid partitioning                          :        0.173 s           0.173 s
  | Preloading free-atom quantities on grid    :        0.014 s           0.014 s
  | Free-atom superposition energy             :        0.090 s           0.089 s
  | Total energy evaluation                    :        0.000 s           0.000 s
------------------------------------------------------------

------------------------------------------------------------
          Begin self-consistency iteration #    1

  Date     :  20150727, Time     :  115222.174
------------------------------------------------------------
  Evaluating new KS density.
  Integration grid: deviation in total charge (<rho> - N_e) =   5.684342E-14
  Pulay mixing of updated and previous charge densities.

  Evaluating partitioned Hartree potential by multipole expansion.
  | Analytical far-field extrapolation by fixed multipoles:
  | Hartree multipole sum: apparent total charge =  -0.162357E-05
  Summing up the Hartree potential.
  Time summed over all CPUs for potential: real work        3.784 s, elapsed        3.800 s
  | RMS charge density error from multipole expansion :   0.183046E-02

  Integrating Hamiltonian matrix: batch-based integration.
  Time summed over all CPUs for integration: real work       10.852 s, elapsed       11.001 s

  Updating Kohn-Sham eigenvalues, eigenvectors, occupation numbers, and Fermi level.
  Solving generalized eigenproblem
  Updating Kohn-Sham eigenvalues and eigenfunctions.
  Solving real generalised eigenvalue problem by standard LAPACK (fast)
  Determining occupation numbers for Kohn-Sham eigenstates.
  | Chemical potential (Fermi level) in eV                 : -.30840348E+01
  | Error in electron count due to remaining E_F inaccuracy: 0.00000000E+00
  | Maximum occupation number of highest empty state:  0.00E+00

  Writing Kohn-Sham eigenvalues.

  State    Occupation    Eigenvalue [Ha]    Eigenvalue [eV]
      1       2.00000         -18.991675         -516.78978
      2       2.00000         -18.984437         -516.59281
      3       2.00000         -18.981768         -516.52019
      4       2.00000         -18.963714         -516.02892
      5       2.00000         -18.963465         -516.02215
      6       2.00000         -18.927409         -515.04099
      7       2.00000          -1.085959          -29.55045
      8       2.00000          -1.074254          -29.23195
      9       2.00000          -1.060954          -28.87004
     10       2.00000          -1.051906          -28.62382
     11       2.00000          -1.047265          -28.49754
     12       2.00000          -0.991643          -26.98399
     13       2.00000          -0.621853          -16.92148
     14       2.00000          -0.620649          -16.88871
     15       2.00000          -0.603972          -16.43491
     16       2.00000          -0.591231          -16.08822
     17       2.00000          -0.582332          -15.84606
     18       2.00000          -0.557534          -15.17127
     19       2.00000          -0.494561          -13.45768
     20       2.00000          -0.480268          -13.06876
     21       2.00000          -0.469705          -12.78132
     22       2.00000          -0.460213          -12.52302
     23       2.00000          -0.455761          -12.40188
     24       2.00000          -0.436148          -11.86819
     25       2.00000          -0.410257          -11.16366
     26       2.00000          -0.404836          -11.01614
     27       2.00000          -0.394698          -10.74029
     28       2.00000          -0.389474          -10.59813
     29       2.00000          -0.387432          -10.54256
     30       2.00000          -0.348574           -9.48517
     31       0.00000          -0.090444           -2.46110
     32       0.00000          -0.059111           -1.60848
     33       0.00000          -0.048673           -1.32447
     34       0.00000          -0.044126           -1.20072
     35       0.00000          -0.028262           -0.76904
     36       0.00000          -0.017591           -0.47868
     37       0.00000          -0.002588           -0.07044
     38       0.00000           0.034986            0.95201
     39       0.00000           0.044551            1.21229
     40       0.00000           0.049500            1.34697
     41       0.00000           0.055448            1.50883
     42       0.00000           0.061466            1.67259
     43       0.00000           0.081040            2.20521
     44       0.00000           0.094242            2.56446
     45       0.00000           0.098775            2.68782
     46       0.00000           0.102712            2.79494
     47       0.00000           0.106251            2.89123
     48       0.00000           0.113818            3.09715
     49       0.00000           0.116385            3.16699
     50       0.00000           0.125777            3.42257
     51       0.00000           0.128836            3.50580
     52       0.00000           0.138424            3.76672
     53       0.00000           0.144620            3.93532
     54       0.00000           0.146374            3.98304
     55       0.00000           0.150622            4.09864
     56       0.00000           0.157910            4.29696
     57       0.00000           0.162146            4.41222
     58       0.00000           0.180226            4.90419
     59       0.00000           0.186032            5.06220
     60       0.00000           0.210167            5.71893
     61       0.00000           0.218985            5.95889
     62       0.00000           0.225958            6.14862
     63       0.00000           0.248629            6.76555
     64       0.00000           0.258887            7.04467
     65       0.00000           0.264277            7.19133
     66       0.00000           0.270357            7.35678
     67       0.00000           0.282950            7.69947
     68       0.00000           0.299432            8.14797
     69       0.00000           0.313470            8.52995
     70       0.00000           0.323623            8.80623
     71       0.00000           0.337182            9.17518
     72       0.00000           0.343714            9.35294
     73       0.00000           0.358184            9.74669
     74       0.00000           0.363647            9.89534
     75       0.00000           0.378703           10.30503
     76       0.00000           0.392361           10.67669
     77       0.00000           0.395616           10.76526
     78       0.00000           0.412483           11.22424
     79       0.00000           0.414314           11.27406
     80       0.00000           0.435146           11.84092
     81       0.00000           0.441121           12.00351
     82       0.00000           0.451802           12.29417
     83       0.00000           0.461420           12.55587
     84       0.00000           0.463719           12.61844
     85       0.00000           0.467038           12.70876
     86       0.00000           0.486047           13.22602
     87       0.00000           0.503095           13.68990
     88       0.00000           0.507098           13.79884
     89       0.00000           0.542172           14.75325
     90       0.00000           0.543777           14.79693
     91       0.00000           0.564740           15.36735
     92       0.00000           0.574704           15.63849
     93       0.00000           0.581367           15.81980
     94       0.00000           0.598700           16.29147
     95       0.00000           0.620465           16.88372
     96       0.00000           0.634549           17.26696
     97       0.00000           0.651296           17.72267
     98       0.00000           0.697074           18.96834
     99       0.00000           0.709049           19.29420
    100       0.00000           0.715171           19.46078
    101       0.00000           0.738104           20.08484
    102       0.00000           0.760604           20.69710

  Highest occupied state (VBM) at     -9.48516760 eV
  | Occupation number:      2.00000000

  Lowest unoccupied state (CBM) at    -2.46109709 eV
  | Occupation number:      0.00000000

  Overall HOMO-LUMO gap:      7.02407051 eV.

  Total energy components:
  | Sum of eigenvalues            :        -257.66789440 Ha       -7011.50014770 eV
  | XC energy correction          :         -54.99193926 Ha       -1496.40680353 eV
  | XC potential correction       :          70.27799670 Ha        1912.36158999 eV
  | Free-atom electrostatic energy:        -214.42121652 Ha       -5834.69816774 eV
  | Hartree energy correction     :          -2.73029304 Ha         -74.29505378 eV
  | van der Waals energy corr.    :           0.00000000 Ha           0.00000000 eV
  | Entropy correction            :           0.00000000 Ha           0.00000000 eV
  | ---------------------------
  | Total energy                  :        -459.53334652 Ha      -12504.53858276 eV
  | Total energy, T -> 0          :        -459.53334652 Ha      -12504.53858276 eV  <-- do not rely on this value for anything but (periodic) metals
  | Electronic free energy        :        -459.53334652 Ha      -12504.53858276 eV

  Derived energy quantities:
  | Kinetic energy                :         456.75027986 Ha       12428.80748580 eV
  | Electrostatic energy          :        -861.29168713 Ha      -23436.93926503 eV
  | Energy correction for multipole
  | error in Hartree potential    :           0.00005025 Ha           0.00136730 eV
  | Sum of eigenvalues per atom                           :        -389.52778598 eV
  | Total energy (T->0) per atom                          :        -694.69658793 eV  <-- do not rely on this value for anything but (periodic) metals
  | Electronic free energy per atom                       :        -694.69658793 eV

  Self-consistency convergence accuracy:
  | Change of charge density      : 0.7373E+00
  | Change of sum of eigenvalues  : 0.7670E+02 eV
  | Change of total energy        : 0.4871E+01 eV

  End self-consistency iteration #     1       :  max(cpu_time)    wall_clock(cpu1)
  | Time for this iteration                    :        2.843 s           2.842 s
  | Charge density update                      :        0.896 s           0.896 s
  | Density mixing                             :        0.004 s           0.004 s
  | Hartree multipole update                   :        0.006 s           0.006 s
  | Hartree multipole summation                :        0.476 s           0.476 s
  | Integration                                :        1.378 s           1.377 s
  | Solution of K.-S. eqns.                    :        0.081 s           0.082 s
  | Total energy evaluation                    :        0.000 s           0.001 s
------------------------------------------------------------

------------------------------------------------------------
          Begin self-consistency iteration #    2

  Date     :  20150727, Time     :  115225.016
------------------------------------------------------------
  Evaluating new KS density.
  Integration grid: deviation in total charge (<rho> - N_e) =   4.973799E-14
  Pulay mixing of updated and previous charge densities.

  Evaluating partitioned Hartree potential by multipole expansion.
  | Analytical far-field extrapolation by fixed multipoles:
  | Hartree multipole sum: apparent total charge =  -0.401515E-05
  Summing up the Hartree potential.
  Time summed over all CPUs for potential: real work        3.783 s, elapsed        3.800 s
  | RMS charge density error from multipole expansion :   0.737976E-02

  Integrating Hamiltonian matrix: batch-based integration.
  Time summed over all CPUs for integration: real work       10.845 s, elapsed       10.970 s

  Updating Kohn-Sham eigenvalues, eigenvectors, occupation numbers, and Fermi level.
  Solving generalized eigenproblem
  Updating Kohn-Sham eigenvalues and eigenfunctions.
  Solving real generalised eigenvalue problem by standard LAPACK (fast)
  Determining occupation numbers for Kohn-Sham eigenstates.
  | Chemical potential (Fermi level) in eV                 : -.21667336E+01
  | Error in electron count due to remaining E_F inaccuracy: 0.00000000E+00
  | Maximum occupation number of highest empty state:  0.00E+00

  Highest occupied state (VBM) at     -5.92438911 eV
  | Occupation number:      2.00000000

  Lowest unoccupied state (CBM) at    -1.97645351 eV
  | Occupation number:      0.00000000

  Overall HOMO-LUMO gap:      3.94793560 eV.

  Total energy components:
  | Sum of eigenvalues            :        -250.91319646 Ha       -6827.69546509 eV
  | XC energy correction          :         -55.72960629 Ha       -1516.47974475 eV
  | XC potential correction       :          71.24165527 Ha        1938.58407410 eV
  | Free-atom electrostatic energy:        -214.42121652 Ha       -5834.69816774 eV
  | Hartree energy correction     :          -9.50125037 Ha        -258.54217699 eV
  | van der Waals energy corr.    :           0.00000000 Ha           0.00000000 eV
  | Entropy correction            :           0.00000000 Ha           0.00000000 eV
  | ---------------------------
  | Total energy                  :        -459.32361437 Ha      -12498.83148046 eV
  | Total energy, T -> 0          :        -459.32361437 Ha      -12498.83148046 eV  <-- do not rely on this value for anything but (periodic) metals
  | Electronic free energy        :        -459.32361437 Ha      -12498.83148046 eV

  Derived energy quantities:
  | Kinetic energy                :         460.34458055 Ha       12526.61338380 eV
  | Electrostatic energy          :        -863.93858863 Ha      -23508.96511950 eV
  | Energy correction for multipole
  | error in Hartree potential    :          -0.00074366 Ha          -0.02023613 eV
  | Sum of eigenvalues per atom                           :        -379.31641473 eV
  | Total energy (T->0) per atom                          :        -694.37952669 eV  <-- do not rely on this value for anything but (periodic) metals
  | Electronic free energy per atom                       :        -694.37952669 eV

  Self-consistency convergence accuracy:
  | Change of charge density      : 0.5584E+00
  | Change of sum of eigenvalues  : 0.1838E+03 eV
  | Change of total energy        : 0.5707E+01 eV

  End self-consistency iteration #     2       :  max(cpu_time)    wall_clock(cpu1)
  | Time for this iteration                    :        2.838 s           2.838 s
  | Charge density update                      :        0.893 s           0.893 s
  | Density mixing                             :        0.007 s           0.006 s
  | Hartree multipole update                   :        0.006 s           0.007 s
  | Hartree multipole summation                :        0.476 s           0.475 s
  | Integration                                :        1.373 s           1.374 s
  | Solution of K.-S. eqns.                    :        0.082 s           0.082 s
  | Total energy evaluation                    :        0.000 s           0.001 s
------------------------------------------------------------

------------------------------------------------------------
          Begin self-consistency iteration #    3

  Date     :  20150727, Time     :  115227.854
------------------------------------------------------------
  Evaluating new KS density.
  Integration grid: deviation in total charge (<rho> - N_e) =   2.131628E-14
  Pulay mixing of updated and previous charge densities.

  Evaluating partitioned Hartree potential by multipole expansion.
  | Analytical far-field extrapolation by fixed multipoles:
  | Hartree multipole sum: apparent total charge =  -0.145714E-05
  Summing up the Hartree potential.
  Time summed over all CPUs for potential: real work        3.783 s, elapsed        3.798 s
  | RMS charge density error from multipole expansion :   0.148253E-01

  Integrating Hamiltonian matrix: batch-based integration.
  Time summed over all CPUs for integration: real work       10.842 s, elapsed       10.976 s

  Updating Kohn-Sham eigenvalues, eigenvectors, occupation numbers, and Fermi level.
  Solving generalized eigenproblem
  Updating Kohn-Sham eigenvalues and eigenfunctions.
  Solving real generalised eigenvalue problem by standard LAPACK (fast)
  Determining occupation numbers for Kohn-Sham eigenstates.
  | Chemical potential (Fermi level) in eV                 : -.19939683E+01
  | Error in electron count due to remaining E_F inaccuracy: 0.00000000E+00
  | Maximum occupation number of highest empty state:  0.00E+00

  Highest occupied state (VBM) at     -5.72101505 eV
  | Occupation number:      2.00000000

  Lowest unoccupied state (CBM) at    -1.92587582 eV
  | Occupation number:      0.00000000

  Overall HOMO-LUMO gap:      3.79513922 eV.

  Total energy components:
  | Sum of eigenvalues            :        -251.13456255 Ha       -6833.71914286 eV
  | XC energy correction          :         -55.70065310 Ha       -1515.69188844 eV
  | XC potential correction       :          71.19738687 Ha        1937.37946955 eV
  | Free-atom electrostatic energy:        -214.42121652 Ha       -5834.69816774 eV
  | Hartree energy correction     :          -9.25850239 Ha        -251.93666831 eV
  | van der Waals energy corr.    :           0.00000000 Ha           0.00000000 eV
  | Entropy correction            :           0.00000000 Ha           0.00000000 eV
  | ---------------------------
  | Total energy                  :        -459.31754769 Ha      -12498.66639780 eV
  | Total energy, T -> 0          :        -459.31754769 Ha      -12498.66639780 eV  <-- do not rely on this value for anything but (periodic) metals
  | Electronic free energy        :        -459.31754769 Ha      -12498.66639780 eV

  Derived energy quantities:
  | Kinetic energy                :         457.86621015 Ha       12459.17349393 eV
  | Electrostatic energy          :        -861.48310474 Ha      -23442.14800329 eV
  | Energy correction for multipole
  | error in Hartree potential    :          -0.00576367 Ha          -0.15683747 eV
  | Sum of eigenvalues per atom                           :        -379.65106349 eV
  | Total energy (T->0) per atom                          :        -694.37035543 eV  <-- do not rely on this value for anything but (periodic) metals
  | Electronic free energy per atom                       :        -694.37035543 eV

  Self-consistency convergence accuracy:
  | Change of charge density      : 0.2755E+00
  | Change of sum of eigenvalues  : -.6024E+01 eV
  | Change of total energy        : 0.1651E+00 eV

  End self-consistency iteration #     3       :  max(cpu_time)    wall_clock(cpu1)
  | Time for this iteration                    :        2.834 s           2.833 s
  | Charge density update                      :        0.887 s           0.887 s
  | Density mixing                             :        0.008 s           0.008 s
  | Hartree multipole update                   :        0.006 s           0.006 s
  | Hartree multipole summation                :        0.476 s           0.476 s
  | Integration                                :        1.374 s           1.374 s
  | Solution of K.-S. eqns.                    :        0.081 s           0.081 s
  | Total energy evaluation                    :        0.001 s           0.001 s
------------------------------------------------------------

------------------------------------------------------------
          Begin self-consistency iteration #    4

  Date     :  20150727, Time     :  115230.687
------------------------------------------------------------
  Evaluating new KS density.
  Integration grid: deviation in total charge (<rho> - N_e) =   5.684342E-14
  Pulay mixing of updated and previous charge densities.

  Evaluating partitioned Hartree potential by multipole expansion.
  | Analytical far-field extrapolation by fixed multipoles:
  | Hartree multipole sum: apparent total charge =  -0.128386E-05
  Summing up the Hartree potential.
  Time summed over all CPUs for potential: real work        3.782 s, elapsed        3.800 s
  | RMS charge density error from multipole expansion :   0.189030E-01

  Integrating Hamiltonian matrix: batch-based integration.
  Time summed over all CPUs for integration: real work       10.846 s, elapsed       10.972 s

  Updating Kohn-Sham eigenvalues, eigenvectors, occupation numbers, and Fermi level.
  Solving generalized eigenproblem
  Updating Kohn-Sham eigenvalues and eigenfunctions.
  Solving real generalised eigenvalue problem by standard LAPACK (fast)
  Determining occupation numbers for Kohn-Sham eigenstates.
  | Chemical potential (Fermi level) in eV                 : -.26741049E+01
  | Error in electron count due to remaining E_F inaccuracy: 0.00000000E+00
  | Maximum occupation number of highest empty state:  0.00E+00

  Highest occupied state (VBM) at     -4.56013152 eV
  | Occupation number:      2.00000000

  Lowest unoccupied state (CBM) at    -1.80055002 eV
  | Occupation number:      0.00000000

  Overall HOMO-LUMO gap:      2.75958150 eV.

  Total energy components:
  | Sum of eigenvalues            :        -249.21421154 Ha       -6781.46373299 eV
  | XC energy correction          :         -55.93135845 Ha       -1521.96970038 eV
  | XC potential correction       :          71.49779570 Ha        1945.55400977 eV
  | Free-atom electrostatic energy:        -214.42121652 Ha       -5834.69816774 eV
  | Hartree energy correction     :         -11.23433551 Ha        -305.70182317 eV
  | van der Waals energy corr.    :           0.00000000 Ha           0.00000000 eV
  | Entropy correction            :           0.00000000 Ha           0.00000000 eV
  | ---------------------------
  | Total energy                  :        -459.30332632 Ha      -12498.27941451 eV
  | Total energy, T -> 0          :        -459.30332632 Ha      -12498.27941451 eV  <-- do not rely on this value for anything but (periodic) metals
  | Electronic free energy        :        -459.30332632 Ha      -12498.27941451 eV

  Derived energy quantities:
  | Kinetic energy                :         458.09005460 Ha       12465.26461141 eV
  | Electrostatic energy          :        -861.46202247 Ha      -23441.57432554 eV
  | Energy correction for multipole
  | error in Hartree potential    :          -0.00773499 Ha          -0.21047972 eV
  | Sum of eigenvalues per atom                           :        -376.74798517 eV
  | Total energy (T->0) per atom                          :        -694.34885636 eV  <-- do not rely on this value for anything but (periodic) metals
  | Electronic free energy per atom                       :        -694.34885636 eV

  Self-consistency convergence accuracy:
  | Change of charge density      : 0.1509E+00
  | Change of sum of eigenvalues  : 0.5226E+02 eV
  | Change of total energy        : 0.3870E+00 eV

  End self-consistency iteration #     4       :  max(cpu_time)    wall_clock(cpu1)
  | Time for this iteration                    :        2.835 s           2.835 s
  | Charge density update                      :        0.888 s           0.887 s
  | Density mixing                             :        0.010 s           0.010 s
  | Hartree multipole update                   :        0.006 s           0.007 s
  | Hartree multipole summation                :        0.476 s           0.475 s
  | Integration                                :        1.374 s           1.374 s
  | Solution of K.-S. eqns.                    :        0.081 s           0.081 s
  | Total energy evaluation                    :        0.000 s           0.000 s
------------------------------------------------------------

------------------------------------------------------------
          Begin self-consistency iteration #    5

  Date     :  20150727, Time     :  115233.522
------------------------------------------------------------
  Evaluating new KS density.
  Integration grid: deviation in total charge (<rho> - N_e) =   3.552714E-14
  Pulay mixing of updated and previous charge densities.

  Evaluating partitioned Hartree potential by multipole expansion.
  | Analytical far-field extrapolation by fixed multipoles:
  | Hartree multipole sum: apparent total charge =  -0.991489E-06
  Summing up the Hartree potential.
  Time summed over all CPUs for potential: real work        3.782 s, elapsed        3.798 s
  | RMS charge density error from multipole expansion :   0.197360E-01

  Integrating Hamiltonian matrix: batch-based integration.
  Time summed over all CPUs for integration: real work       10.844 s, elapsed       10.976 s

  Updating Kohn-Sham eigenvalues, eigenvectors, occupation numbers, and Fermi level.
  Solving generalized eigenproblem
  Updating Kohn-Sham eigenvalues and eigenfunctions.
  Solving real generalised eigenvalue problem by standard LAPACK (fast)
  Determining occupation numbers for Kohn-Sham eigenstates.
  | Chemical potential (Fermi level) in eV                 : -.26289875E+01
  | Error in electron count due to remaining E_F inaccuracy: 0.00000000E+00
  | Maximum occupation number of highest empty state:  0.00E+00

  Highest occupied state (VBM) at     -4.29041415 eV
  | Occupation number:      2.00000000

  Lowest unoccupied state (CBM) at    -1.78742135 eV
  | Occupation number:      0.00000000

  Overall HOMO-LUMO gap:      2.50299280 eV.

  Total energy components:
  | Sum of eigenvalues            :        -248.98465291 Ha       -6775.21712497 eV
  | XC energy correction          :         -55.96376216 Ha       -1522.85145009 eV
  | XC potential correction       :          71.53959694 Ha        1946.69147935 eV
  | Free-atom electrostatic energy:        -214.42121652 Ha       -5834.69816774 eV
  | Hartree energy correction     :         -11.47299445 Ha        -312.19606340 eV
  | van der Waals energy corr.    :           0.00000000 Ha           0.00000000 eV
  | Entropy correction            :           0.00000000 Ha           0.00000000 eV
  | ---------------------------
  | Total energy                  :        -459.30302910 Ha      -12498.27132685 eV
  | Total energy, T -> 0          :        -459.30302910 Ha      -12498.27132685 eV  <-- do not rely on this value for anything but (periodic) metals
  | Electronic free energy        :        -459.30302910 Ha      -12498.27132685 eV

  Derived energy quantities:
  | Kinetic energy                :         458.14762336 Ha       12466.83113693 eV
  | Electrostatic energy          :        -861.48689030 Ha      -23442.25101368 eV
  | Energy correction for multipole
  | error in Hartree potential    :          -0.00809985 Ha          -0.22040814 eV
  | Sum of eigenvalues per atom                           :        -376.40095139 eV
  | Total energy (T->0) per atom                          :        -694.34840705 eV  <-- do not rely on this value for anything but (periodic) metals
  | Electronic free energy per atom                       :        -694.34840705 eV

  Self-consistency convergence accuracy:
  | Change of charge density      : 0.3610E-01
  | Change of sum of eigenvalues  : 0.6247E+01 eV
  | Change of total energy        : 0.8088E-02 eV

  End self-consistency iteration #     5       :  max(cpu_time)    wall_clock(cpu1)
  | Time for this iteration                    :        2.836 s           2.835 s
  | Charge density update                      :        0.886 s           0.886 s
  | Density mixing                             :        0.012 s           0.011 s
  | Hartree multipole update                   :        0.006 s           0.006 s
  | Hartree multipole summation                :        0.476 s           0.476 s
  | Integration                                :        1.374 s           1.374 s
  | Solution of K.-S. eqns.                    :        0.081 s           0.081 s
  | Total energy evaluation                    :        0.000 s           0.001 s
------------------------------------------------------------

------------------------------------------------------------
          Begin self-consistency iteration #    6

  Date     :  20150727, Time     :  115236.357
------------------------------------------------------------
  Evaluating new KS density.
  Integration grid: deviation in total charge (<rho> - N_e) =   4.973799E-14
  Pulay mixing of updated and previous charge densities.

  Evaluating partitioned Hartree potential by multipole expansion.
  | Analytical far-field extrapolation by fixed multipoles:
  | Hartree multipole sum: apparent total charge =  -0.877823E-06
  Summing up the Hartree potential.
  Time summed over all CPUs for potential: real work        3.782 s, elapsed        3.798 s
  | RMS charge density error from multipole expansion :   0.200368E-01

  Integrating Hamiltonian matrix: batch-based integration.
  Time summed over all CPUs for integration: real work       10.846 s, elapsed       10.973 s

  Updating Kohn-Sham eigenvalues, eigenvectors, occupation numbers, and Fermi level.
  Solving generalized eigenproblem
  Updating Kohn-Sham eigenvalues and eigenfunctions.
  Solving real generalised eigenvalue problem by standard LAPACK (fast)
  Determining occupation numbers for Kohn-Sham eigenstates.
  | Chemical potential (Fermi level) in eV                 : -.26149717E+01
  | Error in electron count due to remaining E_F inaccuracy: 0.00000000E+00
  | Maximum occupation number of highest empty state:  0.00E+00

  Highest occupied state (VBM) at     -4.25243997 eV
  | Occupation number:      2.00000000

  Lowest unoccupied state (CBM) at    -1.78183651 eV
  | Occupation number:      0.00000000

  Overall HOMO-LUMO gap:      2.47060346 eV.

  Total energy components:
  | Sum of eigenvalues            :        -248.92435532 Ha       -6773.57634414 eV
  | XC energy correction          :         -55.97275368 Ha       -1523.09612190 eV
  | XC potential correction       :          71.55111415 Ha        1947.00487857 eV
  | Free-atom electrostatic energy:        -214.42121652 Ha       -5834.69816774 eV
  | Hartree energy correction     :         -11.53590649 Ha        -313.90798696 eV
  | van der Waals energy corr.    :           0.00000000 Ha           0.00000000 eV
  | Entropy correction            :           0.00000000 Ha           0.00000000 eV
  | ---------------------------
  | Total energy                  :        -459.30311786 Ha      -12498.27374217 eV
  | Total energy, T -> 0          :        -459.30311786 Ha      -12498.27374217 eV  <-- do not rely on this value for anything but (periodic) metals
  | Electronic free energy        :        -459.30311786 Ha      -12498.27374217 eV

  Derived energy quantities:
  | Kinetic energy                :         458.15703715 Ha       12467.08729925 eV
  | Electrostatic energy          :        -861.48740133 Ha      -23442.26491952 eV
  | Energy correction for multipole
  | error in Hartree potential    :          -0.00822620 Ha          -0.22384620 eV
  | Sum of eigenvalues per atom                           :        -376.30979690 eV
  | Total energy (T->0) per atom                          :        -694.34854123 eV  <-- do not rely on this value for anything but (periodic) metals
  | Electronic free energy per atom                       :        -694.34854123 eV

  Self-consistency convergence accuracy:
  | Change of charge density      : 0.1117E-01
  | Change of sum of eigenvalues  : 0.1641E+01 eV
  | Change of total energy        : -.2415E-02 eV

  End self-consistency iteration #     6       :  max(cpu_time)    wall_clock(cpu1)
  | Time for this iteration                    :        2.841 s           2.840 s
  | Charge density update                      :        0.889 s           0.889 s
  | Density mixing                             :        0.013 s           0.013 s
  | Hartree multipole update                   :        0.006 s           0.006 s
  | Hartree multipole summation                :        0.476 s           0.476 s
  | Integration                                :        1.374 s           1.374 s
  | Solution of K.-S. eqns.                    :        0.082 s           0.082 s
  | Total energy evaluation                    :        0.000 s           0.000 s
------------------------------------------------------------

------------------------------------------------------------
          Begin self-consistency iteration #    7

  Date     :  20150727, Time     :  115239.198
------------------------------------------------------------
  Evaluating new KS density.
  Integration grid: deviation in total charge (<rho> - N_e) =   6.394885E-14
  Pulay mixing of updated and previous charge densities.

  Evaluating partitioned Hartree potential by multipole expansion.
  | Analytical far-field extrapolation by fixed multipoles:
  | Hartree multipole sum: apparent total charge =  -0.587360E-06
  Summing up the Hartree potential.
  Time summed over all CPUs for potential: real work        3.781 s, elapsed        3.798 s
  | RMS charge density error from multipole expansion :   0.199832E-01

  Integrating Hamiltonian matrix: batch-based integration.
  Time summed over all CPUs for integration: real work       10.842 s, elapsed       10.979 s

  Updating Kohn-Sham eigenvalues, eigenvectors, occupation numbers, and Fermi level.
  Solving generalized eigenproblem
  Updating Kohn-Sham eigenvalues and eigenfunctions.
  Solving real generalised eigenvalue problem by standard LAPACK (fast)
  Determining occupation numbers for Kohn-Sham eigenstates.
  | Chemical potential (Fermi level) in eV                 : -.26582291E+01
  | Error in electron count due to remaining E_F inaccuracy: 0.00000000E+00
  | Maximum occupation number of highest empty state:  0.00E+00

  Highest occupied state (VBM) at     -4.41139184 eV
  | Occupation number:      2.00000000

  Lowest unoccupied state (CBM) at    -1.79645131 eV
  | Occupation number:      0.00000000

  Overall HOMO-LUMO gap:      2.61494053 eV.

  Total energy components:
  | Sum of eigenvalues            :        -249.10119701 Ha       -6778.38845121 eV
  | XC energy correction          :         -55.95437313 Ha       -1522.59596156 eV
  | XC potential correction       :          71.52655236 Ha        1946.33651831 eV
  | Free-atom electrostatic energy:        -214.42121652 Ha       -5834.69816774 eV
  | Hartree energy correction     :         -11.35273648 Ha        -308.92367735 eV
  | van der Waals energy corr.    :           0.00000000 Ha           0.00000000 eV
  | Entropy correction            :           0.00000000 Ha           0.00000000 eV
  | ---------------------------
  | Total energy                  :        -459.30297077 Ha      -12498.26973955 eV
  | Total energy, T -> 0          :        -459.30297077 Ha      -12498.26973955 eV  <-- do not rely on this value for anything but (periodic) metals
  | Electronic free energy        :        -459.30297077 Ha      -12498.26973955 eV

  Derived energy quantities:
  | Kinetic energy                :         458.21136714 Ha       12468.56569353 eV
  | Electrostatic energy          :        -861.55996478 Ha      -23444.23947152 eV
  | Energy correction for multipole
  | error in Hartree potential    :          -0.00808421 Ha          -0.21998263 eV
  | Sum of eigenvalues per atom                           :        -376.57713618 eV
  | Total energy (T->0) per atom                          :        -694.34831886 eV  <-- do not rely on this value for anything but (periodic) metals
  | Electronic free energy per atom                       :        -694.34831886 eV

  Self-consistency convergence accuracy:
  | Change of charge density      : 0.1193E-01
  | Change of sum of eigenvalues  : -.4812E+01 eV
  | Change of total energy        : 0.4003E-02 eV

  End self-consistency iteration #     7       :  max(cpu_time)    wall_clock(cpu1)
  | Time for this iteration                    :        2.840 s           2.839 s
  | Charge density update                      :        0.887 s           0.887 s
  | Density mixing                             :        0.015 s           0.014 s
  | Hartree multipole update                   :        0.006 s           0.006 s
  | Hartree multipole summation                :        0.476 s           0.475 s
  | Integration                                :        1.374 s           1.375 s
  | Solution of K.-S. eqns.                    :        0.082 s           0.081 s
  | Total energy evaluation                    :        0.000 s           0.000 s
------------------------------------------------------------

------------------------------------------------------------
          Begin self-consistency iteration #    8

  Date     :  20150727, Time     :  115242.037
------------------------------------------------------------
  Evaluating new KS density.
  Integration grid: deviation in total charge (<rho> - N_e) =   3.552714E-14
  Pulay mixing of updated and previous charge densities.

  Evaluating partitioned Hartree potential by multipole expansion.
  | Analytical far-field extrapolation by fixed multipoles:
  | Hartree multipole sum: apparent total charge =  -0.557768E-06
  Summing up the Hartree potential.
  Time summed over all CPUs for potential: real work        3.782 s, elapsed        3.799 s
  | RMS charge density error from multipole expansion :   0.200136E-01

  Integrating Hamiltonian matrix: batch-based integration.
  Time summed over all CPUs for integration: real work       10.841 s, elapsed       10.975 s

  Updating Kohn-Sham eigenvalues, eigenvectors, occupation numbers, and Fermi level.
  Solving generalized eigenproblem
  Updating Kohn-Sham eigenvalues and eigenfunctions.
  Solving real generalised eigenvalue problem by standard LAPACK (fast)
  Determining occupation numbers for Kohn-Sham eigenstates.
  | Chemical potential (Fermi level) in eV                 : -.26580563E+01
  | Error in electron count due to remaining E_F inaccuracy: 0.00000000E+00
  | Maximum occupation number of highest empty state:  0.00E+00

  Highest occupied state (VBM) at     -4.39870487 eV
  | Occupation number:      2.00000000

  Lowest unoccupied state (CBM) at    -1.79716055 eV
  | Occupation number:      0.00000000

  Overall HOMO-LUMO gap:      2.60154433 eV.

  Total energy components:
  | Sum of eigenvalues            :        -249.10148099 Ha       -6778.39617867 eV
  | XC energy correction          :         -55.95429452 Ha       -1522.59382257 eV
  | XC potential correction       :          71.52639561 Ha        1946.33225293 eV
  | Free-atom electrostatic energy:        -214.42121652 Ha       -5834.69816774 eV
  | Hartree energy correction     :         -11.35237282 Ha        -308.91378192 eV
  | van der Waals energy corr.    :           0.00000000 Ha           0.00000000 eV
  | Entropy correction            :           0.00000000 Ha           0.00000000 eV
  | ---------------------------
  | Total energy                  :        -459.30296924 Ha      -12498.26969797 eV
  | Total energy, T -> 0          :        -459.30296924 Ha      -12498.26969797 eV  <-- do not rely on this value for anything but (periodic) metals
  | Electronic free energy        :        -459.30296924 Ha      -12498.26969797 eV

  Derived energy quantities:
  | Kinetic energy                :         458.21623600 Ha       12468.69818189 eV
  | Electrostatic energy          :        -861.56491072 Ha      -23444.37405728 eV
  | Energy correction for multipole
  | error in Hartree potential    :          -0.00809950 Ha          -0.22039864 eV
  | Sum of eigenvalues per atom                           :        -376.57756548 eV
  | Total energy (T->0) per atom                          :        -694.34831655 eV  <-- do not rely on this value for anything but (periodic) metals
  | Electronic free energy per atom                       :        -694.34831655 eV

  Self-consistency convergence accuracy:
  | Change of charge density      : 0.2093E-02
  | Change of sum of eigenvalues  : -.7727E-02 eV
  | Change of total energy        : 0.4159E-04 eV

  End self-consistency iteration #     8       :  max(cpu_time)    wall_clock(cpu1)
  | Time for this iteration                    :        2.841 s           2.841 s
  | Charge density update                      :        0.887 s           0.887 s
  | Density mixing                             :        0.017 s           0.017 s
  | Hartree multipole update                   :        0.006 s           0.006 s
  | Hartree multipole summation                :        0.475 s           0.476 s
  | Integration                                :        1.374 s           1.374 s
  | Solution of K.-S. eqns.                    :        0.081 s           0.081 s
  | Total energy evaluation                    :        0.000 s           0.000 s
------------------------------------------------------------

------------------------------------------------------------
          Begin self-consistency iteration #    9

  Date     :  20150727, Time     :  115244.878
------------------------------------------------------------
  Evaluating new KS density.
  Integration grid: deviation in total charge (<rho> - N_e) =   2.842171E-14
  Pulay mixing of updated and previous charge densities.

[...]
   Pulay + GGA                   : 0.118402E+02 0.515929E+01 -.159212E+01
   Van der Waals               : -.775215E-03 -.165053E-02 -.298421E-02
   ----------------------------------------------------------------
   Total forces(  13)            : 0.890411E+00 0.189840E+01 -.998896E+00
  atom #   14
   Hellmann-Feynman + Multipole  : 0.254526E-01 -.399362E+00 0.258220E+00
   Pulay + GGA                   : 0.859878E-01 -.240531E-01 0.177899E-01
   Van der Waals               : -.187871E-02 -.387990E-02 -.465023E-02
   ----------------------------------------------------------------
   Total forces(  14)            : 0.109562E+00 -.427295E+00 0.271360E+00
  atom #   15
   Hellmann-Feynman + Multipole  : -.829486E+00 -.144932E+01 0.680099E+00
   Pulay + GGA                   : 0.415507E-01 0.960102E-01 -.576555E-01
   Van der Waals               : 0.198431E-02 -.337011E-02 0.146452E-02
   ----------------------------------------------------------------
   Total forces(  15)            : -.785951E+00 -.135667E+01 0.623908E+00
  atom #   16
   Hellmann-Feynman + Multipole  : 0.653922E+00 -.155345E+02 0.138759E+01
   Pulay + GGA                   : 0.462171E+00 0.157057E+02 -.271756E+01
   Van der Waals               : 0.507238E-02 -.902400E-02 -.416612E-02
   ----------------------------------------------------------------
   Total forces(  16)            : 0.112117E+01 0.162149E+00 -.133413E+01
  atom #   17
   Hellmann-Feynman + Multipole  : -.270209E+00 0.442015E+00 0.243585E+00
   Pulay + GGA                   : -.641817E-01 0.927676E-01 0.848745E-01
   Van der Waals               : 0.369438E-02 -.160640E-02 -.398995E-02
   ----------------------------------------------------------------
   Total forces(  17)            : -.330696E+00 0.533177E+00 0.324469E+00
  atom #   18
   Hellmann-Feynman + Multipole  : -.885281E+00 -.827667E+00 0.124228E+01
   Pulay + GGA                   : 0.371453E-01 0.675742E-01 -.607714E-01
   Van der Waals               : 0.177257E-02 -.575417E-02 0.264907E-02
   ----------------------------------------------------------------
   Total forces(  18)            : -.846363E+00 -.765847E+00 0.118415E+01
  Timings for vdw_correction_hirshfeld (Tkatchenko-Scheffler 2009):
  | CPU time:        7.496 s, Wall clock time:        7.499 s.
  Removing unitary transformations (pure translations, rotations) from forces on atoms.
  Atomic forces before filtering:
  | Net force on center of mass :  0.977717E-02 0.251501E-02 -.791029E-02 eV/A
  | Net torque on center of mass:  0.482504E-03 0.620954E-02 -.136111E-01 eV
  Atomic forces after filtering:
  | Net force on center of mass :  -.535218E-15 0.892031E-16 -.356812E-15 eV/A
  | Net torque on center of mass:  0.226580E-14 0.566451E-15 0.151054E-14 eV
 
  Energy and forces in a compact form:
  | Total energy uncorrected      :         -0.124983729989418E+05 eV
  | Total energy corrected        :         -0.124983729989418E+05 eV  <-- do not rely on this value for anything but (periodic) metals
  | Electronic free energy        :         -0.124983729989418E+05 eV
  Total atomic forces (unitary forces cleaned) [eV/Ang]:
  |   1          0.985774954752777E+00          0.261707080414111E+01         -0.163861844666168E+01
  |   2          0.174456849658326E+01         -0.274446144004323E+01          0.113542437556424E+01
  |   3         -0.206632582406632E+01         -0.480546218326685E+00         -0.150991044598416E+00
  |   4         -0.291271012279396E+00         -0.144846860855946E+01         -0.355398203755814E+00
  |   5         -0.506625455640887E+00          0.509310005329441E+00          0.959890402204100E+00
  |   6          0.565432166738344E+00          0.817207826113440E+00          0.314766245290226E+00
  |   7         -0.395615192863835E-01          0.483700644880086E+00          0.212596446703324E+01
  |   8         -0.219262458799984E+00         -0.184907429191704E+00         -0.610858976253686E-01
  |   9         -0.301375807976835E+00          0.329728109855063E+00         -0.236857058936042E+01
  |  10          0.751281164881774E+00          0.528811832975105E+00         -0.164914122309433E+01
  |  11         -0.344470995249769E+00         -0.266140712014864E+00          0.402550760170596E+00
  |  12         -0.431024015252867E+00         -0.203940426227197E+00          0.121197955337604E+01
  |  13          0.889624091455856E+00          0.189827624171008E+01         -0.998453191388276E+00
  |  14          0.108806957544849E+00         -0.427286884616828E+00          0.271874125038326E+00
  |  15         -0.786836384002830E+00         -0.135674896273371E+01          0.624376280808271E+00
  |  16          0.112027072913761E+01          0.161787796056229E+00         -0.133381816301063E+01
  |  17         -0.331737926564461E+00          0.532744825288032E+00          0.324743554643897E+00
  |  18         -0.847267161974741E+00         -0.766137404634904E+00          0.118450699536600E+01
 
  ------------------------------------ 
  Start decomposition of the XC Energy 
  ------------------------------------ 
  Hartree-Fock part   :          0.000000000 Ha              0.000000000 eV
  ------------------------------------ 
  X Energy            :        -53.989113396 Ha          -1469.118523422 eV
  C Energy GGA        :         -1.965032423 Ha            -53.471252828 eV
  Total XC Energy     :        -55.954145819 Ha          -1522.589776250 eV
  LDA X and C from self-consistent density 
  X Energy LDA        :        -48.657711892 Ha          -1324.043707170 eV
  C Energy LDA        :         -3.962034763 Ha           -107.812451329 eV
  ------------------------------------ 
  End decomposition of the XC Energy 
  ------------------------------------ 
  Performing Hirshfeld analysis of fragment charges and moments.
  ----------------------------------------------------------------------
  | Atom     1: O
  |   Hirshfeld charge        :     -0.35209659
  |   Free atom volume        :     23.95238533
  |   Hirshfeld volume        :     23.72744873
  |   Hirshfeld dipole vector :      0.00844052       0.05895861       0.02767278
  |   Hirshfeld dipole moment :      0.06567452
  |   Hirshfeld second moments:      0.02566368      -0.01162859       0.01583209
  |                                 -0.01162859      -0.05445057      -0.03062972
  |                                  0.01583209      -0.03062972      -0.07864098
  ----------------------------------------------------------------------
  | Atom     2: H
  |   Hirshfeld charge        :      0.06654906
  |   Free atom volume        :     10.44207651
  |   Hirshfeld volume        :      8.44671842
  |   Hirshfeld dipole vector :     -0.02447595       0.03565574      -0.00696790
  |   Hirshfeld dipole moment :      0.04380588
  |   Hirshfeld second moments:      0.06997223       0.03138286       0.00064458
  |                                  0.03138286       0.02585970       0.00824882
  |                                  0.00064458       0.00824882       0.06247122
  ----------------------------------------------------------------------
  | Atom     3: H
  |   Hirshfeld charge        :      0.09067093
  |   Free atom volume        :     10.44207651
  |   Hirshfeld volume        :      7.87254568
  |   Hirshfeld dipole vector :      0.10505403       0.02583992       0.01781471
  |   Hirshfeld dipole moment :      0.10964221
  |   Hirshfeld second moments:      0.08545549      -0.01543400      -0.00260867
  |                                 -0.01543400       0.07626857      -0.01415776
  |                                 -0.00260867      -0.01415776       0.06265689
  ----------------------------------------------------------------------
  | Atom     4: O
  |   Hirshfeld charge        :     -0.28161542
  |   Free atom volume        :     23.95238533
  |   Hirshfeld volume        :     21.87207109
  |   Hirshfeld dipole vector :     -0.03425929       0.02179883       0.01467090
  |   Hirshfeld dipole moment :      0.04317549
  |   Hirshfeld second moments:      0.02822034       0.05735935      -0.00710207
  |                                  0.05735935       0.03257705       0.02551689
  |                                 -0.00710207       0.02551689       0.00110461
  ----------------------------------------------------------------------
  | Atom     5: H
  |   Hirshfeld charge        :      0.12322671
  |   Free atom volume        :     10.44207651
  |   Hirshfeld volume        :      7.16481321
  |   Hirshfeld dipole vector :      0.03514072       0.08869235       0.05614044
  |   Hirshfeld dipole moment :      0.11069305
  |   Hirshfeld second moments:      0.10600580       0.02061113      -0.00554778
  |                                  0.02061113       0.08271292       0.00089574
  |                                 -0.00554778       0.00089574       0.09442914
  ----------------------------------------------------------------------
  | Atom     6: H
  |   Hirshfeld charge        :      0.14177050
  |   Free atom volume        :     10.44207651
  |   Hirshfeld volume        :      6.60782605
  |   Hirshfeld dipole vector :     -0.10407795      -0.06320646       0.01934971
  |   Hirshfeld dipole moment :      0.12329513
  |   Hirshfeld second moments:      0.10087349       0.01341635       0.00056683
  |                                  0.01341635       0.11530604       0.01289139
  |                                  0.00056683       0.01289139       0.10561344
  ----------------------------------------------------------------------
  | Atom     7: O
  |   Hirshfeld charge        :     -0.19894360
  |   Free atom volume        :     23.95238533
  |   Hirshfeld volume        :     20.43487740
  |   Hirshfeld dipole vector :      0.02863824      -0.00979040      -0.01239968
  |   Hirshfeld dipole moment :      0.03270708
  |   Hirshfeld second moments:      0.03640692       0.01159138       0.02646569
  |                                  0.01159138       0.07728528       0.00471154
  |                                  0.02646569       0.00471154       0.10056333
  ----------------------------------------------------------------------
  | Atom     8: H
  |   Hirshfeld charge        :      0.11800451
  |   Free atom volume        :     10.44207651
  |   Hirshfeld volume        :      7.28314665
  |   Hirshfeld dipole vector :      0.02707724       0.03995692       0.00990464
  |   Hirshfeld dipole moment :      0.04927305
  |   Hirshfeld second moments:      0.08280674      -0.02131048      -0.00656781
  |                                 -0.02131048       0.07211730      -0.02713190
  |                                 -0.00656781      -0.02713190       0.10332569
  ----------------------------------------------------------------------
  | Atom     9: H
  |   Hirshfeld charge        :      0.16107304
  |   Free atom volume        :     10.44207651
  |   Hirshfeld volume        :      5.95332894
  |   Hirshfeld dipole vector :     -0.01887534       0.00979778      -0.11878067
  |   Hirshfeld dipole moment :      0.12066948
  |   Hirshfeld second moments:      0.11934106       0.00892918       0.00795528
  |                                  0.00892918       0.13359372       0.00240428
  |                                  0.00795528       0.00240428       0.12365582
  ----------------------------------------------------------------------
  | Atom    10: O
  |   Hirshfeld charge        :     -0.22868314
  |   Free atom volume        :     23.95238533
  |   Hirshfeld volume        :     20.18215008
  |   Hirshfeld dipole vector :     -0.01378448       0.01759567       0.03125549
  |   Hirshfeld dipole moment :      0.03842558
  |   Hirshfeld second moments:      0.09237422       0.03981885      -0.00046090
  |                                  0.03981885       0.04833689      -0.01653959
  |                                 -0.00046090      -0.01653959       0.06561455
  ----------------------------------------------------------------------
  | Atom    11: H
  |   Hirshfeld charge        :      0.17139422
  |   Free atom volume        :     10.44207651
  |   Hirshfeld volume        :      5.56829614
  |   Hirshfeld dipole vector :      0.09787317       0.06730652       0.03430635
  |   Hirshfeld dipole moment :      0.12363757
  |   Hirshfeld second moments:      0.13391537       0.00611256      -0.00788176
  |                                  0.00611256       0.12272621      -0.00974225
  |                                 -0.00788176      -0.00974225       0.13999245
  ----------------------------------------------------------------------
  | Atom    12: H
  |   Hirshfeld charge        :      0.16884460
  |   Free atom volume        :     10.44207651
  |   Hirshfeld volume        :      6.36336272
  |   Hirshfeld dipole vector :     -0.06590106      -0.04078457       0.08039055
  |   Hirshfeld dipole moment :      0.11166455
  |   Hirshfeld second moments:      0.11298769       0.01205656       0.01496682
  |                                  0.01205656       0.11726765      -0.00159113
  |                                  0.01496682      -0.00159113       0.12264399
  ----------------------------------------------------------------------
  | Atom    13: O
  |   Hirshfeld charge        :     -0.18685620
  |   Free atom volume        :     23.95238533
  |   Hirshfeld volume        :     19.99793925
  |   Hirshfeld dipole vector :     -0.00030527      -0.01308363       0.00198538
  |   Hirshfeld dipole moment :      0.01323693
  |   Hirshfeld second moments:      0.07657639       0.00180666       0.00200316
  |                                  0.00180666       0.10025598      -0.02288564
  |                                  0.00200316      -0.02288564       0.06516046
  ----------------------------------------------------------------------
  | Atom    14: H
  |   Hirshfeld charge        :      0.12252508
  |   Free atom volume        :     10.44207651
  |   Hirshfeld volume        :      7.03509316
  |   Hirshfeld dipole vector :      0.04767875      -0.01705302       0.00607676
  |   Hirshfeld dipole moment :      0.05099996
  |   Hirshfeld second moments:      0.07922311       0.02979260      -0.02278772
  |                                  0.02979260       0.10361927       0.00590166
  |                                 -0.02278772       0.00590166       0.09231058
  ----------------------------------------------------------------------
  | Atom    15: H
  |   Hirshfeld charge        :      0.17143987
  |   Free atom volume        :     10.44207651
  |   Hirshfeld volume        :      5.53553468
  |   Hirshfeld dipole vector :      0.03363453       0.10127805      -0.05160278
  |   Hirshfeld dipole moment :      0.11853848
  |   Hirshfeld second moments:      0.14154117      -0.00545663       0.00474618
  |                                 -0.00545663       0.12953625      -0.00083147
  |                                  0.00474618      -0.00083147       0.12861233
  ----------------------------------------------------------------------
  | Atom    16: O
  |   Hirshfeld charge        :     -0.31400147
  |   Free atom volume        :     23.95238533
  |   Hirshfeld volume        :     22.21736285
  |   Hirshfeld dipole vector :     -0.00618980       0.04951388      -0.01585173
  |   Hirshfeld dipole moment :      0.05235661
  |   Hirshfeld second moments:     -0.00873826      -0.02250389      -0.05574365
  |                                 -0.02250389       0.00558330       0.00955478
  |                                 -0.05574365       0.00955478       0.01947120
  ----------------------------------------------------------------------
  | Atom    17: H
  |   Hirshfeld charge        :      0.13000733
  |   Free atom volume        :     10.44207651
  |   Hirshfeld volume        :      6.47939523
  |   Hirshfeld dipole vector :     -0.06464081       0.08656221       0.06307812
  |   Hirshfeld dipole moment :      0.12510116
  |   Hirshfeld second moments:      0.10173618       0.00105954      -0.01653818
  |                                  0.00105954       0.10660417      -0.00699191
  |                                 -0.01653818      -0.00699191       0.11500337
  ----------------------------------------------------------------------
  | Atom    18: H
  |   Hirshfeld charge        :      0.09663917
  |   Free atom volume        :     10.44207651
  |   Hirshfeld volume        :      7.64351808
  |   Hirshfeld dipole vector :      0.02014448       0.03981621      -0.04385978
  |   Hirshfeld dipole moment :      0.06256845
  |   Hirshfeld second moments:      0.06967196      -0.01922059       0.01515331
  |                                 -0.01922059       0.09942078       0.01394311
  |                                  0.01515331       0.01394311       0.05371217
  ----------------------------------------------------------------------


------------------------------------------------------------------------------
  Final output of selected total energy values:

  The following output summarizes some interesting total energy values
  at the end of a run (AFTER all relaxation, molecular dynamics, etc.).

  | Total energy of the DFT / Hartree-Fock s.c.f. calculation      :         -12498.372998942 eV
  | Final zero-broadening corrected energy (caution - metals only) :         -12498.372998942 eV
  | For reference only, the value of 1 Hartree used in FHI-aims is :             27.211384500 eV

  Before relying on these values, please be sure to understand exactly which
  total energy value is referred to by a given number. Different objects may
  all carry the same name 'total energy'. Definitions:

  Total energy of the DFT / Hartree-Fock s.c.f. calculation:
  | Note that this energy does not include ANY quantities calculated after the
  | s.c.f. cycle, in particular not ANY RPA, MP2, etc. many-body perturbation terms.

  Final zero-broadening corrected energy:
  | For metallic systems only, a broadening of the occupation numbers at the Fermi
  | level can be extrapolated back to zero broadening by an electron-gas inspired
  | formula. For all systems that are not real metals, this value can be
  | meaningless and should be avoided.

------------------------------------------------------------------------------

------------------------------------------------------------
          Leaving FHI-aims.
          Date     :  20150727, Time     :  115313.305

          Computational steps:
          | Number of self-consistency cycles          :           16

          Detailed time accounting                     :  max(cpu_time)    wall_clock(cpu1)
          | Total time                                 :       54.612 s          54.649 s
          | Preparation time                           :        0.174 s           0.589 s
          | Grid partitioning                          :        0.173 s           0.173 s
          | Preloading free-atom quantities on grid    :        0.014 s           0.014 s
          | Free-atom superposition energy             :        0.090 s           0.089 s
          | Total time for integrations                :       24.116 s          24.119 s
          | Total time for solution of K.-S. equations :        1.597 s           1.596 s
          | Total time for density & force components  :       18.087 s          18.087 s
          | Total time for mixing                      :        0.250 s           0.247 s
          | Total time for Hartree multipole update    :        0.098 s           0.101 s
          | Total time for Hartree multipole sum       :        9.188 s           9.186 s
          | Total time for total energy evaluation     :        0.005 s           0.017 s
          | Total time for scaled ZORA corrections     :        0.000 s           0.000 s
          | Total time for TS (2009) vdW correction    :        0.078 s           0.081 s

          Have a nice day.
------------------------------------------------------------
