  MPI-parallelism will be employed.
------------------------------------------------------------
          Invoking FHI-aims ...
          Version 081213
          Compiled on 2013/08/29 at 17:41:06 on host generoso.

          When using FHI-aims, please cite the following reference:

          Volker Blum, Ralf Gehrke, Felix Hanke, Paula Havu,
          Ville Havu, Xinguo Ren, Karsten Reuter, and Matthias Scheffler,
          'Ab Initio Molecular Simulations with Numeric Atom-Centered Orbitals: FHI-aims',
          Computer Physics Communications 180, 2175-2196 (2009)

          For any questions about FHI-aims, please visit the aimsclub website
          with its forums and wiki. Contributions to both the forums and the
          wiki are warmly encouraged - they are for you, and everyone is welcome there.

------------------------------------------------------------

  Date     :  20150727, Time     :  114946.656
  Time zero on CPU 1             :   0.429920000000000E-01  s.
  Internal wall clock time zero  :           207229786.656  s.

  Using        8 parallel tasks.
  Task        0 on host gen60 reporting.
  Task        1 on host gen60 reporting.
  Task        2 on host gen60 reporting.
  Task        3 on host gen60 reporting.
  Task        4 on host gen60 reporting.
  Task        5 on host gen60 reporting.
  Task        6 on host gen60 reporting.
  Task        7 on host gen60 reporting.

  Performing system and environment tests:
  | Environment variable OMP_NUM_THREADS correctly set to 1.
  | Checking for scalapack...
  | No scalapack compiled in.

  Obtaining array dimensions for all initial allocations:
  
  -----------------------------------------------------------------------
  Parsing control.in (first pass over file, find array dimensions only).
  The contents of control.in will be repeated verbatim below
  unless switched off by setting 'verbatim_writeout .false.' .
  in the first line of control.in .
  -----------------------------------------------------------------------
  
  #########################################################################################
  #
  #  Volker Blum, FHI 2008 : Test run input file control.in
  #
  #########################################################################################
  #
  #  Physical model
  #
    xc                 rpbe
    spin               none
    relativistic       atomic_zora scalar
    charge             0.
   vdw_correction_hirshfeld
  #
  #  SCF convergence
  #
    occupation_type    gaussian 0.01
    mixer              pulay
      n_max_pulay        10
      charge_mix_param   0.1
    sc_accuracy_rho    5E-5
    sc_accuracy_eev    5E-3
    sc_accuracy_etot   5E-6
    sc_iter_limit      3000
  #
  #  Eigenvalue solver
  #
    KS_method          lapack
      empty_states       8
      basis_threshold    0.e-5
  #
  #  Efficiency
  #
  #   all previous settings are now default, except stratmann still
  #   undecided. Continue to handle stratmann with care, if at all.
  #
  #  partition_type stratmann
    partition_type rho_r2
  #  hartree_partition_type stratmann
  #
  #  Oprions for large clusters (100's of atoms: memory saving / better scaling)
  #
  # for periodic systems:
  #
    density_update_method orbital
    packed_matrix_format none
  #  k_grid 6 6 6
  #  output k_eigenvalue 1
  #  distributed_spline_storage .true.
  #
  #  Relaxation
  #
  #  relax_geometry   bfgs 5.e-3
    sc_accuracy_forces 5.E-4
    final_forces_cleaned .true.
  #
  #  Output options
  #
  #  output mulliken
    output Hirshfeld
  #  output dipole
  
  #harmonic_length_scale 0.001
  
  ################################################################################
  #
  #  FHI-aims code project
  #  VB, Fritz-Haber Institut, 2007
  #
  #  Suggested "safe" defaults for H atom (to be pasted into control.in file)
  #  Basis constructed for a non-relativistic H2 molecule using the
  #  PW-LDA functional.
  #
  ################################################################################
    species        H
  #     global species definitions
      nucleus             1
      cut_pot             4.0  2.0  1.0
      cut_free_atom       finite 8.0
      logarithmic         0.00010000 100.00  1.0123
      basis_dep_cutoff    1d-4  # 1d-4 is safe default - please check 5d-4 if you wish!
      radial_base         24 7.0
      radial_multiplier   2
      angular_grids       specified
        division   0.2783  110
        division   0.3822  194
        division   0.5626  302
  #      division   0.5922  434
  #      division   0.6227  590
  #      division   0.7206  770
        outer_grid  302
      l_hartree           4
  ################################################################################
  #
  #  Definition of "minimal" basis
  #
  ################################################################################
  #     valence basis states
      valence      1  s   1.
  #     ion occupancy
      ion_occ      1  s   0.5
  ################################################################################
  #
  #  Suggested additional basis functions. For production calculations,
  #  uncomment them one after another (the most important basis functions are
  #  listed first).
  #
  ################################################################################
  #  "First tier" - improvements: -1014.90 meV to -62.69 meV
       hydro 2 s 2.1
       hydro 2 p 3.5
  #  "Second tier" - improvements: -12.89 meV to -1.83 meV
       hydro 1 s 0.85
       hydro 2 p 3.7
       hydro 2 s 1.2
       hydro 3 d 7
  #  "Third tier" - improvements: -0.25 meV to -0.12 meV
  #     hydro 4 f 11.2
  #     hydro 3 p 4.8
  #     hydro 4 d 9
  #     hydro 3 s 3.2
  
  ################################################################################
  #
  #  FHI-aims code project
  #  VB, Fritz-Haber Institut, 2007
  #
  #  Suggested "safe" defaults for O atom (to be pasted into control.in file)
  #  All values have been tested for a non-relativistic, non-spinpolarized O2
  #  molecule using the PW-LDA functional. Validity for PBE is expected.
  #
  #  Constructed for dimers: 1.0 A, 1.208 A, 1.5 A, 2.0 A, 3.0 A
  #
  ################################################################################
    species        O
  #     global species definitions
      nucleus             8
      mass                15.9994
      l_hartree           4
      cut_pot             4.0  2.0  1.0
      cut_free_atom       finite 8.0
      basis_dep_cutoff    1d-4  # 1d-4 is safe default - please check 5d-4 if you wish!
      logarithmic         0.00010000 100.00  1.0123
      radial_base         36 7.0
      radial_multiplier   2
       angular_grids specified
        division   0.4087  110
        division   0.5181  194
        division   0.6184  302
  #      division   0.7315  434
  #      division   0.7934  590
  #      division   0.9656  770
  #      division   1.4041  974
  #      outer_grid 974
        outer_grid 302
  ################################################################################
  #
  #  Definition of "minimal" basis
  #
  ################################################################################
  #     valence basis states
      valence      2  s   2.
      valence      2  p   4.
  #     ion occupancy
      ion_occ      2  s   1.
      ion_occ      2  p   3.
  ################################################################################
  #
  #  Suggested additional basis functions. For production calculations,
  #  uncomment them one after another (the most important basis functions are
  #  listed first).
  #
  ################################################################################
  #  "First tier" - improvements: -699.05 meV to -159.38 meV
       hydro 2 p 1.8
       hydro 3 d 7.6
       hydro 3 s 6.4
  #  "Second tier" - improvements: -49.91 meV to -5.39 meV
       hydro 4 f 11.6
       hydro 3 p 6.2
       hydro 3 d 5.6
       hydro 5 g 17.6
       hydro 1 s 0.75
  #  "Third tier" - improvements: -2.83 meV to -0.50 meV
  #     ionic 2 p auto
  #     hydro 4 f 10.8
  #     hydro 4 d 4.7
  #     hydro 2 s 6.8
  #  "Fourth tier" - improvements: -0.40 meV to -0.12 meV
  #     hydro 3 p 5
  #     hydro 3 s 3.3
  #     hydro 5 g 15.6
  #     hydro 4 f 17.6
  #     hydro 4 d 14
  # Further basis functions - -0.08 meV and below
  #     hydro 3 s 2.1
  #     hydro 4 d 11.6
  #     hydro 3 p 16
  #     hydro 2 s 17.2
  
  
  -----------------------------------------------------------------------
  Completed first pass over input file control.in .
  -----------------------------------------------------------------------
  
  
  -----------------------------------------------------------------------
  Parsing geometry.in (first pass over file, find array dimensions only).
  The contents of geometry.in will be repeated verbatim below
  unless switched off by setting 'verbatim_writeout .false.' .
  in the first line of geometry.in .
  -----------------------------------------------------------------------
  
  atom      -4.053030000      0.065001000     -1.525160000  O
  atom      -4.566710000      0.974813000     -1.912820000  H
  atom      -3.067820000      0.330172000     -1.477310000  H
  atom      -4.581760000     -0.256435000      0.939478000  O
  atom      -4.349860000      0.471090000      1.504340000  H
  atom      -5.393870000     -0.726611000      1.228070000  H
  atom      -5.293160000      2.192130000     -2.328800000  O
  atom      -4.829300000      2.988660000     -1.973850000  H
  atom      -5.428570000      2.328640000     -3.235170000  H
  atom      -3.818880000      2.024990000      2.187990000  O
  atom      -3.690880000      1.961360000      3.202150000  H
  atom      -4.546490000      2.751300000      2.045370000  H
  atom      -4.066610000      4.258280000     -0.900064000  O
  atom      -3.224110000      3.876870000     -0.569443000  H
  atom      -3.737450000      5.116530000     -1.322720000  H
  atom      -5.628340000      3.730740000      1.385610000  O
  atom      -6.090650000      4.418470000      1.860350000  H
  atom      -5.158540000      4.200260000      0.615875000  H
  
  -----------------------------------------------------------------------
  Completed first pass over input file geometry.in .
  -----------------------------------------------------------------------
  
 
  Basic array size parameters: 
  | Number of species                 :        2
  | Number of atoms                   :       18
  | Max. basis fn. angular momentum   :        4
  | Max. atomic/ionic basis occupied n:        2
  | Max. number of basis fn. types    :        2
  | Max. radial fns per species/type  :        8
  | Max. logarithmic grid size        :     1301
  | Max. radial integration grid size :       73
  | Max. angular integration grid size:      302
  | Max. angular grid division number :        8
  | Radial grid for Hartree potential :     1301
  | Number of spin channels           :        1

------------------------------------------------------------
          Reading file control.in.
------------------------------------------------------------
  XC: Using RPBE gradient-corrected functionals.
  Spin treatment: No spin polarisation.
  Scalar relativistic treatment of kinetic energy: on-site free-atom approximation to ZORA.
  Charge =   0.000000E+00: Neutral system requested explicitly.
  Using non-empirical van der Waals correction (Hirshfeld partitioning):
  Occupation type: Gaussian broadening, width =   0.100000E-01 eV.
  Using pulay charge density mixing.
  Pulay mixing - number of memorized iterations:   10
  Charge density mixing - mixing parameter:     0.1000
  Convergence accuracy of self-consistent charge density: 0.5000E-04
  Convergence accuracy of sum of eigenvalues: 0.5000E-02
  Convergence accuracy of total energy: 0.5000E-05
  Maximum number of s.-c. iterations  :  3000
  Kohn-Sham eigenvalues and eigenfunctions calculated by lapack diagonalisation (D&C).
  Number of empty states per atom:        8
  Threshold for basis singularities: 0.0000E+00
  Partition function in integrals calculations: rho / r^2
 Using packed matrix format           0
  Convergence accuracy of forces: 0.5000E-03
  Cleaning forces before final output.
  Hirshfeld charge analysis will be performed.
 
  Reading configuration options for species H                   .
  | Found nuclear charge :   1.0000
  | Found cutoff potl. onset [A], width [A], scale factor :    4.00000    2.00000    1.00000
  | Found cutoff specification for free atom: Cutoff potential begins at    8.00000 A.
  | Found logarithmic grid data [bohr] : 0.1000E-03 0.1000E+03 0.1012E+01
  | Threshold for basis-dependent cutoff potential is   0.100000E-03
  | Found data for basic radial integration grid :    24 points, outermost radius =    7.000 A
  | Found multiplier for basic radial grid :   2
  | Found angular grid specification: user-specified.
  | Specified grid contains     4 separate shells.
  | Check grid settings after all constraints further below.
  | Found l_max for Hartree potential  :   4
  | Found free-atom valence shell :  1 s   1.000
  | No ionic wave fns used. Skipping ion_occ.
  | Found hydrogenic basis function :  2 s   2.100
  | Found hydrogenic basis function :  2 p   3.500
  | Found hydrogenic basis function :  1 s   0.850
  | Found hydrogenic basis function :  2 p   3.700
  | Found hydrogenic basis function :  2 s   1.200
  | Found hydrogenic basis function :  3 d   7.000
  Species H                   : Missing cutoff potential type.
  Defaulting to exp(1/x)/(1-x)^2 type cutoff potential.
  Species H : On-site basis accuracy parameter (for Gram-Schmidt orthonormalisation) not specified.
  Using default value basis_acc =  0.1000000E-03.
  Species H                   : Using default innermost maximum threshold i_radial=  2 for radial functions.
  Species H                   : Basic radial grid will be enhanced according to radial_multiplier =   2, to contain    49 grid points.
 
  Reading configuration options for species O                   .
  | Found nuclear charge :   8.0000
  | Found atomic mass :    15.9994000000000      amu
  | Found l_max for Hartree potential  :   4
  | Found cutoff potl. onset [A], width [A], scale factor :    4.00000    2.00000    1.00000
  | Found cutoff specification for free atom: Cutoff potential begins at    8.00000 A.
  | Threshold for basis-dependent cutoff potential is   0.100000E-03
  | Found logarithmic grid data [bohr] : 0.1000E-03 0.1000E+03 0.1012E+01
  | Found data for basic radial integration grid :    36 points, outermost radius =    7.000 A
  | Found multiplier for basic radial grid :   2
  | Found angular grid specification: user-specified.
  | Specified grid contains     4 separate shells.
  | Check grid settings after all constraints further below.
  | Found free-atom valence shell :  2 s   2.000
  | Found free-atom valence shell :  2 p   4.000
  | No ionic wave fns used. Skipping ion_occ.
  | No ionic wave fns used. Skipping ion_occ.
  | Found hydrogenic basis function :  2 p   1.800
  | Found hydrogenic basis function :  3 d   7.600
  | Found hydrogenic basis function :  3 s   6.400
  | Found hydrogenic basis function :  4 f  11.600
  | Found hydrogenic basis function :  3 p   6.200
  | Found hydrogenic basis function :  3 d   5.600
  | Found hydrogenic basis function :  5 g  17.600
  | Found hydrogenic basis function :  1 s   0.750
  Species O                   : Missing cutoff potential type.
  Defaulting to exp(1/x)/(1-x)^2 type cutoff potential.
  Species O : On-site basis accuracy parameter (for Gram-Schmidt orthonormalisation) not specified.
  Using default value basis_acc =  0.1000000E-03.
  Species O                   : Using default innermost maximum threshold i_radial=  2 for radial functions.
  Species O                   : Basic radial grid will be enhanced according to radial_multiplier =   2, to contain    73 grid points.
 
  Finished reading input file 'control.in'. Consistency checks are next.
 
  Target number of points in a grid batch is not set. Defaulting to  100
  Method for grid partitioning is not set. Defaulting to parallel hash+maxmin partitioning.
  Batch size limit is not set. Defaulting to    200
  By default, will store active basis functions for each batch.
  If in need of memory, prune_basis_once .false. can be used to disable this option.
  communication_type for Hartree potential was not specified.
  Defaulting to calc_hartree .
  Pulay mixer: Number of initial linear mixing iterations not set.
  Defaulting to    0 iterations.
  Work space size for distributed Hartree potential not set.
  Defaulting to   0.200000E+03 MB.
  Algorithm-dependent basis array size parameters:
  | n_max_pulay                         :       10
  Geometry relaxation not requested: no relaxation will be performed.
  Handling of forces: Unphysical translation and rotation will be removed from forces.
  No accuracy limit for integral partition fn. given. Defaulting to 0.1000E-14.
  No threshold value for u(r) in integrations given. Defaulting to 0.1000E-05.
  No accuracy for occupation numbers given. Defaulting to 0.1000E-07.
  No threshold value for occupation numbers given. Defaulting to 0.0000E+00.
  No accuracy for fermi level given. Defaulting to 0.1000E-19.
  Maximum # of iterations to find E_F not set. Defaulting to  200.
  Will not use alltoall communication since running on < 1024 CPUs.
  Partitioning for Hartree potential was not defined. Using partition_type for integrals.
  | Reporting present value of keyword multip_moments_threshold  :       0.10000000E-09
  | This value may affect high angular momentum components of the Hartree potential in periodic systems.
  No q(lm)/r^(l+1) cutoff set for long-range Hartree potential.
  | Using default value of  0.100000E-09 .
  | Verify using the multipole_threshold keyword.
  Defaulting to new monopole extrapolation.
  Density update method: Loop over occupied states selected for charge density update.
------------------------------------------------------------


------------------------------------------------------------
          Reading geometry description geometry.in.
------------------------------------------------------------
  Input structure read successfully.
  The structure contains       18 atoms,  and a total of         60.000 electrons.

  Input geometry:
  | No unit cell requested.
  | Atomic structure:
  |       Atom                x [A]            y [A]            z [A]
  |    1: Species O             -4.053030         0.065001        -1.525160
  |    2: Species H             -4.566710         0.974813        -1.912820
  |    3: Species H             -3.067820         0.330172        -1.477310
  |    4: Species O             -4.581760        -0.256435         0.939478
  |    5: Species H             -4.349860         0.471090         1.504340
  |    6: Species H             -5.393870        -0.726611         1.228070
  |    7: Species O             -5.293160         2.192130        -2.328800
  |    8: Species H             -4.829300         2.988660        -1.973850
  |    9: Species H             -5.428570         2.328640        -3.235170
  |   10: Species O             -3.818880         2.024990         2.187990
  |   11: Species H             -3.690880         1.961360         3.202150
  |   12: Species H             -4.546490         2.751300         2.045370
  |   13: Species O             -4.066610         4.258280        -0.900064
  |   14: Species H             -3.224110         3.876870        -0.569443
  |   15: Species H             -3.737450         5.116530        -1.322720
  |   16: Species O             -5.628340         3.730740         1.385610
  |   17: Species H             -6.090650         4.418470         1.860350
  |   18: Species H             -5.158540         4.200260         0.615875
  |

  | The smallest distance between any two atoms is         0.92654057 AA.
  |
  | The first atom of this pair is atom number                      7 .
  | The second atom of this pair is atom number                     9 .

  Structure-dependent array size parameters: 
  | Maximum number of distinct radial functions  :       18
  | Maximum number of basis functions            :      414
  | Number of Kohn-Sham states (occupied + empty):      102
------------------------------------------------------------

------------------------------------------------------------
          Preparing all fixed parts of the calculation.
------------------------------------------------------------
  Determining machine precision:
    2.225073858507201E-308
  Setting up grids for atomic and cluster calculations.

  Creating wave function, potential, and density for free atoms.

  Species: H

  List of occupied orbitals and eigenvalues:
    n    l              occ      energy [Ha]    energy [eV]
    1    0           1.0000        -0.241408        -6.5691


  Species: O

  List of occupied orbitals and eigenvalues:
    n    l              occ      energy [Ha]    energy [eV]
    1    0           2.0000       -18.944147      -515.4965
    2    0           2.0000        -0.883529       -24.0421
    2    1           4.0000        -0.330176        -8.9845

  Creating fixed part of basis set: Ionic, confined, hydrogenic.
 
  H                    hydrogenic:
 
  List of hydrogenic basis orbitals: 
    n    l      effective z      eigenvalue [eV]  inner max. [A]     outer max. [A]     outer radius [A]   
    2    0         2.100000       -14.9965           0.193241           1.317192           5.372934
    2    1         3.500000       -41.6672           0.602363           0.602363           4.056010
    1    0         0.850000        -9.8292           0.624864           0.624864           5.372934
    2    1         3.700000       -46.5653           0.573616           0.573616           3.909951
    2    0         1.200000        -4.5995           0.334977           2.228160           5.505921
    3    2         7.000000       -74.0753           0.680692           0.680692           3.769152
 
 
  O                    hydrogenic:
 
  List of hydrogenic basis orbitals: 
    n    l      effective z      eigenvalue [eV]  inner max. [A]     outer max. [A]     outer radius [A]   
    2    1         1.800000       -11.0118           1.178546           1.178546           5.432516
    3    2         7.600000       -87.3182           0.624117           0.624117           3.541422
    3    0         6.400000       -61.9209           0.061166           1.081887           4.306510
    4    3        11.600000      -114.4238           0.731621           0.731621           3.584982
    3    1         6.200000       -58.1113           0.255677           1.030255           4.306510
    3    2         5.600000       -47.4081           0.847222           0.847222           4.413102
    5    4        17.600000      -168.5799           0.749730           0.749730           3.372413
    1    0         0.750000        -7.6499           0.705275           0.705275           5.366508
 

  Adding cutoff potential to free-atom effective potential.
  Creating atomic-like basis functions for current effective potential.

  Species H                   :

  List of atomic basis orbitals and eigenvalues:
    n    l      energy [Ha]    energy [eV]    outer radius [A]
    1    0        -0.241374        -6.5681       5.372934


  Species O                   :

  List of atomic basis orbitals and eigenvalues:
    n    l      energy [Ha]    energy [eV]    outer radius [A]
    1    0       -18.944147      -515.4965       1.415745
    2    0        -0.883529       -24.0421       5.048305
    2    1        -0.330173        -8.9845       5.301302

  Assembling full basis from fixed parts.
  | Species H :   atomic orbital   1 s accepted.
  | Species H :    hydro orbital   2 s accepted.
  | Species H :    hydro orbital   1 s accepted.
  | Species H :    hydro orbital   2 s accepted.
  | Species H :    hydro orbital   2 p accepted.
  | Species H :    hydro orbital   2 p accepted.
  | Species H :    hydro orbital   3 d accepted.
  | Species O :   atomic orbital   1 s accepted.
  | Species O :    hydro orbital   3 s accepted.
  | Species O :   atomic orbital   2 s accepted.
  | Species O :    hydro orbital   1 s accepted.
  | Species O :    hydro orbital   3 p accepted.
  | Species O :   atomic orbital   2 p accepted.
  | Species O :    hydro orbital   2 p accepted.
  | Species O :    hydro orbital   3 d accepted.
  | Species O :    hydro orbital   3 d accepted.
  | Species O :    hydro orbital   4 f accepted.
  | Species O :    hydro orbital   5 g accepted.
 
  Basis size parameters after reduction:
  | Total number of radial functions:       18
  | Total number of basis functions :      414
 
  Testing on-site integration grid accuracy.
  |  Species  Function  <phi|h_atom|phi> (log., in eV)  <phi|h_atom|phi> (rad., in eV)
           1        1                 -6.5683835025                 -6.5684759159
           1        2                 13.3711789951                 13.3708738703
           1        3                 23.6590910787                 23.6532055418
           1        4                 16.2963827186                 16.1870710655 ***
           1        5                 28.7627214838                 28.7627215090
           1        6                 59.5965249172                 59.5965950857
           1        7                 60.2220506392                 60.2220503827
           2        8               -515.4964576505               -515.4964530710
           2        9                 15.3030791347                 15.3030722972
           2       10                -21.7296094581                -21.7296135470
           2       11                 14.2969371730                 14.2969701621
           2       12                 21.0679693190                 21.0679697493
           2       13                 -2.3833606469                 -2.3833613176
           2       14                 13.7067136422                 13.7066766629
           2       15                 45.8013116808                 45.8013116965
           2       16                 52.2309815402                 52.2309831494
           2       17                 85.4120732416                 85.4120732763
           2       18                142.1019167745                142.1019167817
 * Note: Onsite integrals marked "***" above are less accurate than
 * onsite_accuracy_threshold =    0.03000 eV. Usually, this is harmless.
 * When in doubt, tighten the "radial" and/or "radial_multiplier" flags to check.

  Preparing densities etc. for the partition functions (integrals / Hartree potential).

  Preparations completed.
  max(cpu_time)          :      0.172 s.
  Wall clock time (cpu1) :      0.640 s.
------------------------------------------------------------

------------------------------------------------------------
          Begin self-consistency loop: Initialization.

          Date     :  20150727, Time     :  114947.319
------------------------------------------------------------

  Initializing index lists of integration centers etc. from given atomic structure:
  | Number of centers in hartree potential         :        18
  | Number of centers in hartree multipole         :        18
  | Number of centers in electron density summation:        18
  | Number of centers in basis integrals           :        18
  | Number of centers in integrals                 :        18
  Partitioning the integration grid into batches with parallel hashing+maxmin method.
  | Number of batches:     2348
  | Maximal batch size:     200
  | Minimal batch size:      52
  | Average batch size:     100.533
  | Standard deviation of batch sizes:      31.223

  Integration load balanced across     8 MPI tasks.
  Work distribution over tasks is as follows:
  Task     0 has      29560 integration points.
  Task     1 has      29597 integration points.
  Task     2 has      29456 integration points.
  Task     3 has      29449 integration points.
  Task     4 has      29604 integration points.
  Task     5 has      29471 integration points.
  Task     6 has      29459 integration points.
  Task     7 has      29456 integration points.
  Initializing partition tables, free-atom densities, potentials, etc. across the integration grid (initialize_grid_storage).
  | Net number of integration points:   236052
  | of which are non-zero points    :   235494
  Obtaining max. number of non-zero basis functions in each batch (get_n_compute_maxes).
  | Maximal number of non-zero basis functions:      410 in task     0
  | Maximal number of non-zero basis functions:      411 in task     1
  | Maximal number of non-zero basis functions:      410 in task     2
  | Maximal number of non-zero basis functions:      410 in task     3
  | Maximal number of non-zero basis functions:      409 in task     4
  | Maximal number of non-zero basis functions:      410 in task     5
  | Maximal number of non-zero basis functions:      410 in task     6
  | Maximal number of non-zero basis functions:      410 in task     7
  Integrating Hamiltonian matrix: batch-based integration.
  Time summed over all CPUs for integration: real work       10.854 s, elapsed       11.039 s
  Integrating overlap matrix.
  Time summed over all CPUs for integration: real work        5.958 s, elapsed        6.065 s

  Updating Kohn-Sham eigenvalues, eigenvectors, occupation numbers, and Fermi level.
  Solving generalized eigenproblem
  Updating Kohn-Sham eigenvalues and eigenfunctions.
  Transforming overlap matrix and checking for singularities.
  Overlap matrix is nonsingular:
  | Lowest eigenvalue:  0.288068E-03
  Solving real generalised eigenvalue problem by standard LAPACK (fast)
  Determining occupation numbers for Kohn-Sham eigenstates.
  | Chemical potential (Fermi level) in eV                 : -.28567416E+01
  | Error in electron count due to remaining E_F inaccuracy: 0.00000000E+00
  | Maximum occupation number of highest empty state:  0.00E+00

  Writing Kohn-Sham eigenvalues.

  State    Occupation    Eigenvalue [Ha]    Eigenvalue [eV]
      1       2.00000         -19.064908         -518.78255
      2       2.00000         -19.052081         -518.43351
      3       2.00000         -19.050644         -518.39439
      4       2.00000         -19.045357         -518.25053
      5       2.00000         -19.032256         -517.89402
      6       2.00000         -19.019669         -517.55151
      7       2.00000          -1.122202          -30.53668
      8       2.00000          -1.101706          -29.97896
      9       2.00000          -1.099398          -29.91614
     10       2.00000          -1.088969          -29.63234
     11       2.00000          -1.063679          -28.94418
     12       2.00000          -1.043466          -28.39417
     13       2.00000          -0.653501          -17.78267
     14       2.00000          -0.648470          -17.64577
     15       2.00000          -0.632173          -17.20230
     16       2.00000          -0.607890          -16.54153
     17       2.00000          -0.603677          -16.42688
     18       2.00000          -0.597222          -16.25125
     19       2.00000          -0.529462          -14.40738
     20       2.00000          -0.524128          -14.26224
     21       2.00000          -0.510591          -13.89390
     22       2.00000          -0.506701          -13.78804
     23       2.00000          -0.486761          -13.24545
     24       2.00000          -0.479592          -13.05035
     25       2.00000          -0.441427          -12.01183
     26       2.00000          -0.440774          -11.99406
     27       2.00000          -0.438717          -11.93810
     28       2.00000          -0.437418          -11.90274
     29       2.00000          -0.424348          -11.54708
     30       2.00000          -0.402475          -10.95190
     31       0.00000          -0.097438           -2.65141
     32       0.00000          -0.067644           -1.84070
     33       0.00000          -0.061099           -1.66260
     34       0.00000          -0.040367           -1.09844
     35       0.00000          -0.037046           -1.00808
     36       0.00000          -0.034037           -0.92621
     37       0.00000          -0.001676           -0.04561
     38       0.00000           0.029090            0.79157
     39       0.00000           0.038734            1.05401
     40       0.00000           0.039680            1.07975
     41       0.00000           0.048630            1.32329
     42       0.00000           0.056562            1.53913
     43       0.00000           0.074977            2.04021
     44       0.00000           0.079555            2.16481
     45       0.00000           0.087713            2.38679
     46       0.00000           0.092456            2.51585
     47       0.00000           0.097623            2.65647
     48       0.00000           0.100669            2.73934
     49       0.00000           0.112940            3.07324
     50       0.00000           0.114011            3.10240
     51       0.00000           0.119204            3.24370
     52       0.00000           0.128386            3.49356
     53       0.00000           0.133328            3.62805
     54       0.00000           0.135677            3.69195
     55       0.00000           0.141811            3.85888
     56       0.00000           0.144740            3.93858
     57       0.00000           0.171248            4.65988
     58       0.00000           0.179411            4.88201
     59       0.00000           0.190405            5.18118
     60       0.00000           0.195486            5.31944
     61       0.00000           0.203775            5.54500
     62       0.00000           0.226355            6.15944
     63       0.00000           0.236187            6.42696
     64       0.00000           0.239289            6.51138
     65       0.00000           0.244904            6.66416
     66       0.00000           0.267073            7.26743
     67       0.00000           0.286925            7.80762
     68       0.00000           0.298063            8.11071
     69       0.00000           0.313259            8.52422
     70       0.00000           0.318135            8.65691
     71       0.00000           0.325477            8.85667
     72       0.00000           0.329559            8.96776
     73       0.00000           0.347299            9.45049
     74       0.00000           0.364325            9.91380
     75       0.00000           0.375901           10.22879
     76       0.00000           0.380652           10.35807
     77       0.00000           0.384540           10.46387
     78       0.00000           0.398190           10.83531
     79       0.00000           0.407391           11.08568
     80       0.00000           0.430073           11.70288
     81       0.00000           0.436106           11.86706
     82       0.00000           0.441791           12.02174
     83       0.00000           0.453745           12.34703
     84       0.00000           0.456307           12.41674
     85       0.00000           0.481167           13.09323
     86       0.00000           0.497198           13.52945
     87       0.00000           0.500797           13.62737
     88       0.00000           0.523112           14.23461
     89       0.00000           0.531576           14.46493
     90       0.00000           0.547041           14.88575
     91       0.00000           0.560252           15.24522
     92       0.00000           0.576883           15.69778
     93       0.00000           0.587243           15.97969
     94       0.00000           0.603888           16.43262
     95       0.00000           0.613993           16.70761
     96       0.00000           0.646607           17.59507
     97       0.00000           0.670678           18.25008
     98       0.00000           0.685409           18.65093
     99       0.00000           0.724342           19.71035
    100       0.00000           0.739058           20.11079
    101       0.00000           0.763295           20.77030
    102       0.00000           0.772734           21.02717

  Highest occupied state (VBM) at    -10.95190053 eV
  | Occupation number:      2.00000000

  Lowest unoccupied state (CBM) at    -2.65140977 eV
  | Occupation number:      0.00000000

  Overall HOMO-LUMO gap:      8.30049075 eV.
  Calculating total energy contributions from superposition of free atom densities.

  Total energy components:
  | Sum of eigenvalues            :        -260.29932196 Ha       -7083.10493504 eV
  | XC energy correction          :         -54.70360981 Ha       -1488.56096005 eV
  | XC potential correction       :          69.90678046 Ha        1902.26028229 eV
  | Free-atom electrostatic energy:        -214.60238377 Ha       -5839.62797939 eV
  | Hartree energy correction     :           0.00000000 Ha           0.00000000 eV
  | van der Waals energy corr.    :           0.00000000 Ha           0.00000000 eV
  | Entropy correction            :           0.00000000 Ha           0.00000000 eV
  | ---------------------------
  | Total energy                  :        -459.69853508 Ha      -12509.03359218 eV
  | Total energy, T -> 0          :        -459.69853508 Ha      -12509.03359218 eV  <-- do not rely on this value for anything but (periodic) metals
  | Electronic free energy        :        -459.69853508 Ha      -12509.03359218 eV

  Derived energy quantities:
  | Kinetic energy                :         455.02911899 Ha       12381.97231540 eV
  | Electrostatic energy          :        -860.02404426 Ha      -23402.44494754 eV
  | Energy correction for multipole
  | error in Hartree potential    :           0.00000000 Ha           0.00000000 eV
  | Sum of eigenvalues per atom                           :        -393.50582972 eV
  | Total energy (T->0) per atom                          :        -694.94631068 eV  <-- do not rely on this value for anything but (periodic) metals
  | Electronic free energy per atom                       :        -694.94631068 eV
  Initialize hartree_potential_storage
  Max. number of atoms included in rho_multipole:           18

  End scf initialization - timings             :  max(cpu_time)    wall_clock(cpu1)
  | Time for scf. initialization               :        2.895 s           2.895 s
  | Boundary condition initialization          :        0.000 s           0.001 s
  | Integration                                :        2.144 s           2.143 s
  | Solution of K.-S. eqns.                    :        0.298 s           0.301 s
  | Grid partitioning                          :        0.155 s           0.155 s
  | Preloading free-atom quantities on grid    :        0.014 s           0.014 s
  | Free-atom superposition energy             :        0.089 s           0.089 s
  | Total energy evaluation                    :        0.000 s           0.000 s
------------------------------------------------------------

------------------------------------------------------------
          Begin self-consistency iteration #    1

  Date     :  20150727, Time     :  114950.214
------------------------------------------------------------
  Evaluating new KS density.
  Integration grid: deviation in total charge (<rho> - N_e) =  -1.421085E-14
  Pulay mixing of updated and previous charge densities.

  Evaluating partitioned Hartree potential by multipole expansion.
  | Analytical far-field extrapolation by fixed multipoles:
  | Hartree multipole sum: apparent total charge =  -0.211017E-05
  Summing up the Hartree potential.
  Time summed over all CPUs for potential: real work        3.783 s, elapsed        3.804 s
  | RMS charge density error from multipole expansion :   0.179226E-02

  Integrating Hamiltonian matrix: batch-based integration.
  Time summed over all CPUs for integration: real work       10.833 s, elapsed       11.005 s

  Updating Kohn-Sham eigenvalues, eigenvectors, occupation numbers, and Fermi level.
  Solving generalized eigenproblem
  Updating Kohn-Sham eigenvalues and eigenfunctions.
  Solving real generalised eigenvalue problem by standard LAPACK (fast)
  Determining occupation numbers for Kohn-Sham eigenstates.
  | Chemical potential (Fermi level) in eV                 : -.35918820E+01
  | Error in electron count due to remaining E_F inaccuracy: 0.00000000E+00
  | Maximum occupation number of highest empty state:  0.00E+00

  Writing Kohn-Sham eigenvalues.

  State    Occupation    Eigenvalue [Ha]    Eigenvalue [eV]
      1       2.00000         -18.992458         -516.81109
      2       2.00000         -18.986345         -516.64473
      3       2.00000         -18.980108         -516.47502
      4       2.00000         -18.956832         -515.84165
      5       2.00000         -18.955593         -515.80794
      6       2.00000         -18.926651         -515.02038
      7       2.00000          -1.086867          -29.57516
      8       2.00000          -1.068868          -29.08537
      9       2.00000          -1.061194          -28.87657
     10       2.00000          -1.047925          -28.51548
     11       2.00000          -1.023241          -27.84381
     12       2.00000          -0.991006          -26.96666
     13       2.00000          -0.622700          -16.94452
     14       2.00000          -0.603443          -16.42053
     15       2.00000          -0.601978          -16.38066
     16       2.00000          -0.586213          -15.95166
     17       2.00000          -0.570949          -15.53631
     18       2.00000          -0.557551          -15.17172
     19       2.00000          -0.496343          -13.50619
     20       2.00000          -0.485425          -13.20910
     21       2.00000          -0.476903          -12.97718
     22       2.00000          -0.458281          -12.47046
     23       2.00000          -0.445789          -12.13053
     24       2.00000          -0.435560          -11.85219
     25       2.00000          -0.411131          -11.18744
     26       2.00000          -0.402047          -10.94024
     27       2.00000          -0.394870          -10.74495
     28       2.00000          -0.385981          -10.50307
     29       2.00000          -0.380851          -10.36348
     30       2.00000          -0.346998           -9.44231
     31       0.00000          -0.090294           -2.45704
     32       0.00000          -0.058828           -1.60080
     33       0.00000          -0.049674           -1.35171
     34       0.00000          -0.034518           -0.93927
     35       0.00000          -0.025246           -0.68697
     36       0.00000          -0.024385           -0.66355
     37       0.00000           0.004137            0.11257
     38       0.00000           0.037392            1.01749
     39       0.00000           0.046869            1.27537
     40       0.00000           0.049961            1.35952
     41       0.00000           0.060509            1.64654
     42       0.00000           0.065180            1.77363
     43       0.00000           0.088282            2.40229
     44       0.00000           0.090365            2.45895
     45       0.00000           0.098104            2.66956
     46       0.00000           0.103620            2.81965
     47       0.00000           0.107409            2.92274
     48       0.00000           0.116690            3.17530
     49       0.00000           0.123814            3.36916
     50       0.00000           0.125272            3.40881
     51       0.00000           0.130295            3.54551
     52       0.00000           0.141731            3.85670
     53       0.00000           0.144033            3.91933
     54       0.00000           0.153639            4.18074
     55       0.00000           0.154118            4.19376
     56       0.00000           0.157065            4.27396
     57       0.00000           0.182488            4.96576
     58       0.00000           0.189924            5.16810
     59       0.00000           0.205597            5.59457
     60       0.00000           0.207939            5.65830
     61       0.00000           0.217643            5.92237
     62       0.00000           0.233651            6.35797
     63       0.00000           0.244365            6.64952
     64       0.00000           0.254044            6.91289
     65       0.00000           0.256255            6.97304
     66       0.00000           0.277281            7.54521
     67       0.00000           0.299826            8.15868
     68       0.00000           0.308545            8.39594
     69       0.00000           0.323644            8.80680
     70       0.00000           0.326911            8.89570
     71       0.00000           0.336052            9.14443
     72       0.00000           0.340890            9.27608
     73       0.00000           0.358185            9.74670
     74       0.00000           0.377189           10.26382
     75       0.00000           0.382208           10.40042
     76       0.00000           0.393334           10.70317
     77       0.00000           0.395548           10.76341
     78       0.00000           0.407456           11.08745
     79       0.00000           0.417221           11.35315
     80       0.00000           0.443471           12.06746
     81       0.00000           0.447427           12.17511
     82       0.00000           0.453619           12.34360
     83       0.00000           0.462977           12.59826
     84       0.00000           0.464540           12.64078
     85       0.00000           0.492008           13.38823
     86       0.00000           0.508378           13.83368
     87       0.00000           0.513560           13.97468
     88       0.00000           0.535655           14.57592
     89       0.00000           0.546454           14.86978
     90       0.00000           0.560530           15.25279
     91       0.00000           0.577601           15.71732
     92       0.00000           0.590112           16.05777
     93       0.00000           0.601570           16.36954
     94       0.00000           0.617032           16.79029
     95       0.00000           0.630632           17.16037
     96       0.00000           0.659786           17.95369
     97       0.00000           0.685831           18.66241
     98       0.00000           0.697460           18.97886
     99       0.00000           0.739518           20.12330
    100       0.00000           0.752818           20.48522
    101       0.00000           0.779722           21.21732
    102       0.00000           0.785111           21.36397

  Highest occupied state (VBM) at     -9.44230958 eV
  | Occupation number:      2.00000000

  Lowest unoccupied state (CBM) at    -2.45703630 eV
  | Occupation number:      0.00000000

  Overall HOMO-LUMO gap:      6.98527329 eV.

  Total energy components:
  | Sum of eigenvalues            :        -257.48020327 Ha       -7006.39281231 eV
  | XC energy correction          :         -54.99056064 Ha       -1496.36928938 eV
  | XC potential correction       :          70.28185206 Ha        1912.46649986 eV
  | Free-atom electrostatic energy:        -214.60238377 Ha       -5839.62797939 eV
  | Hartree energy correction     :          -2.73271027 Ha         -74.36082981 eV
  | van der Waals energy corr.    :           0.00000000 Ha           0.00000000 eV
  | Entropy correction            :           0.00000000 Ha           0.00000000 eV
  | ---------------------------
  | Total energy                  :        -459.52400588 Ha      -12504.28441104 eV
  | Total energy, T -> 0          :        -459.52400588 Ha      -12504.28441104 eV  <-- do not rely on this value for anything but (periodic) metals
  | Electronic free energy        :        -459.52400588 Ha      -12504.28441104 eV

  Derived energy quantities:
  | Kinetic energy                :         456.73931310 Ha       12428.50906514 eV
  | Electrostatic energy          :        -861.27275835 Ha      -23436.42418681 eV
  | Energy correction for multipole
  | error in Hartree potential    :           0.00004401 Ha           0.00119744 eV
  | Sum of eigenvalues per atom                           :        -389.24404513 eV
  | Total energy (T->0) per atom                          :        -694.68246728 eV  <-- do not rely on this value for anything but (periodic) metals
  | Electronic free energy per atom                       :        -694.68246728 eV

  Self-consistency convergence accuracy:
  | Change of charge density      : 0.7216E+00
  | Change of sum of eigenvalues  : 0.7671E+02 eV
  | Change of total energy        : 0.4749E+01 eV

  End self-consistency iteration #     1       :  max(cpu_time)    wall_clock(cpu1)
  | Time for this iteration                    :        2.846 s           2.845 s
  | Charge density update                      :        0.899 s           0.899 s
  | Density mixing                             :        0.004 s           0.004 s
  | Hartree multipole update                   :        0.006 s           0.006 s
  | Hartree multipole summation                :        0.477 s           0.476 s
  | Integration                                :        1.378 s           1.378 s
  | Solution of K.-S. eqns.                    :        0.080 s           0.081 s
  | Total energy evaluation                    :        0.000 s           0.001 s
------------------------------------------------------------

------------------------------------------------------------
          Begin self-consistency iteration #    2

  Date     :  20150727, Time     :  114953.059
------------------------------------------------------------
  Evaluating new KS density.
  Integration grid: deviation in total charge (<rho> - N_e) =   3.552714E-14
  Pulay mixing of updated and previous charge densities.

  Evaluating partitioned Hartree potential by multipole expansion.
  | Analytical far-field extrapolation by fixed multipoles:
  | Hartree multipole sum: apparent total charge =  -0.595024E-05
  Summing up the Hartree potential.
  Time summed over all CPUs for potential: real work        3.783 s, elapsed        3.804 s
  | RMS charge density error from multipole expansion :   0.720587E-02

  Integrating Hamiltonian matrix: batch-based integration.
  Time summed over all CPUs for integration: real work       10.814 s, elapsed       11.014 s

  Updating Kohn-Sham eigenvalues, eigenvectors, occupation numbers, and Fermi level.
  Solving generalized eigenproblem
  Updating Kohn-Sham eigenvalues and eigenfunctions.
  Solving real generalised eigenvalue problem by standard LAPACK (fast)
  Determining occupation numbers for Kohn-Sham eigenstates.
  | Chemical potential (Fermi level) in eV                 : -.25365663E+01
  | Error in electron count due to remaining E_F inaccuracy: 0.00000000E+00
  | Maximum occupation number of highest empty state:  0.00E+00

  Highest occupied state (VBM) at     -5.78029845 eV
  | Occupation number:      2.00000000

  Lowest unoccupied state (CBM) at    -2.13342479 eV
  | Occupation number:      0.00000000

  Overall HOMO-LUMO gap:      3.64687366 eV.

  Total energy components:
  | Sum of eigenvalues            :        -250.73117881 Ha       -6822.74251275 eV
  | XC energy correction          :         -55.70564709 Ha       -1515.82778187 eV
  | XC potential correction       :          71.21561018 Ha        1937.87535110 eV
  | Free-atom electrostatic energy:        -214.60238377 Ha       -5839.62797939 eV
  | Hartree energy correction     :          -9.49413722 Ha        -258.34861848 eV
  | van der Waals energy corr.    :           0.00000000 Ha           0.00000000 eV
  | Entropy correction            :           0.00000000 Ha           0.00000000 eV
  | ---------------------------
  | Total energy                  :        -459.31773671 Ha      -12498.67154139 eV
  | Total energy, T -> 0          :        -459.31773671 Ha      -12498.67154139 eV  <-- do not rely on this value for anything but (periodic) metals
  | Electronic free energy        :        -459.31773671 Ha      -12498.67154139 eV

  Derived energy quantities:
  | Kinetic energy                :         460.21177746 Ha       12522.99962779 eV
  | Electrostatic energy          :        -863.82386708 Ha      -23505.84338731 eV
  | Energy correction for multipole
  | error in Hartree potential    :          -0.00084652 Ha          -0.02303503 eV
  | Sum of eigenvalues per atom                           :        -379.04125071 eV
  | Total energy (T->0) per atom                          :        -694.37064119 eV  <-- do not rely on this value for anything but (periodic) metals
  | Electronic free energy per atom                       :        -694.37064119 eV

  Self-consistency convergence accuracy:
  | Change of charge density      : 0.5463E+00
  | Change of sum of eigenvalues  : 0.1837E+03 eV
  | Change of total energy        : 0.5613E+01 eV

  End self-consistency iteration #     2       :  max(cpu_time)    wall_clock(cpu1)
  | Time for this iteration                    :        2.845 s           2.845 s
  | Charge density update                      :        0.894 s           0.894 s
  | Density mixing                             :        0.006 s           0.007 s
  | Hartree multipole update                   :        0.006 s           0.006 s
  | Hartree multipole summation                :        0.476 s           0.476 s
  | Integration                                :        1.379 s           1.379 s
  | Solution of K.-S. eqns.                    :        0.082 s           0.082 s
  | Total energy evaluation                    :        0.000 s           0.001 s
------------------------------------------------------------

------------------------------------------------------------
          Begin self-consistency iteration #    3

  Date     :  20150727, Time     :  114955.904
------------------------------------------------------------
  Evaluating new KS density.
  Integration grid: deviation in total charge (<rho> - N_e) =   2.131628E-14
  Pulay mixing of updated and previous charge densities.

  Evaluating partitioned Hartree potential by multipole expansion.
  | Analytical far-field extrapolation by fixed multipoles:
  | Hartree multipole sum: apparent total charge =  -0.509897E-05
  Summing up the Hartree potential.
  Time summed over all CPUs for potential: real work        3.783 s, elapsed        3.806 s
  | RMS charge density error from multipole expansion :   0.144595E-01

  Integrating Hamiltonian matrix: batch-based integration.
  Time summed over all CPUs for integration: real work       10.816 s, elapsed       11.008 s

  Updating Kohn-Sham eigenvalues, eigenvectors, occupation numbers, and Fermi level.
  Solving generalized eigenproblem
  Updating Kohn-Sham eigenvalues and eigenfunctions.
  Solving real generalised eigenvalue problem by standard LAPACK (fast)
  Determining occupation numbers for Kohn-Sham eigenstates.
  | Chemical potential (Fermi level) in eV                 : -.23493760E+01
  | Error in electron count due to remaining E_F inaccuracy: 0.00000000E+00
  | Maximum occupation number of highest empty state:  0.00E+00

  Highest occupied state (VBM) at     -5.45441333 eV
  | Occupation number:      2.00000000

  Lowest unoccupied state (CBM) at    -2.22866589 eV
  | Occupation number:      0.00000000

  Overall HOMO-LUMO gap:      3.22574743 eV.

  Total energy components:
  | Sum of eigenvalues            :        -250.83464886 Ha       -6825.55807600 eV
  | XC energy correction          :         -55.68550597 Ha       -1515.27971409 eV
  | XC potential correction       :          71.18284978 Ha        1936.98389505 eV
  | Free-atom electrostatic energy:        -214.60238377 Ha       -5839.62797939 eV
  | Hartree energy correction     :          -9.36921817 Ha        -254.94939809 eV
  | van der Waals energy corr.    :           0.00000000 Ha           0.00000000 eV
  | Entropy correction            :           0.00000000 Ha           0.00000000 eV
  | ---------------------------
  | Total energy                  :        -459.30890700 Ha      -12498.43127252 eV
  | Total energy, T -> 0          :        -459.30890700 Ha      -12498.43127252 eV  <-- do not rely on this value for anything but (periodic) metals
  | Electronic free energy        :        -459.30890700 Ha      -12498.43127252 eV

  Derived energy quantities:
  | Kinetic energy                :         457.83782081 Ha       12458.40098084 eV
  | Electrostatic energy          :        -861.46122184 Ha      -23441.55253927 eV
  | Energy correction for multipole
  | error in Hartree potential    :          -0.00626785 Ha          -0.17055679 eV
  | Sum of eigenvalues per atom                           :        -379.19767089 eV
  | Total energy (T->0) per atom                          :        -694.35729292 eV  <-- do not rely on this value for anything but (periodic) metals
  | Electronic free energy per atom                       :        -694.35729292 eV

  Self-consistency convergence accuracy:
  | Change of charge density      : 0.2712E+00
  | Change of sum of eigenvalues  : -.2816E+01 eV
  | Change of total energy        : 0.2403E+00 eV

  End self-consistency iteration #     3       :  max(cpu_time)    wall_clock(cpu1)
  | Time for this iteration                    :        2.842 s           2.841 s
  | Charge density update                      :        0.890 s           0.890 s
  | Density mixing                             :        0.008 s           0.008 s
  | Hartree multipole update                   :        0.006 s           0.006 s
  | Hartree multipole summation                :        0.477 s           0.477 s
  | Integration                                :        1.379 s           1.378 s
  | Solution of K.-S. eqns.                    :        0.081 s           0.082 s
  | Total energy evaluation                    :        0.001 s           0.000 s
------------------------------------------------------------

------------------------------------------------------------
          Begin self-consistency iteration #    4

  Date     :  20150727, Time     :  114958.745
------------------------------------------------------------
  Evaluating new KS density.
  Integration grid: deviation in total charge (<rho> - N_e) =   7.105427E-15
  Pulay mixing of updated and previous charge densities.

  Evaluating partitioned Hartree potential by multipole expansion.
  | Analytical far-field extrapolation by fixed multipoles:
  | Hartree multipole sum: apparent total charge =  -0.589512E-05
  Summing up the Hartree potential.
  Time summed over all CPUs for potential: real work        3.782 s, elapsed        3.803 s
  | RMS charge density error from multipole expansion :   0.186525E-01

  Integrating Hamiltonian matrix: batch-based integration.
  Time summed over all CPUs for integration: real work       10.827 s, elapsed       11.001 s

  Updating Kohn-Sham eigenvalues, eigenvectors, occupation numbers, and Fermi level.
  Solving generalized eigenproblem
  Updating Kohn-Sham eigenvalues and eigenfunctions.
  Solving real generalised eigenvalue problem by standard LAPACK (fast)
  Determining occupation numbers for Kohn-Sham eigenstates.
  | Chemical potential (Fermi level) in eV                 : -.28752897E+01
  | Error in electron count due to remaining E_F inaccuracy: 0.00000000E+00
  | Maximum occupation number of highest empty state:  0.00E+00

  Highest occupied state (VBM) at     -4.20053455 eV
  | Occupation number:      2.00000000

  Lowest unoccupied state (CBM) at    -2.18706204 eV
  | Occupation number:      0.00000000

  Overall HOMO-LUMO gap:      2.01347251 eV.

  Total energy components:
  | Sum of eigenvalues            :        -248.84101971 Ha       -6771.30866682 eV
  | XC energy correction          :         -55.91640177 Ha       -1521.56270842 eV
  | XC potential correction       :          71.48296051 Ha        1945.15032358 eV
  | Free-atom electrostatic energy:        -214.60238377 Ha       -5839.62797939 eV
  | Hartree energy correction     :         -11.41894158 Ha        -310.72520986 eV
  | van der Waals energy corr.    :           0.00000000 Ha           0.00000000 eV
  | Entropy correction            :           0.00000000 Ha           0.00000000 eV
  | ---------------------------
  | Total energy                  :        -459.29578633 Ha      -12498.07424092 eV
  | Total energy, T -> 0          :        -459.29578633 Ha      -12498.07424092 eV  <-- do not rely on this value for anything but (periodic) metals
  | Electronic free energy        :        -459.29578633 Ha      -12498.07424092 eV

  Derived energy quantities:
  | Kinetic energy                :         458.01940508 Ha       12463.34214013 eV
  | Electrostatic energy          :        -861.39878964 Ha      -23439.85367263 eV
  | Energy correction for multipole
  | error in Hartree potential    :          -0.00854285 Ha          -0.23246273 eV
  | Sum of eigenvalues per atom                           :        -376.18381482 eV
  | Total energy (T->0) per atom                          :        -694.33745783 eV  <-- do not rely on this value for anything but (periodic) metals
  | Electronic free energy per atom                       :        -694.33745783 eV

  Self-consistency convergence accuracy:
  | Change of charge density      : 0.1452E+00
  | Change of sum of eigenvalues  : 0.5425E+02 eV
  | Change of total energy        : 0.3570E+00 eV

  End self-consistency iteration #     4       :  max(cpu_time)    wall_clock(cpu1)
  | Time for this iteration                    :        2.843 s           2.843 s
  | Charge density update                      :        0.891 s           0.890 s
  | Density mixing                             :        0.010 s           0.010 s
  | Hartree multipole update                   :        0.006 s           0.006 s
  | Hartree multipole summation                :        0.476 s           0.476 s
  | Integration                                :        1.378 s           1.378 s
  | Solution of K.-S. eqns.                    :        0.081 s           0.081 s
  | Total energy evaluation                    :        0.000 s           0.000 s
------------------------------------------------------------

------------------------------------------------------------
          Begin self-consistency iteration #    5

  Date     :  20150727, Time     :  115001.588
------------------------------------------------------------
  Evaluating new KS density.
  Integration grid: deviation in total charge (<rho> - N_e) =   2.842171E-14
  Pulay mixing of updated and previous charge densities.

  Evaluating partitioned Hartree potential by multipole expansion.
  | Analytical far-field extrapolation by fixed multipoles:
  | Hartree multipole sum: apparent total charge =  -0.579234E-05
  Summing up the Hartree potential.
  Time summed over all CPUs for potential: real work        3.782 s, elapsed        3.803 s
  | RMS charge density error from multipole expansion :   0.193774E-01

  Integrating Hamiltonian matrix: batch-based integration.
  Time summed over all CPUs for integration: real work       10.819 s, elapsed       11.021 s

  Updating Kohn-Sham eigenvalues, eigenvectors, occupation numbers, and Fermi level.
  Solving generalized eigenproblem
  Updating Kohn-Sham eigenvalues and eigenfunctions.
  Solving real generalised eigenvalue problem by standard LAPACK (fast)
  Determining occupation numbers for Kohn-Sham eigenstates.
  | Chemical potential (Fermi level) in eV                 : -.28382701E+01
  | Error in electron count due to remaining E_F inaccuracy: 0.00000000E+00
  | Maximum occupation number of highest empty state:  0.00E+00

  Highest occupied state (VBM) at     -4.01070371 eV
  | Occupation number:      2.00000000

  Lowest unoccupied state (CBM) at    -2.16979576 eV
  | Occupation number:      0.00000000

  Overall HOMO-LUMO gap:      1.84090795 eV.

  Total energy components:
  | Sum of eigenvalues            :        -248.69485370 Ha       -6767.33128731 eV
  | XC energy correction          :         -55.93840307 Ha       -1522.16139416 eV
  | XC potential correction       :          71.51097675 Ha        1945.91268439 eV
  | Free-atom electrostatic energy:        -214.60238377 Ha       -5839.62797939 eV
  | Hartree energy correction     :         -11.57089351 Ha        -314.86003225 eV
  | van der Waals energy corr.    :           0.00000000 Ha           0.00000000 eV
  | Entropy correction            :           0.00000000 Ha           0.00000000 eV
  | ---------------------------
  | Total energy                  :        -459.29555730 Ha      -12498.06800872 eV
  | Total energy, T -> 0          :        -459.29555730 Ha      -12498.06800872 eV  <-- do not rely on this value for anything but (periodic) metals
  | Electronic free energy        :        -459.29555730 Ha      -12498.06800872 eV

  Derived energy quantities:
  | Kinetic energy                :         458.05146565 Ha       12464.21455257 eV
  | Electrostatic energy          :        -861.40861988 Ha      -23440.12116713 eV
  | Energy correction for multipole
  | error in Hartree potential    :          -0.00886994 Ha          -0.24136347 eV
  | Sum of eigenvalues per atom                           :        -375.96284929 eV
  | Total energy (T->0) per atom                          :        -694.33711160 eV  <-- do not rely on this value for anything but (periodic) metals
  | Electronic free energy per atom                       :        -694.33711160 eV

  Self-consistency convergence accuracy:
  | Change of charge density      : 0.3502E-01
  | Change of sum of eigenvalues  : 0.3977E+01 eV
  | Change of total energy        : 0.6232E-02 eV

  End self-consistency iteration #     5       :  max(cpu_time)    wall_clock(cpu1)
  | Time for this iteration                    :        2.860 s           2.859 s
  | Charge density update                      :        0.905 s           0.905 s
  | Density mixing                             :        0.011 s           0.011 s
  | Hartree multipole update                   :        0.006 s           0.007 s
  | Hartree multipole summation                :        0.476 s           0.476 s
  | Integration                                :        1.380 s           1.380 s
  | Solution of K.-S. eqns.                    :        0.080 s           0.080 s
  | Total energy evaluation                    :        0.001 s           0.000 s
------------------------------------------------------------

------------------------------------------------------------
          Begin self-consistency iteration #    6

  Date     :  20150727, Time     :  115004.447
------------------------------------------------------------
  Evaluating new KS density.
  Integration grid: deviation in total charge (<rho> - N_e) =   2.131628E-14
  Pulay mixing of updated and previous charge densities.

  Evaluating partitioned Hartree potential by multipole expansion.
  | Analytical far-field extrapolation by fixed multipoles:
  | Hartree multipole sum: apparent total charge =  -0.575822E-05
  Summing up the Hartree potential.
  Time summed over all CPUs for potential: real work        3.782 s, elapsed        3.803 s
  | RMS charge density error from multipole expansion :   0.195494E-01

  Integrating Hamiltonian matrix: batch-based integration.
  Time summed over all CPUs for integration: real work       10.823 s, elapsed       11.026 s

  Updating Kohn-Sham eigenvalues, eigenvectors, occupation numbers, and Fermi level.
  Solving generalized eigenproblem
  Updating Kohn-Sham eigenvalues and eigenfunctions.
  Solving real generalised eigenvalue problem by standard LAPACK (fast)
  Determining occupation numbers for Kohn-Sham eigenstates.
  | Chemical potential (Fermi level) in eV                 : -.28333323E+01
  | Error in electron count due to remaining E_F inaccuracy: 0.00000000E+00
  | Maximum occupation number of highest empty state:  0.00E+00

  Highest occupied state (VBM) at     -4.00122203 eV
  | Occupation number:      2.00000000

  Lowest unoccupied state (CBM) at    -2.16666931 eV
  | Occupation number:      0.00000000

  Overall HOMO-LUMO gap:      1.83455272 eV.

  Total energy components:
  | Sum of eigenvalues            :        -248.67276367 Ha       -6766.73018684 eV
  | XC energy correction          :         -55.94221432 Ha       -1522.26510351 eV
  | XC potential correction       :          71.51576007 Ha        1946.04284499 eV
  | Free-atom electrostatic energy:        -214.60238377 Ha       -5839.62797939 eV
  | Hartree energy correction     :         -11.59398815 Ha        -315.48846942 eV
  | van der Waals energy corr.    :           0.00000000 Ha           0.00000000 eV
  | Entropy correction            :           0.00000000 Ha           0.00000000 eV
  | ---------------------------
  | Total energy                  :        -459.29558984 Ha      -12498.06889418 eV
  | Total energy, T -> 0          :        -459.29558984 Ha      -12498.06889418 eV  <-- do not rely on this value for anything but (periodic) metals
  | Electronic free energy        :        -459.29558984 Ha      -12498.06889418 eV

  Derived energy quantities:
  | Kinetic energy                :         458.05498466 Ha       12464.31030976 eV
  | Electrostatic energy          :        -861.40836018 Ha      -23440.11410042 eV
  | Energy correction for multipole
  | error in Hartree potential    :          -0.00894554 Ha          -0.24342064 eV
  | Sum of eigenvalues per atom                           :        -375.92945482 eV
  | Total energy (T->0) per atom                          :        -694.33716079 eV  <-- do not rely on this value for anything but (periodic) metals
  | Electronic free energy per atom                       :        -694.33716079 eV

  Self-consistency convergence accuracy:
  | Change of charge density      : 0.1259E-01
  | Change of sum of eigenvalues  : 0.6011E+00 eV
  | Change of total energy        : -.8855E-03 eV

  End self-consistency iteration #     6       :  max(cpu_time)    wall_clock(cpu1)
  | Time for this iteration                    :        2.850 s           2.849 s
  | Charge density update                      :        0.892 s           0.892 s
  | Density mixing                             :        0.013 s           0.013 s
  | Hartree multipole update                   :        0.006 s           0.006 s
  | Hartree multipole summation                :        0.477 s           0.476 s
  | Integration                                :        1.380 s           1.381 s
  | Solution of K.-S. eqns.                    :        0.081 s           0.080 s
  | Total energy evaluation                    :        0.000 s           0.001 s
------------------------------------------------------------

------------------------------------------------------------
          Begin self-consistency iteration #    7

  Date     :  20150727, Time     :  115007.297
------------------------------------------------------------
  Evaluating new KS density.
  Integration grid: deviation in total charge (<rho> - N_e) =  -2.131628E-14
  Pulay mixing of updated and previous charge densities.

  Evaluating partitioned Hartree potential by multipole expansion.
  | Analytical far-field extrapolation by fixed multipoles:
  | Hartree multipole sum: apparent total charge =  -0.546131E-05
  Summing up the Hartree potential.
  Time summed over all CPUs for potential: real work        3.782 s, elapsed        3.803 s
  | RMS charge density error from multipole expansion :   0.195653E-01

  Integrating Hamiltonian matrix: batch-based integration.
  Time summed over all CPUs for integration: real work       10.826 s, elapsed       11.013 s

  Updating Kohn-Sham eigenvalues, eigenvectors, occupation numbers, and Fermi level.
  Solving generalized eigenproblem
  Updating Kohn-Sham eigenvalues and eigenfunctions.
  Solving real generalised eigenvalue problem by standard LAPACK (fast)
  Determining occupation numbers for Kohn-Sham eigenstates.
  | Chemical potential (Fermi level) in eV                 : -.28772866E+01
  | Error in electron count due to remaining E_F inaccuracy: 0.00000000E+00
  | Maximum occupation number of highest empty state:  0.00E+00

  Highest occupied state (VBM) at     -4.15877531 eV
  | Occupation number:      2.00000000

  Lowest unoccupied state (CBM) at    -2.16500165 eV
  | Occupation number:      0.00000000

  Overall HOMO-LUMO gap:      1.99377366 eV.

  Total energy components:
  | Sum of eigenvalues            :        -248.85313249 Ha       -6771.63827222 eV
  | XC energy correction          :         -55.92582983 Ha       -1521.81925907 eV
  | XC potential correction       :          71.49367170 Ha        1945.44178997 eV
  | Free-atom electrostatic energy:        -214.60238377 Ha       -5839.62797939 eV
  | Hartree energy correction     :         -11.40779249 Ha        -310.42182786 eV
  | van der Waals energy corr.    :           0.00000000 Ha           0.00000000 eV
  | Entropy correction            :           0.00000000 Ha           0.00000000 eV
  | ---------------------------
  | Total energy                  :        -459.29546689 Ha      -12498.06554858 eV
  | Total energy, T -> 0          :        -459.29546689 Ha      -12498.06554858 eV  <-- do not rely on this value for anything but (periodic) metals
  | Electronic free energy        :        -459.29546689 Ha      -12498.06554858 eV

  Derived energy quantities:
  | Kinetic energy                :         458.12430041 Ha       12466.19648717 eV
  | Electrostatic energy          :        -861.49393746 Ha      -23442.44277667 eV
  | Energy correction for multipole
  | error in Hartree potential    :          -0.00880947 Ha          -0.23971789 eV
  | Sum of eigenvalues per atom                           :        -376.20212623 eV
  | Total energy (T->0) per atom                          :        -694.33697492 eV  <-- do not rely on this value for anything but (periodic) metals
  | Electronic free energy per atom                       :        -694.33697492 eV

  Self-consistency convergence accuracy:
  | Change of charge density      : 0.1169E-01
  | Change of sum of eigenvalues  : -.4908E+01 eV
  | Change of total energy        : 0.3346E-02 eV

  End self-consistency iteration #     7       :  max(cpu_time)    wall_clock(cpu1)
  | Time for this iteration                    :        2.852 s           2.852 s
  | Charge density update                      :        0.893 s           0.893 s
  | Density mixing                             :        0.015 s           0.014 s
  | Hartree multipole update                   :        0.006 s           0.006 s
  | Hartree multipole summation                :        0.477 s           0.477 s
  | Integration                                :        1.379 s           1.378 s
  | Solution of K.-S. eqns.                    :        0.081 s           0.082 s
  | Total energy evaluation                    :        0.001 s           0.000 s
------------------------------------------------------------

------------------------------------------------------------
          Begin self-consistency iteration #    8

  Date     :  20150727, Time     :  115010.149
------------------------------------------------------------
  Evaluating new KS density.
  Integration grid: deviation in total charge (<rho> - N_e) =   1.421085E-14
  Pulay mixing of updated and previous charge densities.

  Evaluating partitioned Hartree potential by multipole expansion.
  | Analytical far-field extrapolation by fixed multipoles:
  | Hartree multipole sum: apparent total charge =  -0.545719E-05
  Summing up the Hartree potential.
  Time summed over all CPUs for potential: real work        3.783 s, elapsed        3.805 s
  | RMS charge density error from multipole expansion :   0.196313E-01

  Integrating Hamiltonian matrix: batch-based integration.
  Time summed over all CPUs for integration: real work       10.825 s, elapsed       11.018 s

  Updating Kohn-Sham eigenvalues, eigenvectors, occupation numbers, and Fermi level.
  Solving generalized eigenproblem
  Updating Kohn-Sham eigenvalues and eigenfunctions.
  Solving real generalised eigenvalue problem by standard LAPACK (fast)
  Determining occupation numbers for Kohn-Sham eigenstates.
  | Chemical potential (Fermi level) in eV                 : -.28723461E+01
  | Error in electron count due to remaining E_F inaccuracy: 0.00000000E+00
  | Maximum occupation number of highest empty state:  0.00E+00

  Highest occupied state (VBM) at     -4.12893730 eV
  | Occupation number:      2.00000000

  Lowest unoccupied state (CBM) at    -2.16620779 eV
  | Occupation number:      0.00000000

  Overall HOMO-LUMO gap:      1.96272950 eV.

  Total energy components:
  | Sum of eigenvalues            :        -248.82687336 Ha       -6770.92372501 eV
  | XC energy correction          :         -55.92875585 Ha       -1521.89888011 eV
  | XC potential correction       :          71.49746486 Ha        1945.54500717 eV
  | Free-atom electrostatic energy:        -214.60238377 Ha       -5839.62797939 eV
  | Hartree energy correction     :         -11.43491865 Ha        -311.15996808 eV
  | van der Waals energy corr.    :           0.00000000 Ha           0.00000000 eV
  | Entropy correction            :           0.00000000 Ha           0.00000000 eV
  | ---------------------------
  | Total energy                  :        -459.29546677 Ha      -12498.06554542 eV
  | Total energy, T -> 0          :        -459.29546677 Ha      -12498.06554542 eV  <-- do not rely on this value for anything but (periodic) metals
  | Electronic free energy        :        -459.29546677 Ha      -12498.06554542 eV

  Derived energy quantities:
  | Kinetic energy                :         458.12690584 Ha       12466.26738454 eV
  | Electrostatic energy          :        -861.49361676 Ha      -23442.43404985 eV
  | Energy correction for multipole
  | error in Hartree potential    :          -0.00886126 Ha          -0.24112715 eV
  | Sum of eigenvalues per atom                           :        -376.16242917 eV
  | Total energy (T->0) per atom                          :        -694.33697475 eV  <-- do not rely on this value for anything but (periodic) metals
  | Electronic free energy per atom                       :        -694.33697475 eV

  Self-consistency convergence accuracy:
  | Change of charge density      : 0.2430E-02
  | Change of sum of eigenvalues  : 0.7145E+00 eV
  | Change of total energy        : 0.3153E-05 eV

  End self-consistency iteration #     8       :  max(cpu_time)    wall_clock(cpu1)
  | Time for this iteration                    :        2.856 s           2.855 s
  | Charge density update                      :        0.894 s           0.894 s
  | Density mixing                             :        0.017 s           0.016 s
  | Hartree multipole update                   :        0.006 s           0.006 s
  | Hartree multipole summation                :        0.476 s           0.477 s
  | Integration                                :        1.380 s           1.379 s
  | Solution of K.-S. eqns.                    :        0.082 s           0.083 s
  | Total energy evaluation                    :        0.000 s           0.000 s
------------------------------------------------------------

------------------------------------------------------------
          Begin self-consistency iteration #    9

  Date     :  20150727, Time     :  115013.004
------------------------------------------------------------
  Evaluating new KS density.
  Integration grid: deviation in total charge (<rho> - N_e) =   0.000000E+00
  Pulay mixing of updated and previous charge densities.

[...]
   Pulay + GGA                   : 0.128040E+02 0.501956E+01 -.851886E+00
   Van der Waals               : 0.160604E-02 -.654027E-02 0.274926E-02
   ----------------------------------------------------------------
   Total forces(  13)            : 0.134441E+01 0.160539E+01 -.589052E+00
  atom #   14
   Hellmann-Feynman + Multipole  : -.480054E+00 -.999347E-01 -.953492E-02
   Pulay + GGA                   : 0.115114E+00 -.459346E-01 0.262528E-01
   Van der Waals               : -.252021E-02 -.725877E-02 0.228890E-02
   ----------------------------------------------------------------
   Total forces(  14)            : -.367460E+00 -.153128E+00 0.190068E-01
  atom #   15
   Hellmann-Feynman + Multipole  : -.762550E+00 -.140733E+01 0.678863E+00
   Pulay + GGA                   : 0.389544E-01 0.963833E-01 -.590599E-01
   Van der Waals               : 0.435555E-03 -.718436E-03 -.495000E-03
   ----------------------------------------------------------------
   Total forces(  15)            : -.723160E+00 -.131166E+01 0.619308E+00
  atom #   16
   Hellmann-Feynman + Multipole  : -.169944E+01 -.128814E+02 -.453498E+00
   Pulay + GGA                   : 0.235994E+01 0.134866E+02 -.109536E+01
   Van der Waals               : 0.724996E-03 -.679113E-02 -.389735E-02
   ----------------------------------------------------------------
   Total forces(  16)            : 0.661225E+00 0.598370E+00 -.155276E+01
  atom #   17
   Hellmann-Feynman + Multipole  : -.293996E+00 0.431152E+00 0.349015E+00
   Pulay + GGA                   : -.755241E-01 0.883598E-01 0.704231E-01
   Van der Waals               : 0.403258E-02 -.268598E-02 -.293379E-02
   ----------------------------------------------------------------
   Total forces(  17)            : -.365488E+00 0.516826E+00 0.416505E+00
  atom #   18
   Hellmann-Feynman + Multipole  : -.785570E+00 -.842867E+00 0.113995E+01
   Pulay + GGA                   : 0.266244E-01 0.708970E-01 -.664960E-01
   Van der Waals               : -.416706E-02 -.167328E-02 0.112795E-02
   ----------------------------------------------------------------
   Total forces(  18)            : -.763113E+00 -.773643E+00 0.107458E+01
  Timings for vdw_correction_hirshfeld (Tkatchenko-Scheffler 2009):
  | CPU time:        7.604 s, Wall clock time:        7.604 s.
  Removing unitary transformations (pure translations, rotations) from forces on atoms.
  Atomic forces before filtering:
  | Net force on center of mass :  0.147125E-01 0.208314E-02 0.878565E-02 eV/A
  | Net torque on center of mass:  -.197845E-01 -.660901E-02 -.836713E-02 eV
  Atomic forces after filtering:
  | Net force on center of mass :  0.624421E-15 -.169486E-14 -.356812E-15 eV/A
  | Net torque on center of mass:  -.755268E-15 0.113290E-14 0.000000E+00 eV
 
  Energy and forces in a compact form:
  | Total energy uncorrected      :         -0.124981638390907E+05 eV
  | Total energy corrected        :         -0.124981638390907E+05 eV  <-- do not rely on this value for anything but (periodic) metals
  | Electronic free energy        :         -0.124981638390907E+05 eV
  Total atomic forces (unitary forces cleaned) [eV/Ang]:
  |   1          0.942265415244312E+00          0.272767240066468E+01         -0.179433104198162E+01
  |   2          0.182436172765377E+01         -0.291272729820525E+01          0.120151063676519E+01
  |   3         -0.205902561080727E+01         -0.515839446354916E+00         -0.110954808215021E+00
  |   4         -0.754383872667003E+00         -0.211010138048803E+01         -0.568889868129356E+00
  |   5         -0.202794263564042E+00          0.934531254837019E+00          0.109789899301445E+01
  |   6          0.645221246693168E+00          0.734219286251402E+00          0.199246060640008E+00
  |   7         -0.475969041506016E-01          0.666581327974057E+00          0.216627682748500E+01
  |   8         -0.302445550682242E+00         -0.340558284656275E+00         -0.179135467709057E+00
  |   9         -0.307302815109277E+00          0.329566329315693E+00         -0.238972031925901E+01
  |  10         -0.308680584002010E+00          0.104483221033384E+01          0.227571110093931E+01
  |  11         -0.302455949203766E+00          0.221945402730477E+00         -0.222532511159971E+01
  |  12          0.109266842239924E+01         -0.126129921577987E+01          0.340966629838100E+00
  |  13          0.134328513324602E+01          0.160548167574412E+01         -0.589242689751568E+00
  |  14         -0.368516041899572E+00         -0.152994405318624E+00          0.186836418039774E-01
  |  15         -0.724426379464666E+00         -0.131146565301191E+01          0.619235096186091E+00
  |  16          0.660346586198730E+00          0.597887373382728E+00         -0.155290792127537E+01
  |  17         -0.366409998354074E+00          0.516208396025185E+00          0.416506544212121E+00
  |  18         -0.764110561530722E+00         -0.773939973444336E+00          0.107447169703648E+01
 
  ------------------------------------ 
  Start decomposition of the XC Energy 
  ------------------------------------ 
  Hartree-Fock part   :          0.000000000 Ha              0.000000000 eV
  ------------------------------------ 
  X Energy            :        -53.957975277 Ha          -1468.271212105 eV
  C Energy GGA        :         -1.969935556 Ha            -53.604673847 eV
  Total XC Energy     :        -55.927910833 Ha          -1521.875885951 eV
  LDA X and C from self-consistent density 
  X Energy LDA        :        -48.643223203 Ha          -1323.649449889 eV
  C Energy LDA        :         -3.962441629 Ha           -107.823522729 eV
  ------------------------------------ 
  End decomposition of the XC Energy 
  ------------------------------------ 
  Performing Hirshfeld analysis of fragment charges and moments.
  ----------------------------------------------------------------------
  | Atom     1: O
  |   Hirshfeld charge        :     -0.34717428
  |   Free atom volume        :     23.95238533
  |   Hirshfeld volume        :     23.77584370
  |   Hirshfeld dipole vector :      0.00784468       0.05566495       0.03366193
  |   Hirshfeld dipole moment :      0.06552290
  |   Hirshfeld second moments:      0.02643701      -0.01166064       0.01730126
  |                                 -0.01166064      -0.05336690      -0.03089927
  |                                  0.01730126      -0.03089927      -0.08198012
  ----------------------------------------------------------------------
  | Atom     2: H
  |   Hirshfeld charge        :      0.06371959
  |   Free atom volume        :     10.44207651
  |   Hirshfeld volume        :      8.46471351
  |   Hirshfeld dipole vector :     -0.02586244       0.03653743      -0.00572630
  |   Hirshfeld dipole moment :      0.04512915
  |   Hirshfeld second moments:      0.07007361       0.03150761       0.00202933
  |                                  0.03150761       0.02540934       0.00774325
  |                                  0.00202933       0.00774325       0.06042379
  ----------------------------------------------------------------------
  | Atom     3: H
  |   Hirshfeld charge        :      0.09056699
  |   Free atom volume        :     10.44207651
  |   Hirshfeld volume        :      7.70180851
  |   Hirshfeld dipole vector :      0.10855673       0.02848737       0.02318244
  |   Hirshfeld dipole moment :      0.11460157
  |   Hirshfeld second moments:      0.09074896      -0.01029960       0.00130309
  |                                 -0.01029960       0.08214368      -0.01052670
  |                                  0.00130309      -0.01052670       0.06183781
  ----------------------------------------------------------------------
  | Atom     4: O
  |   Hirshfeld charge        :     -0.31625120
  |   Free atom volume        :     23.95238533
  |   Hirshfeld volume        :     22.57715908
  |   Hirshfeld dipole vector :     -0.03114893       0.02734284       0.01636375
  |   Hirshfeld dipole moment :      0.04456073
  |   Hirshfeld second moments:      0.01221484       0.05479269      -0.01108468
  |                                  0.05479269       0.00453349       0.01702991
  |                                 -0.01108468       0.01702991      -0.01475580
  ----------------------------------------------------------------------
  | Atom     5: H
  |   Hirshfeld charge        :      0.06843149
  |   Free atom volume        :     10.44207651
  |   Hirshfeld volume        :      8.29177287
  |   Hirshfeld dipole vector :      0.01092112       0.03897013       0.02970665
  |   Hirshfeld dipole moment :      0.05020386
  |   Hirshfeld second moments:      0.07653404      -0.00112074      -0.01175685
  |                                 -0.00112074       0.03011807      -0.01934804
  |                                 -0.01175685      -0.01934804       0.06598593
  ----------------------------------------------------------------------
  | Atom     6: H
  |   Hirshfeld charge        :      0.11892678
  |   Free atom volume        :     10.44207651
  |   Hirshfeld volume        :      7.01741119
  |   Hirshfeld dipole vector :     -0.10175372      -0.05909656       0.02012099
  |   Hirshfeld dipole moment :      0.11937788
  |   Hirshfeld second moments:      0.08935667       0.01450263      -0.00012935
  |                                  0.01450263       0.10342883       0.01220472
  |                                 -0.00012935       0.01220472       0.09446106
  ----------------------------------------------------------------------
  | Atom     7: O
  |   Hirshfeld charge        :     -0.19683241
  |   Free atom volume        :     23.95238533
  |   Hirshfeld volume        :     20.41077024
  |   Hirshfeld dipole vector :      0.02734336      -0.01322371      -0.01275576
  |   Hirshfeld dipole moment :      0.03294291
  |   Hirshfeld second moments:      0.03680134       0.01298709       0.02637924
  |                                  0.01298709       0.07765830       0.00505799
  |                                  0.02637924       0.00505799       0.10168305
  ----------------------------------------------------------------------
  | Atom     8: H
  |   Hirshfeld charge        :      0.11713839
  |   Free atom volume        :     10.44207651
  |   Hirshfeld volume        :      7.16343120
  |   Hirshfeld dipole vector :      0.02837038       0.04143185       0.01174104
  |   Hirshfeld dipole moment :      0.05156868
  |   Hirshfeld second moments:      0.08563006      -0.02069607      -0.00629880
  |                                 -0.02069607       0.07412648      -0.02671797
  |                                 -0.00629880      -0.02671797       0.10528926
  ----------------------------------------------------------------------
  | Atom     9: H
  |   Hirshfeld charge        :      0.16174920
  |   Free atom volume        :     10.44207651
  |   Hirshfeld volume        :      5.96279144
  |   Hirshfeld dipole vector :     -0.01912971       0.00876538      -0.11882234
  |   Hirshfeld dipole moment :      0.12067115
  |   Hirshfeld second moments:      0.11919337       0.00963375       0.00798676
  |                                  0.00963375       0.13316243       0.00220376
  |                                  0.00798676       0.00220376       0.12380243
  ----------------------------------------------------------------------
  | Atom    10: O
  |   Hirshfeld charge        :     -0.26644365
  |   Free atom volume        :     23.95238533
  |   Hirshfeld volume        :     21.65187406
  |   Hirshfeld dipole vector :     -0.04783472      -0.02350586       0.01089238
  |   Hirshfeld dipole moment :      0.05439972
  |   Hirshfeld second moments:     -0.00749825      -0.02660606       0.02564761
  |                                 -0.02660606       0.02567982      -0.00402379
  |                                  0.02564761      -0.00402379       0.06304776
  ----------------------------------------------------------------------
  | Atom    11: H
  |   Hirshfeld charge        :      0.13969541
  |   Free atom volume        :     10.44207651
  |   Hirshfeld volume        :      6.42353784
  |   Hirshfeld dipole vector :      0.01214648      -0.01907500       0.11704552
  |   Hirshfeld dipole moment :      0.11921010
  |   Hirshfeld second moments:      0.10971412      -0.01293227       0.00730763
  |                                 -0.01293227       0.11273836       0.00241878
  |                                  0.00730763       0.00241878       0.10872197
  ----------------------------------------------------------------------
  | Atom    12: H
  |   Hirshfeld charge        :      0.08629337
  |   Free atom volume        :     10.44207651
  |   Hirshfeld volume        :      7.72707626
  |   Hirshfeld dipole vector :     -0.03383984       0.02292470       0.00254439
  |   Hirshfeld dipole moment :      0.04095303
  |   Hirshfeld second moments:      0.04885717       0.02186475      -0.01687920
  |                                  0.02186475       0.05987297       0.01252051
  |                                 -0.01687920       0.01252051       0.10186681
  ----------------------------------------------------------------------
  | Atom    13: O
  |   Hirshfeld charge        :     -0.16160080
  |   Free atom volume        :     23.95238533
  |   Hirshfeld volume        :     19.42646902
  |   Hirshfeld dipole vector :      0.00221801      -0.01366383       0.00267889
  |   Hirshfeld dipole moment :      0.01409951
  |   Hirshfeld second moments:      0.09842315      -0.00525275       0.00799384
  |                                 -0.00525275       0.11220271      -0.02635167
  |                                  0.00799384      -0.02635167       0.07860958
  ----------------------------------------------------------------------
  | Atom    14: H
  |   Hirshfeld charge        :      0.18688201
  |   Free atom volume        :     10.44207651
  |   Hirshfeld volume        :      5.89066912
  |   Hirshfeld dipole vector :      0.09756381      -0.04547873       0.03339460
  |   Hirshfeld dipole moment :      0.11270409
  |   Hirshfeld second moments:      0.13353422       0.00901059      -0.00640554
  |                                  0.00901059       0.13612612       0.00132422
  |                                 -0.00640554       0.00132422       0.12027446
  ----------------------------------------------------------------------
  | Atom    15: H
  |   Hirshfeld charge        :      0.18586079
  |   Free atom volume        :     10.44207651
  |   Hirshfeld volume        :      5.19340062
  |   Hirshfeld dipole vector :      0.03452017       0.10224071      -0.05220779
  |   Hirshfeld dipole moment :      0.11987685
  |   Hirshfeld second moments:      0.15160371      -0.00799231       0.00653388
  |                                 -0.00799231       0.13709243      -0.00168447
  |                                  0.00653388      -0.00168447       0.13698513
  ----------------------------------------------------------------------
  | Atom    16: O
  |   Hirshfeld charge        :     -0.21223439
  |   Free atom volume        :     23.95238533
  |   Hirshfeld volume        :     20.53988372
  |   Hirshfeld dipole vector :      0.01991994       0.00987689       0.01268412
  |   Hirshfeld dipole moment :      0.02559773
  |   Hirshfeld second moments:      0.04792041      -0.02650021      -0.03423798
  |                                 -0.02650021       0.06588459      -0.00237610
  |                                 -0.03423798      -0.00237610       0.07716461
  ----------------------------------------------------------------------
  | Atom    17: H
  |   Hirshfeld charge        :      0.15946570
  |   Free atom volume        :     10.44207651
  |   Hirshfeld volume        :      5.76589826
  |   Hirshfeld dipole vector :     -0.06070907       0.08205056       0.06641057
  |   Hirshfeld dipole moment :      0.12177130
  |   Hirshfeld second moments:      0.12304155      -0.00113899      -0.00849458
  |                                 -0.00113899       0.12656068      -0.01119689
  |                                 -0.00849458      -0.01119689       0.13273085
  ----------------------------------------------------------------------
  | Atom    18: H
  |   Hirshfeld charge        :      0.12172204
  |   Free atom volume        :     10.44207651
  |   Hirshfeld volume        :      7.12564486
  |   Hirshfeld dipole vector :      0.02000514       0.03790514      -0.03882399
  |   Hirshfeld dipole moment :      0.05782999
  |   Hirshfeld second moments:      0.08498627      -0.01813529       0.01943530
  |                                 -0.01813529       0.11317044       0.01224629
  |                                  0.01943530       0.01224629       0.06928741
  ----------------------------------------------------------------------


------------------------------------------------------------------------------
  Final output of selected total energy values:

  The following output summarizes some interesting total energy values
  at the end of a run (AFTER all relaxation, molecular dynamics, etc.).

  | Total energy of the DFT / Hartree-Fock s.c.f. calculation      :         -12498.163839091 eV
  | Final zero-broadening corrected energy (caution - metals only) :         -12498.163839091 eV
  | For reference only, the value of 1 Hartree used in FHI-aims is :             27.211384500 eV

  Before relying on these values, please be sure to understand exactly which
  total energy value is referred to by a given number. Different objects may
  all carry the same name 'total energy'. Definitions:

  Total energy of the DFT / Hartree-Fock s.c.f. calculation:
  | Note that this energy does not include ANY quantities calculated after the
  | s.c.f. cycle, in particular not ANY RPA, MP2, etc. many-body perturbation terms.

  Final zero-broadening corrected energy:
  | For metallic systems only, a broadening of the occupation numbers at the Fermi
  | level can be extrapolated back to zero broadening by an electron-gas inspired
  | formula. For all systems that are not real metals, this value can be
  | meaningless and should be avoided.

------------------------------------------------------------------------------

------------------------------------------------------------
          Leaving FHI-aims.
          Date     :  20150727, Time     :  115038.726

          Computational steps:
          | Number of self-consistency cycles          :           15

          Detailed time accounting                     :  max(cpu_time)    wall_clock(cpu1)
          | Total time                                 :       52.049 s          52.070 s
          | Preparation time                           :        0.172 s           0.640 s
          | Grid partitioning                          :        0.155 s           0.155 s
          | Preloading free-atom quantities on grid    :        0.014 s           0.014 s
          | Free-atom superposition energy             :        0.089 s           0.089 s
          | Total time for integrations                :       22.827 s          22.824 s
          | Total time for solution of K.-S. equations :        1.513 s           1.518 s
          | Total time for density & force components  :       17.380 s          17.381 s
          | Total time for mixing                      :        0.227 s           0.226 s
          | Total time for Hartree multipole update    :        0.090 s           0.091 s
          | Total time for Hartree multipole sum       :        8.716 s           8.715 s
          | Total time for total energy evaluation     :        0.005 s           0.006 s
          | Total time for scaled ZORA corrections     :        0.000 s           0.000 s
          | Total time for TS (2009) vdW correction    :        0.073 s           0.072 s

          Have a nice day.
------------------------------------------------------------
