  MPI-parallelism will be employed.
------------------------------------------------------------
          Invoking FHI-aims ...
          Version 081213
          Compiled on 2013/08/29 at 17:41:06 on host generoso.

          When using FHI-aims, please cite the following reference:

          Volker Blum, Ralf Gehrke, Felix Hanke, Paula Havu,
          Ville Havu, Xinguo Ren, Karsten Reuter, and Matthias Scheffler,
          'Ab Initio Molecular Simulations with Numeric Atom-Centered Orbitals: FHI-aims',
          Computer Physics Communications 180, 2175-2196 (2009)

          For any questions about FHI-aims, please visit the aimsclub website
          with its forums and wiki. Contributions to both the forums and the
          wiki are warmly encouraged - they are for you, and everyone is welcome there.

------------------------------------------------------------

  Date     :  20150727, Time     :  114316.568
  Time zero on CPU 1             :   0.429920000000000E-01  s.
  Internal wall clock time zero  :           207229396.568  s.

  Using        8 parallel tasks.
  Task        0 on host gen60 reporting.
  Task        1 on host gen60 reporting.
  Task        2 on host gen60 reporting.
  Task        3 on host gen60 reporting.
  Task        4 on host gen60 reporting.
  Task        5 on host gen60 reporting.
  Task        6 on host gen60 reporting.
  Task        7 on host gen60 reporting.

  Performing system and environment tests:
  | Environment variable OMP_NUM_THREADS correctly set to 1.
  | Checking for scalapack...
  | No scalapack compiled in.

  Obtaining array dimensions for all initial allocations:
  
  -----------------------------------------------------------------------
  Parsing control.in (first pass over file, find array dimensions only).
  The contents of control.in will be repeated verbatim below
  unless switched off by setting 'verbatim_writeout .false.' .
  in the first line of control.in .
  -----------------------------------------------------------------------
  
  #########################################################################################
  #
  #  Volker Blum, FHI 2008 : Test run input file control.in
  #
  #########################################################################################
  #
  #  Physical model
  #
    xc                 rpbe
    spin               none
    relativistic       atomic_zora scalar
    charge             0.
   vdw_correction_hirshfeld
  #
  #  SCF convergence
  #
    occupation_type    gaussian 0.01
    mixer              pulay
      n_max_pulay        10
      charge_mix_param   0.1
    sc_accuracy_rho    5E-5
    sc_accuracy_eev    5E-3
    sc_accuracy_etot   5E-6
    sc_iter_limit      3000
  #
  #  Eigenvalue solver
  #
    KS_method          lapack
      empty_states       8
      basis_threshold    0.e-5
  #
  #  Efficiency
  #
  #   all previous settings are now default, except stratmann still
  #   undecided. Continue to handle stratmann with care, if at all.
  #
  #  partition_type stratmann
    partition_type rho_r2
  #  hartree_partition_type stratmann
  #
  #  Oprions for large clusters (100's of atoms: memory saving / better scaling)
  #
  # for periodic systems:
  #
    density_update_method orbital
    packed_matrix_format none
  #  k_grid 6 6 6
  #  output k_eigenvalue 1
  #  distributed_spline_storage .true.
  #
  #  Relaxation
  #
  #  relax_geometry   bfgs 5.e-3
    sc_accuracy_forces 5.E-4
    final_forces_cleaned .true.
  #
  #  Output options
  #
  #  output mulliken
    output Hirshfeld
  #  output dipole
  
  #harmonic_length_scale 0.001
  
  ################################################################################
  #
  #  FHI-aims code project
  #  VB, Fritz-Haber Institut, 2007
  #
  #  Suggested "safe" defaults for H atom (to be pasted into control.in file)
  #  Basis constructed for a non-relativistic H2 molecule using the
  #  PW-LDA functional.
  #
  ################################################################################
    species        H
  #     global species definitions
      nucleus             1
      cut_pot             4.0  2.0  1.0
      cut_free_atom       finite 8.0
      logarithmic         0.00010000 100.00  1.0123
      basis_dep_cutoff    1d-4  # 1d-4 is safe default - please check 5d-4 if you wish!
      radial_base         24 7.0
      radial_multiplier   2
      angular_grids       specified
        division   0.2783  110
        division   0.3822  194
        division   0.5626  302
  #      division   0.5922  434
  #      division   0.6227  590
  #      division   0.7206  770
        outer_grid  302
      l_hartree           4
  ################################################################################
  #
  #  Definition of "minimal" basis
  #
  ################################################################################
  #     valence basis states
      valence      1  s   1.
  #     ion occupancy
      ion_occ      1  s   0.5
  ################################################################################
  #
  #  Suggested additional basis functions. For production calculations,
  #  uncomment them one after another (the most important basis functions are
  #  listed first).
  #
  ################################################################################
  #  "First tier" - improvements: -1014.90 meV to -62.69 meV
       hydro 2 s 2.1
       hydro 2 p 3.5
  #  "Second tier" - improvements: -12.89 meV to -1.83 meV
       hydro 1 s 0.85
       hydro 2 p 3.7
       hydro 2 s 1.2
       hydro 3 d 7
  #  "Third tier" - improvements: -0.25 meV to -0.12 meV
  #     hydro 4 f 11.2
  #     hydro 3 p 4.8
  #     hydro 4 d 9
  #     hydro 3 s 3.2
  
  ################################################################################
  #
  #  FHI-aims code project
  #  VB, Fritz-Haber Institut, 2007
  #
  #  Suggested "safe" defaults for O atom (to be pasted into control.in file)
  #  All values have been tested for a non-relativistic, non-spinpolarized O2
  #  molecule using the PW-LDA functional. Validity for PBE is expected.
  #
  #  Constructed for dimers: 1.0 A, 1.208 A, 1.5 A, 2.0 A, 3.0 A
  #
  ################################################################################
    species        O
  #     global species definitions
      nucleus             8
      mass                15.9994
      l_hartree           4
      cut_pot             4.0  2.0  1.0
      cut_free_atom       finite 8.0
      basis_dep_cutoff    1d-4  # 1d-4 is safe default - please check 5d-4 if you wish!
      logarithmic         0.00010000 100.00  1.0123
      radial_base         36 7.0
      radial_multiplier   2
       angular_grids specified
        division   0.4087  110
        division   0.5181  194
        division   0.6184  302
  #      division   0.7315  434
  #      division   0.7934  590
  #      division   0.9656  770
  #      division   1.4041  974
  #      outer_grid 974
        outer_grid 302
  ################################################################################
  #
  #  Definition of "minimal" basis
  #
  ################################################################################
  #     valence basis states
      valence      2  s   2.
      valence      2  p   4.
  #     ion occupancy
      ion_occ      2  s   1.
      ion_occ      2  p   3.
  ################################################################################
  #
  #  Suggested additional basis functions. For production calculations,
  #  uncomment them one after another (the most important basis functions are
  #  listed first).
  #
  ################################################################################
  #  "First tier" - improvements: -699.05 meV to -159.38 meV
       hydro 2 p 1.8
       hydro 3 d 7.6
       hydro 3 s 6.4
  #  "Second tier" - improvements: -49.91 meV to -5.39 meV
       hydro 4 f 11.6
       hydro 3 p 6.2
       hydro 3 d 5.6
       hydro 5 g 17.6
       hydro 1 s 0.75
  #  "Third tier" - improvements: -2.83 meV to -0.50 meV
  #     ionic 2 p auto
  #     hydro 4 f 10.8
  #     hydro 4 d 4.7
  #     hydro 2 s 6.8
  #  "Fourth tier" - improvements: -0.40 meV to -0.12 meV
  #     hydro 3 p 5
  #     hydro 3 s 3.3
  #     hydro 5 g 15.6
  #     hydro 4 f 17.6
  #     hydro 4 d 14
  # Further basis functions - -0.08 meV and below
  #     hydro 3 s 2.1
  #     hydro 4 d 11.6
  #     hydro 3 p 16
  #     hydro 2 s 17.2
  
  
  -----------------------------------------------------------------------
  Completed first pass over input file control.in .
  -----------------------------------------------------------------------
  
  
  -----------------------------------------------------------------------
  Parsing geometry.in (first pass over file, find array dimensions only).
  The contents of geometry.in will be repeated verbatim below
  unless switched off by setting 'verbatim_writeout .false.' .
  in the first line of geometry.in .
  -----------------------------------------------------------------------
  
  atom      -4.053030000      0.065001000     -1.525160000  O
  atom      -4.566710000      0.974813000     -1.912820000  H
  atom      -3.067820000      0.330172000     -1.477310000  H
  atom      -4.581760000     -0.256435000      0.939478000  O
  atom      -4.349860000      0.471090000      1.504340000  H
  atom      -5.393870000     -0.726611000      1.228070000  H
  atom      -5.293160000      2.192130000     -2.328800000  O
  atom      -4.829300000      2.988660000     -1.973850000  H
  atom      -5.428570000      2.328640000     -3.235170000  H
  atom      -1.645860000      0.870179000     -1.502250000  O
  atom      -1.568890000      1.501730000     -0.721051000  H
  atom      -0.824432000      0.282220000     -1.377720000  H
  atom      -4.066610000      4.258280000     -0.900064000  O
  atom      -3.224110000      3.876870000     -0.569443000  H
  atom      -3.737450000      5.116530000     -1.322720000  H
  atom      -5.628340000      3.730740000      1.385610000  O
  atom      -6.090650000      4.418470000      1.860350000  H
  atom      -5.158540000      4.200260000      0.615875000  H
  
  -----------------------------------------------------------------------
  Completed first pass over input file geometry.in .
  -----------------------------------------------------------------------
  
 
  Basic array size parameters: 
  | Number of species                 :        2
  | Number of atoms                   :       18
  | Max. basis fn. angular momentum   :        4
  | Max. atomic/ionic basis occupied n:        2
  | Max. number of basis fn. types    :        2
  | Max. radial fns per species/type  :        8
  | Max. logarithmic grid size        :     1301
  | Max. radial integration grid size :       73
  | Max. angular integration grid size:      302
  | Max. angular grid division number :        8
  | Radial grid for Hartree potential :     1301
  | Number of spin channels           :        1

------------------------------------------------------------
          Reading file control.in.
------------------------------------------------------------
  XC: Using RPBE gradient-corrected functionals.
  Spin treatment: No spin polarisation.
  Scalar relativistic treatment of kinetic energy: on-site free-atom approximation to ZORA.
  Charge =   0.000000E+00: Neutral system requested explicitly.
  Using non-empirical van der Waals correction (Hirshfeld partitioning):
  Occupation type: Gaussian broadening, width =   0.100000E-01 eV.
  Using pulay charge density mixing.
  Pulay mixing - number of memorized iterations:   10
  Charge density mixing - mixing parameter:     0.1000
  Convergence accuracy of self-consistent charge density: 0.5000E-04
  Convergence accuracy of sum of eigenvalues: 0.5000E-02
  Convergence accuracy of total energy: 0.5000E-05
  Maximum number of s.-c. iterations  :  3000
  Kohn-Sham eigenvalues and eigenfunctions calculated by lapack diagonalisation (D&C).
  Number of empty states per atom:        8
  Threshold for basis singularities: 0.0000E+00
  Partition function in integrals calculations: rho / r^2
 Using packed matrix format           0
  Convergence accuracy of forces: 0.5000E-03
  Cleaning forces before final output.
  Hirshfeld charge analysis will be performed.
 
  Reading configuration options for species H                   .
  | Found nuclear charge :   1.0000
  | Found cutoff potl. onset [A], width [A], scale factor :    4.00000    2.00000    1.00000
  | Found cutoff specification for free atom: Cutoff potential begins at    8.00000 A.
  | Found logarithmic grid data [bohr] : 0.1000E-03 0.1000E+03 0.1012E+01
  | Threshold for basis-dependent cutoff potential is   0.100000E-03
  | Found data for basic radial integration grid :    24 points, outermost radius =    7.000 A
  | Found multiplier for basic radial grid :   2
  | Found angular grid specification: user-specified.
  | Specified grid contains     4 separate shells.
  | Check grid settings after all constraints further below.
  | Found l_max for Hartree potential  :   4
  | Found free-atom valence shell :  1 s   1.000
  | No ionic wave fns used. Skipping ion_occ.
  | Found hydrogenic basis function :  2 s   2.100
  | Found hydrogenic basis function :  2 p   3.500
  | Found hydrogenic basis function :  1 s   0.850
  | Found hydrogenic basis function :  2 p   3.700
  | Found hydrogenic basis function :  2 s   1.200
  | Found hydrogenic basis function :  3 d   7.000
  Species H                   : Missing cutoff potential type.
  Defaulting to exp(1/x)/(1-x)^2 type cutoff potential.
  Species H : On-site basis accuracy parameter (for Gram-Schmidt orthonormalisation) not specified.
  Using default value basis_acc =  0.1000000E-03.
  Species H                   : Using default innermost maximum threshold i_radial=  2 for radial functions.
  Species H                   : Basic radial grid will be enhanced according to radial_multiplier =   2, to contain    49 grid points.
 
  Reading configuration options for species O                   .
  | Found nuclear charge :   8.0000
  | Found atomic mass :    15.9994000000000      amu
  | Found l_max for Hartree potential  :   4
  | Found cutoff potl. onset [A], width [A], scale factor :    4.00000    2.00000    1.00000
  | Found cutoff specification for free atom: Cutoff potential begins at    8.00000 A.
  | Threshold for basis-dependent cutoff potential is   0.100000E-03
  | Found logarithmic grid data [bohr] : 0.1000E-03 0.1000E+03 0.1012E+01
  | Found data for basic radial integration grid :    36 points, outermost radius =    7.000 A
  | Found multiplier for basic radial grid :   2
  | Found angular grid specification: user-specified.
  | Specified grid contains     4 separate shells.
  | Check grid settings after all constraints further below.
  | Found free-atom valence shell :  2 s   2.000
  | Found free-atom valence shell :  2 p   4.000
  | No ionic wave fns used. Skipping ion_occ.
  | No ionic wave fns used. Skipping ion_occ.
  | Found hydrogenic basis function :  2 p   1.800
  | Found hydrogenic basis function :  3 d   7.600
  | Found hydrogenic basis function :  3 s   6.400
  | Found hydrogenic basis function :  4 f  11.600
  | Found hydrogenic basis function :  3 p   6.200
  | Found hydrogenic basis function :  3 d   5.600
  | Found hydrogenic basis function :  5 g  17.600
  | Found hydrogenic basis function :  1 s   0.750
  Species O                   : Missing cutoff potential type.
  Defaulting to exp(1/x)/(1-x)^2 type cutoff potential.
  Species O : On-site basis accuracy parameter (for Gram-Schmidt orthonormalisation) not specified.
  Using default value basis_acc =  0.1000000E-03.
  Species O                   : Using default innermost maximum threshold i_radial=  2 for radial functions.
  Species O                   : Basic radial grid will be enhanced according to radial_multiplier =   2, to contain    73 grid points.
 
  Finished reading input file 'control.in'. Consistency checks are next.
 
  Target number of points in a grid batch is not set. Defaulting to  100
  Method for grid partitioning is not set. Defaulting to parallel hash+maxmin partitioning.
  Batch size limit is not set. Defaulting to    200
  By default, will store active basis functions for each batch.
  If in need of memory, prune_basis_once .false. can be used to disable this option.
  communication_type for Hartree potential was not specified.
  Defaulting to calc_hartree .
  Pulay mixer: Number of initial linear mixing iterations not set.
  Defaulting to    0 iterations.
  Work space size for distributed Hartree potential not set.
  Defaulting to   0.200000E+03 MB.
  Algorithm-dependent basis array size parameters:
  | n_max_pulay                         :       10
  Geometry relaxation not requested: no relaxation will be performed.
  Handling of forces: Unphysical translation and rotation will be removed from forces.
  No accuracy limit for integral partition fn. given. Defaulting to 0.1000E-14.
  No threshold value for u(r) in integrations given. Defaulting to 0.1000E-05.
  No accuracy for occupation numbers given. Defaulting to 0.1000E-07.
  No threshold value for occupation numbers given. Defaulting to 0.0000E+00.
  No accuracy for fermi level given. Defaulting to 0.1000E-19.
  Maximum # of iterations to find E_F not set. Defaulting to  200.
  Will not use alltoall communication since running on < 1024 CPUs.
  Partitioning for Hartree potential was not defined. Using partition_type for integrals.
  | Reporting present value of keyword multip_moments_threshold  :       0.10000000E-09
  | This value may affect high angular momentum components of the Hartree potential in periodic systems.
  No q(lm)/r^(l+1) cutoff set for long-range Hartree potential.
  | Using default value of  0.100000E-09 .
  | Verify using the multipole_threshold keyword.
  Defaulting to new monopole extrapolation.
  Density update method: Loop over occupied states selected for charge density update.
------------------------------------------------------------


------------------------------------------------------------
          Reading geometry description geometry.in.
------------------------------------------------------------
  Input structure read successfully.
  The structure contains       18 atoms,  and a total of         60.000 electrons.

  Input geometry:
  | No unit cell requested.
  | Atomic structure:
  |       Atom                x [A]            y [A]            z [A]
  |    1: Species O             -4.053030         0.065001        -1.525160
  |    2: Species H             -4.566710         0.974813        -1.912820
  |    3: Species H             -3.067820         0.330172        -1.477310
  |    4: Species O             -4.581760        -0.256435         0.939478
  |    5: Species H             -4.349860         0.471090         1.504340
  |    6: Species H             -5.393870        -0.726611         1.228070
  |    7: Species O             -5.293160         2.192130        -2.328800
  |    8: Species H             -4.829300         2.988660        -1.973850
  |    9: Species H             -5.428570         2.328640        -3.235170
  |   10: Species O             -1.645860         0.870179        -1.502250
  |   11: Species H             -1.568890         1.501730        -0.721051
  |   12: Species H             -0.824432         0.282220        -1.377720
  |   13: Species O             -4.066610         4.258280        -0.900064
  |   14: Species H             -3.224110         3.876870        -0.569443
  |   15: Species H             -3.737450         5.116530        -1.322720
  |   16: Species O             -5.628340         3.730740         1.385610
  |   17: Species H             -6.090650         4.418470         1.860350
  |   18: Species H             -5.158540         4.200260         0.615875
  |

  | The smallest distance between any two atoms is         0.92654057 AA.
  |
  | The first atom of this pair is atom number                      7 .
  | The second atom of this pair is atom number                     9 .

  Structure-dependent array size parameters: 
  | Maximum number of distinct radial functions  :       18
  | Maximum number of basis functions            :      414
  | Number of Kohn-Sham states (occupied + empty):      102
------------------------------------------------------------

------------------------------------------------------------
          Preparing all fixed parts of the calculation.
------------------------------------------------------------
  Determining machine precision:
    2.225073858507201E-308
  Setting up grids for atomic and cluster calculations.

  Creating wave function, potential, and density for free atoms.

  Species: H

  List of occupied orbitals and eigenvalues:
    n    l              occ      energy [Ha]    energy [eV]
    1    0           1.0000        -0.241408        -6.5691


  Species: O

  List of occupied orbitals and eigenvalues:
    n    l              occ      energy [Ha]    energy [eV]
    1    0           2.0000       -18.944147      -515.4965
    2    0           2.0000        -0.883529       -24.0421
    2    1           4.0000        -0.330176        -8.9845

  Creating fixed part of basis set: Ionic, confined, hydrogenic.
 
  H                    hydrogenic:
 
  List of hydrogenic basis orbitals: 
    n    l      effective z      eigenvalue [eV]  inner max. [A]     outer max. [A]     outer radius [A]   
    2    0         2.100000       -14.9965           0.193241           1.317192           5.372934
    2    1         3.500000       -41.6672           0.602363           0.602363           4.056010
    1    0         0.850000        -9.8292           0.624864           0.624864           5.372934
    2    1         3.700000       -46.5653           0.573616           0.573616           3.909951
    2    0         1.200000        -4.5995           0.334977           2.228160           5.505921
    3    2         7.000000       -74.0753           0.680692           0.680692           3.769152
 
 
  O                    hydrogenic:
 
  List of hydrogenic basis orbitals: 
    n    l      effective z      eigenvalue [eV]  inner max. [A]     outer max. [A]     outer radius [A]   
    2    1         1.800000       -11.0118           1.178546           1.178546           5.432516
    3    2         7.600000       -87.3182           0.624117           0.624117           3.541422
    3    0         6.400000       -61.9209           0.061166           1.081887           4.306510
    4    3        11.600000      -114.4238           0.731621           0.731621           3.584982
    3    1         6.200000       -58.1113           0.255677           1.030255           4.306510
    3    2         5.600000       -47.4081           0.847222           0.847222           4.413102
    5    4        17.600000      -168.5799           0.749730           0.749730           3.372413
    1    0         0.750000        -7.6499           0.705275           0.705275           5.366508
 

  Adding cutoff potential to free-atom effective potential.
  Creating atomic-like basis functions for current effective potential.

  Species H                   :

  List of atomic basis orbitals and eigenvalues:
    n    l      energy [Ha]    energy [eV]    outer radius [A]
    1    0        -0.241374        -6.5681       5.372934


  Species O                   :

  List of atomic basis orbitals and eigenvalues:
    n    l      energy [Ha]    energy [eV]    outer radius [A]
    1    0       -18.944147      -515.4965       1.415745
    2    0        -0.883529       -24.0421       5.048305
    2    1        -0.330173        -8.9845       5.301302

  Assembling full basis from fixed parts.
  | Species H :   atomic orbital   1 s accepted.
  | Species H :    hydro orbital   2 s accepted.
  | Species H :    hydro orbital   1 s accepted.
  | Species H :    hydro orbital   2 s accepted.
  | Species H :    hydro orbital   2 p accepted.
  | Species H :    hydro orbital   2 p accepted.
  | Species H :    hydro orbital   3 d accepted.
  | Species O :   atomic orbital   1 s accepted.
  | Species O :    hydro orbital   3 s accepted.
  | Species O :   atomic orbital   2 s accepted.
  | Species O :    hydro orbital   1 s accepted.
  | Species O :    hydro orbital   3 p accepted.
  | Species O :   atomic orbital   2 p accepted.
  | Species O :    hydro orbital   2 p accepted.
  | Species O :    hydro orbital   3 d accepted.
  | Species O :    hydro orbital   3 d accepted.
  | Species O :    hydro orbital   4 f accepted.
  | Species O :    hydro orbital   5 g accepted.
 
  Basis size parameters after reduction:
  | Total number of radial functions:       18
  | Total number of basis functions :      414
 
  Testing on-site integration grid accuracy.
  |  Species  Function  <phi|h_atom|phi> (log., in eV)  <phi|h_atom|phi> (rad., in eV)
           1        1                 -6.5683835025                 -6.5684759159
           1        2                 13.3711789951                 13.3708738703
           1        3                 23.6590910787                 23.6532055418
           1        4                 16.2963827186                 16.1870710655 ***
           1        5                 28.7627214838                 28.7627215090
           1        6                 59.5965249172                 59.5965950857
           1        7                 60.2220506392                 60.2220503827
           2        8               -515.4964576505               -515.4964530710
           2        9                 15.3030791347                 15.3030722972
           2       10                -21.7296094581                -21.7296135470
           2       11                 14.2969371730                 14.2969701621
           2       12                 21.0679693190                 21.0679697493
           2       13                 -2.3833606469                 -2.3833613176
           2       14                 13.7067136422                 13.7066766629
           2       15                 45.8013116808                 45.8013116965
           2       16                 52.2309815402                 52.2309831494
           2       17                 85.4120732416                 85.4120732763
           2       18                142.1019167745                142.1019167817
 * Note: Onsite integrals marked "***" above are less accurate than
 * onsite_accuracy_threshold =    0.03000 eV. Usually, this is harmless.
 * When in doubt, tighten the "radial" and/or "radial_multiplier" flags to check.

  Preparing densities etc. for the partition functions (integrals / Hartree potential).

  Preparations completed.
  max(cpu_time)          :      0.172 s.
  Wall clock time (cpu1) :      0.534 s.
------------------------------------------------------------

------------------------------------------------------------
          Begin self-consistency loop: Initialization.

          Date     :  20150727, Time     :  114317.140
------------------------------------------------------------

  Initializing index lists of integration centers etc. from given atomic structure:
  | Number of centers in hartree potential         :        18
  | Number of centers in hartree multipole         :        18
  | Number of centers in electron density summation:        18
  | Number of centers in basis integrals           :        18
  | Number of centers in integrals                 :        18
  Partitioning the integration grid into batches with parallel hashing+maxmin method.
  | Number of batches:     2311
  | Maximal batch size:     194
  | Minimal batch size:      55
  | Average batch size:     102.143
  | Standard deviation of batch sizes:      35.611

  Integration load balanced across     8 MPI tasks.
  Work distribution over tasks is as follows:
  Task     0 has      29448 integration points.
  Task     1 has      29572 integration points.
  Task     2 has      29595 integration points.
  Task     3 has      29548 integration points.
  Task     4 has      29569 integration points.
  Task     5 has      29458 integration points.
  Task     6 has      29414 integration points.
  Task     7 has      29448 integration points.
  Initializing partition tables, free-atom densities, potentials, etc. across the integration grid (initialize_grid_storage).
  | Net number of integration points:   236052
  | of which are non-zero points    :   235472
  Obtaining max. number of non-zero basis functions in each batch (get_n_compute_maxes).
  | Maximal number of non-zero basis functions:      410 in task     0
  | Maximal number of non-zero basis functions:      409 in task     1
  | Maximal number of non-zero basis functions:      409 in task     2
  | Maximal number of non-zero basis functions:      409 in task     3
  | Maximal number of non-zero basis functions:      409 in task     4
  | Maximal number of non-zero basis functions:      410 in task     5
  | Maximal number of non-zero basis functions:      410 in task     6
  | Maximal number of non-zero basis functions:      410 in task     7
  Integrating Hamiltonian matrix: batch-based integration.
  Time summed over all CPUs for integration: real work       10.324 s, elapsed       10.578 s
  Integrating overlap matrix.
  Time summed over all CPUs for integration: real work        5.624 s, elapsed        5.740 s

  Updating Kohn-Sham eigenvalues, eigenvectors, occupation numbers, and Fermi level.
  Solving generalized eigenproblem
  Updating Kohn-Sham eigenvalues and eigenfunctions.
  Transforming overlap matrix and checking for singularities.
  Overlap matrix is nonsingular:
  | Lowest eigenvalue:  0.223538E-03
  Solving real generalised eigenvalue problem by standard LAPACK (fast)
  Determining occupation numbers for Kohn-Sham eigenstates.
  | Chemical potential (Fermi level) in eV                 : -.28873310E+01
  | Error in electron count due to remaining E_F inaccuracy: 0.00000000E+00
  | Maximum occupation number of highest empty state:  0.00E+00

  Writing Kohn-Sham eigenvalues.

  State    Occupation    Eigenvalue [Ha]    Eigenvalue [eV]
      1       2.00000         -19.064911         -518.78261
      2       2.00000         -19.051942         -518.42972
      3       2.00000         -19.045341         -518.25008
      4       2.00000         -19.044622         -518.23054
      5       2.00000         -19.042434         -518.17098
      6       2.00000         -19.019931         -517.55866
      7       2.00000          -1.122247          -30.53790
      8       2.00000          -1.098562          -29.89340
      9       2.00000          -1.093692          -29.76086
     10       2.00000          -1.086697          -29.57053
     11       2.00000          -1.086086          -29.55391
     12       2.00000          -1.042356          -28.36395
     13       2.00000          -0.653514          -17.78302
     14       2.00000          -0.644531          -17.53859
     15       2.00000          -0.623473          -16.96557
     16       2.00000          -0.609356          -16.58142
     17       2.00000          -0.607311          -16.52577
     18       2.00000          -0.600824          -16.34926
     19       2.00000          -0.550596          -14.98247
     20       2.00000          -0.519457          -14.13516
     21       2.00000          -0.505440          -13.75371
     22       2.00000          -0.499960          -13.60462
     23       2.00000          -0.497320          -13.53276
     24       2.00000          -0.475568          -12.94085
     25       2.00000          -0.441252          -12.00709
     26       2.00000          -0.439611          -11.96243
     27       2.00000          -0.439141          -11.94964
     28       2.00000          -0.430373          -11.71106
     29       2.00000          -0.430039          -11.70197
     30       2.00000          -0.402843          -10.96191
     31       0.00000          -0.101385           -2.75884
     32       0.00000          -0.070380           -1.91513
     33       0.00000          -0.062908           -1.71181
     34       0.00000          -0.049534           -1.34790
     35       0.00000          -0.039550           -1.07620
     36       0.00000          -0.021815           -0.59361
     37       0.00000           0.002552            0.06945
     38       0.00000           0.018983            0.51655
     39       0.00000           0.024498            0.66664
     40       0.00000           0.036186            0.98467
     41       0.00000           0.041323            1.12446
     42       0.00000           0.055581            1.51244
     43       0.00000           0.075806            2.06280
     44       0.00000           0.081262            2.21126
     45       0.00000           0.084248            2.29250
     46       0.00000           0.090910            2.47378
     47       0.00000           0.098375            2.67693
     48       0.00000           0.101006            2.74852
     49       0.00000           0.107801            2.93341
     50       0.00000           0.115996            3.15641
     51       0.00000           0.123414            3.35825
     52       0.00000           0.130141            3.54132
     53       0.00000           0.134674            3.66467
     54       0.00000           0.136972            3.72720
     55       0.00000           0.151042            4.11006
     56       0.00000           0.152312            4.14463
     57       0.00000           0.155869            4.24141
     58       0.00000           0.164270            4.47002
     59       0.00000           0.184470            5.01970
     60       0.00000           0.200936            5.46774
     61       0.00000           0.211869            5.76525
     62       0.00000           0.222172            6.04562
     63       0.00000           0.228954            6.23016
     64       0.00000           0.243056            6.61388
     65       0.00000           0.246668            6.71217
     66       0.00000           0.255418            6.95027
     67       0.00000           0.278316            7.57337
     68       0.00000           0.290697            7.91026
     69       0.00000           0.300670            8.18164
     70       0.00000           0.309911            8.43310
     71       0.00000           0.325205            8.84929
     72       0.00000           0.340159            9.25619
     73       0.00000           0.349639            9.51416
     74       0.00000           0.356997            9.71438
     75       0.00000           0.366184            9.96438
     76       0.00000           0.376698           10.25048
     77       0.00000           0.390437           10.62434
     78       0.00000           0.395843           10.77144
     79       0.00000           0.408236           11.10866
     80       0.00000           0.421641           11.47343
     81       0.00000           0.425677           11.58327
     82       0.00000           0.433123           11.78589
     83       0.00000           0.446200           12.14172
     84       0.00000           0.451694           12.29121
     85       0.00000           0.465872           12.67703
     86       0.00000           0.478359           13.01682
     87       0.00000           0.497168           13.52862
     88       0.00000           0.507489           13.80948
     89       0.00000           0.514807           14.00861
     90       0.00000           0.532469           14.48922
     91       0.00000           0.544370           14.81305
     92       0.00000           0.560376           15.24861
     93       0.00000           0.568580           15.47185
     94       0.00000           0.579699           15.77442
     95       0.00000           0.603475           16.42138
     96       0.00000           0.644502           17.53780
     97       0.00000           0.663281           18.04880
     98       0.00000           0.685951           18.66567
     99       0.00000           0.704867           19.18041
    100       0.00000           0.718217           19.54369
    101       0.00000           0.738945           20.10772
    102       0.00000           0.771558           20.99516

  Highest occupied state (VBM) at    -10.96191331 eV
  | Occupation number:      2.00000000

  Lowest unoccupied state (CBM) at    -2.75883553 eV
  | Occupation number:      0.00000000

  Overall HOMO-LUMO gap:      8.20307777 eV.
  Calculating total energy contributions from superposition of free atom densities.

  Total energy components:
  | Sum of eigenvalues            :        -260.33886173 Ha       -7084.18086695 eV
  | XC energy correction          :         -54.69690027 Ha       -1488.37838414 eV
  | XC potential correction       :          69.89453342 Ha        1901.92702334 eV
  | Free-atom electrostatic energy:        -214.56095212 Ha       -5838.50056675 eV
  | Hartree energy correction     :           0.00000000 Ha           0.00000000 eV
  | van der Waals energy corr.    :           0.00000000 Ha           0.00000000 eV
  | Entropy correction            :           0.00000000 Ha           0.00000000 eV
  | ---------------------------
  | Total energy                  :        -459.70218070 Ha      -12509.13279450 eV
  | Total energy, T -> 0          :        -459.70218070 Ha      -12509.13279450 eV  <-- do not rely on this value for anything but (periodic) metals
  | Electronic free energy        :        -459.70218070 Ha      -12509.13279450 eV

  Derived energy quantities:
  | Kinetic energy                :         455.01138913 Ha       12381.48986163 eV
  | Electrostatic energy          :        -860.01666957 Ha      -23402.24427199 eV
  | Energy correction for multipole
  | error in Hartree potential    :           0.00000000 Ha           0.00000000 eV
  | Sum of eigenvalues per atom                           :        -393.56560372 eV
  | Total energy (T->0) per atom                          :        -694.95182192 eV  <-- do not rely on this value for anything but (periodic) metals
  | Electronic free energy per atom                       :        -694.95182192 eV
  Initialize hartree_potential_storage
  Max. number of atoms included in rho_multipole:           18

  End scf initialization - timings             :  max(cpu_time)    wall_clock(cpu1)
  | Time for scf. initialization               :        2.806 s           2.805 s
  | Boundary condition initialization          :        0.000 s           0.000 s
  | Integration                                :        2.045 s           2.044 s
  | Solution of K.-S. eqns.                    :        0.295 s           0.294 s
  | Grid partitioning                          :        0.169 s           0.169 s
  | Preloading free-atom quantities on grid    :        0.014 s           0.013 s
  | Free-atom superposition energy             :        0.090 s           0.091 s
  | Total energy evaluation                    :        0.001 s           0.000 s
------------------------------------------------------------

------------------------------------------------------------
          Begin self-consistency iteration #    1

  Date     :  20150727, Time     :  114319.945
------------------------------------------------------------
  Evaluating new KS density.
  Integration grid: deviation in total charge (<rho> - N_e) =   1.421085E-14
  Pulay mixing of updated and previous charge densities.

  Evaluating partitioned Hartree potential by multipole expansion.
  | Analytical far-field extrapolation by fixed multipoles:
  | Hartree multipole sum: apparent total charge =  -0.250516E-05
  Summing up the Hartree potential.
  Time summed over all CPUs for potential: real work        3.779 s, elapsed        3.796 s
  | RMS charge density error from multipole expansion :   0.179503E-02

  Integrating Hamiltonian matrix: batch-based integration.
  Time summed over all CPUs for integration: real work       10.317 s, elapsed       10.563 s

  Updating Kohn-Sham eigenvalues, eigenvectors, occupation numbers, and Fermi level.
  Solving generalized eigenproblem
  Updating Kohn-Sham eigenvalues and eigenfunctions.
  Solving real generalised eigenvalue problem by standard LAPACK (fast)
  Determining occupation numbers for Kohn-Sham eigenstates.
  | Chemical potential (Fermi level) in eV                 : -.37026619E+01
  | Error in electron count due to remaining E_F inaccuracy: 0.00000000E+00
  | Maximum occupation number of highest empty state:  0.00E+00

  Writing Kohn-Sham eigenvalues.

  State    Occupation    Eigenvalue [Ha]    Eigenvalue [eV]
      1       2.00000         -18.990879         -516.76812
      2       2.00000         -18.985801         -516.62994
      3       2.00000         -18.976609         -516.37981
      4       2.00000         -18.963129         -516.01299
      5       2.00000         -18.962380         -515.99262
      6       2.00000         -18.917694         -514.77664
      7       2.00000          -1.085364          -29.53426
      8       2.00000          -1.065049          -28.98145
      9       2.00000          -1.054145          -28.68475
     10       2.00000          -1.050531          -28.58639
     11       2.00000          -1.047284          -28.49804
     12       2.00000          -0.984355          -26.78567
     13       2.00000          -0.621235          -16.90467
     14       2.00000          -0.602747          -16.40157
     15       2.00000          -0.591964          -16.10815
     16       2.00000          -0.582543          -15.85180
     17       2.00000          -0.577794          -15.72258
     18       2.00000          -0.562664          -15.31085
     19       2.00000          -0.512658          -13.95014
     20       2.00000          -0.490264          -13.34077
     21       2.00000          -0.462947          -12.59744
     22       2.00000          -0.457784          -12.45694
     23       2.00000          -0.452209          -12.30522
     24       2.00000          -0.431942          -11.75374
     25       2.00000          -0.409844          -11.15243
     26       2.00000          -0.397637          -10.82024
     27       2.00000          -0.390130          -10.61599
     28       2.00000          -0.387093          -10.53333
     29       2.00000          -0.383795          -10.44359
     30       2.00000          -0.342754           -9.32681
     31       0.00000          -0.095184           -2.59008
     32       0.00000          -0.064192           -1.74675
     33       0.00000          -0.051710           -1.40709
     34       0.00000          -0.040351           -1.09800
     35       0.00000          -0.032112           -0.87381
     36       0.00000          -0.016746           -0.45567
     37       0.00000           0.012732            0.34645
     38       0.00000           0.028778            0.78310
     39       0.00000           0.036677            0.99803
     40       0.00000           0.044103            1.20010
     41       0.00000           0.049760            1.35404
     42       0.00000           0.065596            1.78495
     43       0.00000           0.084139            2.28955
     44       0.00000           0.093303            2.53892
     45       0.00000           0.096065            2.61407
     46       0.00000           0.100304            2.72941
     47       0.00000           0.107212            2.91739
     48       0.00000           0.115707            3.14856
     49       0.00000           0.119597            3.25439
     50       0.00000           0.127893            3.48014
     51       0.00000           0.133915            3.64402
     52       0.00000           0.139531            3.79682
     53       0.00000           0.143664            3.90928
     54       0.00000           0.151005            4.10904
     55       0.00000           0.159730            4.34649
     56       0.00000           0.166516            4.53114
     57       0.00000           0.174712            4.75415
     58       0.00000           0.180883            4.92207
     59       0.00000           0.195395            5.31697
     60       0.00000           0.213503            5.80973
     61       0.00000           0.224551            6.11036
     62       0.00000           0.232477            6.32601
     63       0.00000           0.242215            6.59100
     64       0.00000           0.253302            6.89270
     65       0.00000           0.259328            7.05669
     66       0.00000           0.261079            7.10433
     67       0.00000           0.288751            7.85731
     68       0.00000           0.300054            8.16489
     69       0.00000           0.312122            8.49328
     70       0.00000           0.321550            8.74983
     71       0.00000           0.338588            9.21345
     72       0.00000           0.353572            9.62120
     73       0.00000           0.358690            9.76045
     74       0.00000           0.365736            9.95219
     75       0.00000           0.373579           10.16562
     76       0.00000           0.385637           10.49372
     77       0.00000           0.400779           10.90574
     78       0.00000           0.408252           11.10910
     79       0.00000           0.421540           11.47069
     80       0.00000           0.431990           11.75506
     81       0.00000           0.438083           11.92085
     82       0.00000           0.442621           12.04433
     83       0.00000           0.453702           12.34586
     84       0.00000           0.459167           12.49458
     85       0.00000           0.478074           13.00905
     86       0.00000           0.491367           13.37077
     87       0.00000           0.509687           13.86928
     88       0.00000           0.522046           14.20560
     89       0.00000           0.526433           14.32496
     90       0.00000           0.546860           14.88080
     91       0.00000           0.557783           15.17804
     92       0.00000           0.575440           15.65852
     93       0.00000           0.586152           15.95002
     94       0.00000           0.589879           16.05142
     95       0.00000           0.617077           16.79151
     96       0.00000           0.659632           17.94950
     97       0.00000           0.682752           18.57863
     98       0.00000           0.699019           19.02128
     99       0.00000           0.721211           19.62516
    100       0.00000           0.732657           19.93661
    101       0.00000           0.751741           20.45592
    102       0.00000           0.784965           21.35997

  Highest occupied state (VBM) at     -9.32681274 eV
  | Occupation number:      2.00000000

  Lowest unoccupied state (CBM) at    -2.59008173 eV
  | Occupation number:      0.00000000

  Overall HOMO-LUMO gap:      6.73673101 eV.

  Total energy components:
  | Sum of eigenvalues            :        -257.48244811 Ha       -7006.45389739 eV
  | XC energy correction          :         -54.98790596 Ha       -1496.29705200 eV
  | XC potential correction       :          70.27515090 Ha        1912.28415183 eV
  | Free-atom electrostatic energy:        -214.56095212 Ha       -5838.50056675 eV
  | Hartree energy correction     :          -2.76262383 Ha         -75.17481914 eV
  | van der Waals energy corr.    :           0.00000000 Ha           0.00000000 eV
  | Entropy correction            :           0.00000000 Ha           0.00000000 eV
  | ---------------------------
  | Total energy                  :        -459.51877911 Ha      -12504.14218345 eV
  | Total energy, T -> 0          :        -459.51877911 Ha      -12504.14218345 eV  <-- do not rely on this value for anything but (periodic) metals
  | Electronic free energy        :        -459.51877911 Ha      -12504.14218345 eV

  Derived energy quantities:
  | Kinetic energy                :         456.75171059 Ha       12428.84641802 eV
  | Electrostatic energy          :        -861.28258375 Ha      -23436.69154947 eV
  | Energy correction for multipole
  | error in Hartree potential    :          -0.00009517 Ha          -0.00258974 eV
  | Sum of eigenvalues per atom                           :        -389.24743874 eV
  | Total energy (T->0) per atom                          :        -694.67456575 eV  <-- do not rely on this value for anything but (periodic) metals
  | Electronic free energy per atom                       :        -694.67456575 eV

  Self-consistency convergence accuracy:
  | Change of charge density      : 0.7291E+00
  | Change of sum of eigenvalues  : 0.7773E+02 eV
  | Change of total energy        : 0.4991E+01 eV

  End self-consistency iteration #     1       :  max(cpu_time)    wall_clock(cpu1)
  | Time for this iteration                    :        2.762 s           2.762 s
  | Charge density update                      :        0.871 s           0.871 s
  | Density mixing                             :        0.004 s           0.004 s
  | Hartree multipole update                   :        0.006 s           0.006 s
  | Hartree multipole summation                :        0.475 s           0.475 s
  | Integration                                :        1.323 s           1.323 s
  | Solution of K.-S. eqns.                    :        0.082 s           0.082 s
  | Total energy evaluation                    :        0.000 s           0.000 s
------------------------------------------------------------

------------------------------------------------------------
          Begin self-consistency iteration #    2

  Date     :  20150727, Time     :  114322.707
------------------------------------------------------------
  Evaluating new KS density.
  Integration grid: deviation in total charge (<rho> - N_e) =  -7.105427E-15
  Pulay mixing of updated and previous charge densities.

  Evaluating partitioned Hartree potential by multipole expansion.
  | Analytical far-field extrapolation by fixed multipoles:
  | Hartree multipole sum: apparent total charge =  -0.742414E-05
  Summing up the Hartree potential.
  Time summed over all CPUs for potential: real work        3.779 s, elapsed        3.796 s
  | RMS charge density error from multipole expansion :   0.721632E-02

  Integrating Hamiltonian matrix: batch-based integration.
  Time summed over all CPUs for integration: real work       10.294 s, elapsed       10.523 s

  Updating Kohn-Sham eigenvalues, eigenvectors, occupation numbers, and Fermi level.
  Solving generalized eigenproblem
  Updating Kohn-Sham eigenvalues and eigenfunctions.
  Solving real generalised eigenvalue problem by standard LAPACK (fast)
  Determining occupation numbers for Kohn-Sham eigenstates.
  | Chemical potential (Fermi level) in eV                 : -.33359567E+01
  | Error in electron count due to remaining E_F inaccuracy: 0.00000000E+00
  | Maximum occupation number of highest empty state:  0.00E+00

  Highest occupied state (VBM) at     -5.34012879 eV
  | Occupation number:      2.00000000

  Lowest unoccupied state (CBM) at    -2.27927218 eV
  | Occupation number:      0.00000000

  Overall HOMO-LUMO gap:      3.06085661 eV.

  Total energy components:
  | Sum of eigenvalues            :        -250.64770139 Ha       -6820.47097668 eV
  | XC energy correction          :         -55.71193895 Ha       -1515.99899195 eV
  | XC potential correction       :          71.22129132 Ha        1938.02994263 eV
  | Free-atom electrostatic energy:        -214.56095212 Ha       -5838.50056675 eV
  | Hartree energy correction     :          -9.60072380 Ha        -261.24898682 eV
  | van der Waals energy corr.    :           0.00000000 Ha           0.00000000 eV
  | Entropy correction            :           0.00000000 Ha           0.00000000 eV
  | ---------------------------
  | Total energy                  :        -459.30002494 Ha      -12498.18957958 eV
  | Total energy, T -> 0          :        -459.30002494 Ha      -12498.18957958 eV  <-- do not rely on this value for anything but (periodic) metals
  | Electronic free energy        :        -459.30002494 Ha      -12498.18957958 eV

  Derived energy quantities:
  | Kinetic energy                :         460.27563297 Ha       12524.73722459 eV
  | Electrostatic energy          :        -863.86371896 Ha      -23506.92781222 eV
  | Energy correction for multipole
  | error in Hartree potential    :          -0.00128007 Ha          -0.03483258 eV
  | Sum of eigenvalues per atom                           :        -378.91505426 eV
  | Total energy (T->0) per atom                          :        -694.34386553 eV  <-- do not rely on this value for anything but (periodic) metals
  | Electronic free energy per atom                       :        -694.34386553 eV

  Self-consistency convergence accuracy:
  | Change of charge density      : 0.5518E+00
  | Change of sum of eigenvalues  : 0.1860E+03 eV
  | Change of total energy        : 0.5953E+01 eV

  End self-consistency iteration #     2       :  max(cpu_time)    wall_clock(cpu1)
  | Time for this iteration                    :        2.753 s           2.753 s
  | Charge density update                      :        0.866 s           0.866 s
  | Density mixing                             :        0.006 s           0.006 s
  | Hartree multipole update                   :        0.006 s           0.006 s
  | Hartree multipole summation                :        0.475 s           0.476 s
  | Integration                                :        1.318 s           1.317 s
  | Solution of K.-S. eqns.                    :        0.081 s           0.081 s
  | Total energy evaluation                    :        0.000 s           0.000 s
------------------------------------------------------------

------------------------------------------------------------
          Begin self-consistency iteration #    3

  Date     :  20150727, Time     :  114325.460
------------------------------------------------------------
  Evaluating new KS density.
  Integration grid: deviation in total charge (<rho> - N_e) =   4.263256E-14
  Pulay mixing of updated and previous charge densities.

  Evaluating partitioned Hartree potential by multipole expansion.
  | Analytical far-field extrapolation by fixed multipoles:
  | Hartree multipole sum: apparent total charge =  -0.754778E-05
  Summing up the Hartree potential.
  Time summed over all CPUs for potential: real work        3.779 s, elapsed        3.795 s
  | RMS charge density error from multipole expansion :   0.142230E-01

  Integrating Hamiltonian matrix: batch-based integration.
  Time summed over all CPUs for integration: real work       10.299 s, elapsed       10.529 s

  Updating Kohn-Sham eigenvalues, eigenvectors, occupation numbers, and Fermi level.
  Solving generalized eigenproblem
  Updating Kohn-Sham eigenvalues and eigenfunctions.
  Solving real generalised eigenvalue problem by standard LAPACK (fast)
  Determining occupation numbers for Kohn-Sham eigenstates.
  | Chemical potential (Fermi level) in eV                 : -.35264331E+01
  | Error in electron count due to remaining E_F inaccuracy: 0.00000000E+00
  | Maximum occupation number of highest empty state:  0.00E+00

  Highest occupied state (VBM) at     -5.05431435 eV
  | Occupation number:      2.00000000

  Lowest unoccupied state (CBM) at    -2.34183424 eV
  | Occupation number:      0.00000000

  Overall HOMO-LUMO gap:      2.71248011 eV.

  Total energy components:
  | Sum of eigenvalues            :        -250.90797618 Ha       -6827.55341394 eV
  | XC energy correction          :         -55.66550495 Ha       -1514.73545850 eV
  | XC potential correction       :          71.15449322 Ha        1936.21227395 eV
  | Free-atom electrostatic energy:        -214.56095212 Ha       -5838.50056675 eV
  | Hartree energy correction     :          -9.31247962 Ha        -253.40546358 eV
  | van der Waals energy corr.    :           0.00000000 Ha           0.00000000 eV
  | Entropy correction            :           0.00000000 Ha           0.00000000 eV
  | ---------------------------
  | Total energy                  :        -459.29241964 Ha      -12497.98262882 eV
  | Total energy, T -> 0          :        -459.29241964 Ha      -12497.98262882 eV  <-- do not rely on this value for anything but (periodic) metals
  | Electronic free energy        :        -459.29241964 Ha      -12497.98262882 eV

  Derived energy quantities:
  | Kinetic energy                :         457.81842341 Ha       12457.87315053 eV
  | Electrostatic energy          :        -861.44533810 Ha      -23441.12032085 eV
  | Energy correction for multipole
  | error in Hartree potential    :          -0.00617267 Ha          -0.16796686 eV
  | Sum of eigenvalues per atom                           :        -379.30852300 eV
  | Total energy (T->0) per atom                          :        -694.33236827 eV  <-- do not rely on this value for anything but (periodic) metals
  | Electronic free energy per atom                       :        -694.33236827 eV

  Self-consistency convergence accuracy:
  | Change of charge density      : 0.2745E+00
  | Change of sum of eigenvalues  : -.7082E+01 eV
  | Change of total energy        : 0.2070E+00 eV

  End self-consistency iteration #     3       :  max(cpu_time)    wall_clock(cpu1)
  | Time for this iteration                    :        2.754 s           2.753 s
  | Charge density update                      :        0.863 s           0.862 s
  | Density mixing                             :        0.008 s           0.009 s
  | Hartree multipole update                   :        0.007 s           0.006 s
  | Hartree multipole summation                :        0.475 s           0.475 s
  | Integration                                :        1.318 s           1.318 s
  | Solution of K.-S. eqns.                    :        0.082 s           0.082 s
  | Total energy evaluation                    :        0.000 s           0.000 s
------------------------------------------------------------

------------------------------------------------------------
          Begin self-consistency iteration #    4

  Date     :  20150727, Time     :  114328.213
------------------------------------------------------------
  Evaluating new KS density.
  Integration grid: deviation in total charge (<rho> - N_e) =   1.421085E-14
  Pulay mixing of updated and previous charge densities.

  Evaluating partitioned Hartree potential by multipole expansion.
  | Analytical far-field extrapolation by fixed multipoles:
  | Hartree multipole sum: apparent total charge =  -0.929265E-05
  Summing up the Hartree potential.
  Time summed over all CPUs for potential: real work        3.779 s, elapsed        3.795 s
  | RMS charge density error from multipole expansion :   0.190537E-01

  Integrating Hamiltonian matrix: batch-based integration.
  Time summed over all CPUs for integration: real work       10.299 s, elapsed       10.540 s

  Updating Kohn-Sham eigenvalues, eigenvectors, occupation numbers, and Fermi level.
  Solving generalized eigenproblem
  Updating Kohn-Sham eigenvalues and eigenfunctions.
  Solving real generalised eigenvalue problem by standard LAPACK (fast)
  Determining occupation numbers for Kohn-Sham eigenstates.
  | Chemical potential (Fermi level) in eV                 : -.29215089E+01
  | Error in electron count due to remaining E_F inaccuracy: 0.00000000E+00
  | Maximum occupation number of highest empty state:  0.00E+00

  Highest occupied state (VBM) at     -3.52657368 eV
  | Occupation number:      2.00000000

  Lowest unoccupied state (CBM) at    -2.29316641 eV
  | Occupation number:      0.00000000

  Overall HOMO-LUMO gap:      1.23340727 eV.

  Total energy components:
  | Sum of eigenvalues            :        -248.59913799 Ha       -6764.72673011 eV
  | XC energy correction          :         -55.93040378 Ha       -1521.94372240 eV
  | XC potential correction       :          71.49936486 Ha        1945.59670871 eV
  | Free-atom electrostatic energy:        -214.56095212 Ha       -5838.50056675 eV
  | Hartree energy correction     :         -11.68530759 Ha        -317.97339785 eV
  | van der Waals energy corr.    :           0.00000000 Ha           0.00000000 eV
  | Entropy correction            :           0.00000000 Ha           0.00000000 eV
  | ---------------------------
  | Total energy                  :        -459.27643661 Ha      -12497.54770840 eV
  | Total energy, T -> 0          :        -459.27643661 Ha      -12497.54770840 eV  <-- do not rely on this value for anything but (periodic) metals
  | Electronic free energy        :        -459.27643661 Ha      -12497.54770840 eV

  Derived energy quantities:
  | Kinetic energy                :         458.01650851 Ha       12463.26332046 eV
  | Electrostatic energy          :        -861.36254135 Ha      -23438.86730645 eV
  | Energy correction for multipole
  | error in Hartree potential    :          -0.00870309 Ha          -0.23682308 eV
  | Sum of eigenvalues per atom                           :        -375.81815167 eV
  | Total energy (T->0) per atom                          :        -694.30820602 eV  <-- do not rely on this value for anything but (periodic) metals
  | Electronic free energy per atom                       :        -694.30820602 eV

  Self-consistency convergence accuracy:
  | Change of charge density      : 0.1576E+00
  | Change of sum of eigenvalues  : 0.6283E+02 eV
  | Change of total energy        : 0.4349E+00 eV

  End self-consistency iteration #     4       :  max(cpu_time)    wall_clock(cpu1)
  | Time for this iteration                    :        2.757 s           2.757 s
  | Charge density update                      :        0.864 s           0.863 s
  | Density mixing                             :        0.010 s           0.010 s
  | Hartree multipole update                   :        0.006 s           0.007 s
  | Hartree multipole summation                :        0.475 s           0.475 s
  | Integration                                :        1.320 s           1.319 s
  | Solution of K.-S. eqns.                    :        0.081 s           0.082 s
  | Total energy evaluation                    :        0.000 s           0.000 s
------------------------------------------------------------

------------------------------------------------------------
          Begin self-consistency iteration #    5

  Date     :  20150727, Time     :  114330.970
------------------------------------------------------------
  Evaluating new KS density.
  Integration grid: deviation in total charge (<rho> - N_e) =   2.842171E-14
  Pulay mixing of updated and previous charge densities.

  Evaluating partitioned Hartree potential by multipole expansion.
  | Analytical far-field extrapolation by fixed multipoles:
  | Hartree multipole sum: apparent total charge =  -0.920650E-05
  Summing up the Hartree potential.
  Time summed over all CPUs for potential: real work        3.778 s, elapsed        3.794 s
  | RMS charge density error from multipole expansion :   0.195239E-01

  Integrating Hamiltonian matrix: batch-based integration.
  Time summed over all CPUs for integration: real work       10.306 s, elapsed       10.558 s

  Updating Kohn-Sham eigenvalues, eigenvectors, occupation numbers, and Fermi level.
  Solving generalized eigenproblem
  Updating Kohn-Sham eigenvalues and eigenfunctions.
  Solving real generalised eigenvalue problem by standard LAPACK (fast)
  Determining occupation numbers for Kohn-Sham eigenstates.
  | Chemical potential (Fermi level) in eV                 : -.29125583E+01
  | Error in electron count due to remaining E_F inaccuracy: 0.00000000E+00
  | Maximum occupation number of highest empty state:  0.00E+00

  Highest occupied state (VBM) at     -3.50763919 eV
  | Occupation number:      2.00000000

  Lowest unoccupied state (CBM) at    -2.27973203 eV
  | Occupation number:      0.00000000

  Overall HOMO-LUMO gap:      1.22790716 eV.

  Total energy components:
  | Sum of eigenvalues            :        -248.55414618 Ha       -6763.50244079 eV
  | XC energy correction          :         -55.94290772 Ha       -1522.28397200 eV
  | XC potential correction       :          71.51500555 Ha        1946.02231364 eV
  | Free-atom electrostatic energy:        -214.56095212 Ha       -5838.50056675 eV
  | Hartree energy correction     :         -11.73318419 Ha        -319.27618649 eV
  | van der Waals energy corr.    :           0.00000000 Ha           0.00000000 eV
  | Entropy correction            :           0.00000000 Ha           0.00000000 eV
  | ---------------------------
  | Total energy                  :        -459.27618466 Ha      -12497.54085239 eV
  | Total energy, T -> 0          :        -459.27618466 Ha      -12497.54085239 eV  <-- do not rely on this value for anything but (periodic) metals
  | Electronic free energy        :        -459.27618466 Ha      -12497.54085239 eV

  Derived energy quantities:
  | Kinetic energy                :         458.08546546 Ha       12465.13973444 eV
  | Electrostatic energy          :        -861.41874240 Ha      -23440.39661484 eV
  | Energy correction for multipole
  | error in Hartree potential    :          -0.00870211 Ha          -0.23679635 eV
  | Sum of eigenvalues per atom                           :        -375.75013560 eV
  | Total energy (T->0) per atom                          :        -694.30782513 eV  <-- do not rely on this value for anything but (periodic) metals
  | Electronic free energy per atom                       :        -694.30782513 eV

  Self-consistency convergence accuracy:
  | Change of charge density      : 0.3036E-01
  | Change of sum of eigenvalues  : 0.1224E+01 eV
  | Change of total energy        : 0.6856E-02 eV

  End self-consistency iteration #     5       :  max(cpu_time)    wall_clock(cpu1)
  | Time for this iteration                    :        2.764 s           2.763 s
  | Charge density update                      :        0.866 s           0.866 s
  | Density mixing                             :        0.012 s           0.011 s
  | Hartree multipole update                   :        0.006 s           0.006 s
  | Hartree multipole summation                :        0.475 s           0.476 s
  | Integration                                :        1.322 s           1.322 s
  | Solution of K.-S. eqns.                    :        0.082 s           0.082 s
  | Total energy evaluation                    :        0.000 s           0.000 s
------------------------------------------------------------

------------------------------------------------------------
          Begin self-consistency iteration #    6

  Date     :  20150727, Time     :  114333.733
------------------------------------------------------------
  Evaluating new KS density.
  Integration grid: deviation in total charge (<rho> - N_e) =   7.105427E-15
  Pulay mixing of updated and previous charge densities.

  Evaluating partitioned Hartree potential by multipole expansion.
  | Analytical far-field extrapolation by fixed multipoles:
  | Hartree multipole sum: apparent total charge =  -0.916043E-05
  Summing up the Hartree potential.
  Time summed over all CPUs for potential: real work        3.778 s, elapsed        3.795 s
  | RMS charge density error from multipole expansion :   0.196683E-01

  Integrating Hamiltonian matrix: batch-based integration.
  Time summed over all CPUs for integration: real work       10.301 s, elapsed       10.559 s

  Updating Kohn-Sham eigenvalues, eigenvectors, occupation numbers, and Fermi level.
  Solving generalized eigenproblem
  Updating Kohn-Sham eigenvalues and eigenfunctions.
  Solving real generalised eigenvalue problem by standard LAPACK (fast)
  Determining occupation numbers for Kohn-Sham eigenstates.
  | Chemical potential (Fermi level) in eV                 : -.29170617E+01
  | Error in electron count due to remaining E_F inaccuracy: 0.00000000E+00
  | Maximum occupation number of highest empty state:  0.00E+00

  Highest occupied state (VBM) at     -3.52795203 eV
  | Occupation number:      2.00000000

  Lowest unoccupied state (CBM) at    -2.27759220 eV
  | Occupation number:      0.00000000

  Overall HOMO-LUMO gap:      1.25035982 eV.

  Total energy components:
  | Sum of eigenvalues            :        -248.56959958 Ha       -6763.92294920 eV
  | XC energy correction          :         -55.94372116 Ha       -1522.30610673 eV
  | XC potential correction       :          71.51578953 Ha        1946.04364663 eV
  | Free-atom electrostatic energy:        -214.56095212 Ha       -5838.50056675 eV
  | Hartree energy correction     :         -11.71767655 Ha        -318.85420216 eV
  | van der Waals energy corr.    :           0.00000000 Ha           0.00000000 eV
  | Entropy correction            :           0.00000000 Ha           0.00000000 eV
  | ---------------------------
  | Total energy                  :        -459.27615988 Ha      -12497.54017820 eV
  | Total energy, T -> 0          :        -459.27615988 Ha      -12497.54017820 eV  <-- do not rely on this value for anything but (periodic) metals
  | Electronic free energy        :        -459.27615988 Ha      -12497.54017820 eV

  Derived energy quantities:
  | Kinetic energy                :         458.09929887 Ha       12465.51616084 eV
  | Electrostatic energy          :        -861.43173760 Ha      -23440.75023232 eV
  | Energy correction for multipole
  | error in Hartree potential    :          -0.00868801 Ha          -0.23641279 eV
  | Sum of eigenvalues per atom                           :        -375.77349718 eV
  | Total energy (T->0) per atom                          :        -694.30778768 eV  <-- do not rely on this value for anything but (periodic) metals
  | Electronic free energy per atom                       :        -694.30778768 eV

  Self-consistency convergence accuracy:
  | Change of charge density      : 0.1417E-01
  | Change of sum of eigenvalues  : -.4205E+00 eV
  | Change of total energy        : 0.6742E-03 eV

  End self-consistency iteration #     6       :  max(cpu_time)    wall_clock(cpu1)
  | Time for this iteration                    :        2.764 s           2.763 s
  | Charge density update                      :        0.865 s           0.865 s
  | Density mixing                             :        0.013 s           0.013 s
  | Hartree multipole update                   :        0.006 s           0.006 s
  | Hartree multipole summation                :        0.475 s           0.475 s
  | Integration                                :        1.322 s           1.322 s
  | Solution of K.-S. eqns.                    :        0.082 s           0.082 s
  | Total energy evaluation                    :        0.001 s           0.000 s
------------------------------------------------------------

------------------------------------------------------------
          Begin self-consistency iteration #    7

  Date     :  20150727, Time     :  114336.497
------------------------------------------------------------
  Evaluating new KS density.
  Integration grid: deviation in total charge (<rho> - N_e) =   2.842171E-14
  Pulay mixing of updated and previous charge densities.

  Evaluating partitioned Hartree potential by multipole expansion.
  | Analytical far-field extrapolation by fixed multipoles:
  | Hartree multipole sum: apparent total charge =  -0.889648E-05
  Summing up the Hartree potential.
  Time summed over all CPUs for potential: real work        3.778 s, elapsed        3.794 s
  | RMS charge density error from multipole expansion :   0.196509E-01

  Integrating Hamiltonian matrix: batch-based integration.
  Time summed over all CPUs for integration: real work       10.299 s, elapsed       10.556 s

  Updating Kohn-Sham eigenvalues, eigenvectors, occupation numbers, and Fermi level.
  Solving generalized eigenproblem
  Updating Kohn-Sham eigenvalues and eigenfunctions.
  Solving real generalised eigenvalue problem by standard LAPACK (fast)
  Determining occupation numbers for Kohn-Sham eigenstates.
  | Chemical potential (Fermi level) in eV                 : -.29667712E+01
  | Error in electron count due to remaining E_F inaccuracy: 0.00000000E+00
  | Maximum occupation number of highest empty state:  0.00E+00

  Highest occupied state (VBM) at     -3.70781655 eV
  | Occupation number:      2.00000000

  Lowest unoccupied state (CBM) at    -2.28191229 eV
  | Occupation number:      0.00000000

  Overall HOMO-LUMO gap:      1.42590426 eV.

  Total energy components:
  | Sum of eigenvalues            :        -248.76078678 Ha       -6769.12541758 eV
  | XC energy correction          :         -55.92784330 Ha       -1521.87404838 eV
  | XC potential correction       :          71.49433690 Ha        1945.45989083 eV
  | Free-atom electrostatic energy:        -214.56095212 Ha       -5838.50056675 eV
  | Hartree energy correction     :         -11.52076238 Ha        -313.49589481 eV
  | van der Waals energy corr.    :           0.00000000 Ha           0.00000000 eV
  | Entropy correction            :           0.00000000 Ha           0.00000000 eV
  | ---------------------------
  | Total energy                  :        -459.27600768 Ha      -12497.53603670 eV
  | Total energy, T -> 0          :        -459.27600768 Ha      -12497.53603670 eV  <-- do not rely on this value for anything but (periodic) metals
  | Electronic free energy        :        -459.27600768 Ha      -12497.53603670 eV

  Derived energy quantities:
  | Kinetic energy                :         458.17445378 Ha       12467.56122995 eV
  | Electrostatic energy          :        -861.52261816 Ha      -23443.22321827 eV
  | Energy correction for multipole
  | error in Hartree potential    :          -0.00839120 Ha          -0.22833625 eV
  | Sum of eigenvalues per atom                           :        -376.06252320 eV
  | Total energy (T->0) per atom                          :        -694.30755759 eV  <-- do not rely on this value for anything but (periodic) metals
  | Electronic free energy per atom                       :        -694.30755759 eV

  Self-consistency convergence accuracy:
  | Change of charge density      : 0.1215E-01
  | Change of sum of eigenvalues  : -.5202E+01 eV
  | Change of total energy        : 0.4142E-02 eV

  End self-consistency iteration #     7       :  max(cpu_time)    wall_clock(cpu1)
  | Time for this iteration                    :        2.764 s           2.764 s
  | Charge density update                      :        0.865 s           0.865 s
  | Density mixing                             :        0.015 s           0.014 s
  | Hartree multipole update                   :        0.006 s           0.007 s
  | Hartree multipole summation                :        0.475 s           0.475 s
  | Integration                                :        1.322 s           1.321 s
  | Solution of K.-S. eqns.                    :        0.081 s           0.080 s
  | Total energy evaluation                    :        0.000 s           0.001 s
------------------------------------------------------------

------------------------------------------------------------
          Begin self-consistency iteration #    8

  Date     :  20150727, Time     :  114339.261
------------------------------------------------------------
  Evaluating new KS density.
  Integration grid: deviation in total charge (<rho> - N_e) =  -2.842171E-14
  Pulay mixing of updated and previous charge densities.

  Evaluating partitioned Hartree potential by multipole expansion.
  | Analytical far-field extrapolation by fixed multipoles:
  | Hartree multipole sum: apparent total charge =  -0.891708E-05
  Summing up the Hartree potential.
  Time summed over all CPUs for potential: real work        3.778 s, elapsed        3.794 s
  | RMS charge density error from multipole expansion :   0.197248E-01

  Integrating Hamiltonian matrix: batch-based integration.
  Time summed over all CPUs for integration: real work       10.293 s, elapsed       10.557 s

  Updating Kohn-Sham eigenvalues, eigenvectors, occupation numbers, and Fermi level.
  Solving generalized eigenproblem
  Updating Kohn-Sham eigenvalues and eigenfunctions.
  Solving real generalised eigenvalue problem by standard LAPACK (fast)
  Determining occupation numbers for Kohn-Sham eigenstates.
  | Chemical potential (Fermi level) in eV                 : -.29592323E+01
  | Error in electron count due to remaining E_F inaccuracy: 0.00000000E+00
  | Maximum occupation number of highest empty state:  0.00E+00

  Highest occupied state (VBM) at     -3.67118819 eV
  | Occupation number:      2.00000000

  Lowest unoccupied state (CBM) at    -2.28254778 eV
  | Occupation number:      0.00000000

  Overall HOMO-LUMO gap:      1.38864041 eV.

  Total energy components:
  | Sum of eigenvalues            :        -248.73115073 Ha       -6768.31897959 eV
  | XC energy correction          :         -55.93074617 Ha       -1521.95303932 eV
  | XC potential correction       :          71.49810452 Ha        1945.56241302 eV
  | Free-atom electrostatic energy:        -214.56095212 Ha       -5838.50056675 eV
  | Hartree energy correction     :         -11.55126213 Ha        -314.32583534 eV
  | van der Waals energy corr.    :           0.00000000 Ha           0.00000000 eV
  | Entropy correction            :           0.00000000 Ha           0.00000000 eV
  | ---------------------------
  | Total energy                  :        -459.27600663 Ha      -12497.53600799 eV
  | Total energy, T -> 0          :        -459.27600663 Ha      -12497.53600799 eV  <-- do not rely on this value for anything but (periodic) metals
  | Electronic free energy        :        -459.27600663 Ha      -12497.53600799 eV

  Derived energy quantities:
  | Kinetic energy                :         458.17646623 Ha       12467.61599155 eV
  | Electrostatic energy          :        -861.52172670 Ha      -23443.19896022 eV
  | Energy correction for multipole
  | error in Hartree potential    :          -0.00844405 Ha          -0.22977420 eV
  | Sum of eigenvalues per atom                           :        -376.01772109 eV
  | Total energy (T->0) per atom                          :        -694.30755600 eV  <-- do not rely on this value for anything but (periodic) metals
  | Electronic free energy per atom                       :        -694.30755600 eV

  Self-consistency convergence accuracy:
  | Change of charge density      : 0.2429E-02
  | Change of sum of eigenvalues  : 0.8064E+00 eV
  | Change of total energy        : 0.2871E-04 eV

  End self-consistency iteration #     8       :  max(cpu_time)    wall_clock(cpu1)
  | Time for this iteration                    :        2.764 s           2.764 s
  | Charge density update                      :        0.862 s           0.862 s
  | Density mixing                             :        0.017 s           0.017 s
  | Hartree multipole update                   :        0.006 s           0.006 s
  | Hartree multipole summation                :        0.475 s           0.475 s
  | Integration                                :        1.322 s           1.322 s
  | Solution of K.-S. eqns.                    :        0.082 s           0.082 s
  | Total energy evaluation                    :        0.000 s           0.000 s
------------------------------------------------------------

------------------------------------------------------------
          Begin self-consistency iteration #    9

  Date     :  20150727, Time     :  114342.025
------------------------------------------------------------
  Evaluating new KS density.
  Integration grid: deviation in total charge (<rho> - N_e) =   7.105427E-15
  Pulay mixing of updated and previous charge densities.

[...]
   Pulay + GGA                   : 0.132585E+02 0.497637E+01 -.117867E+01
   Van der Waals               : 0.350370E-02 -.654734E-02 -.151534E-02
   ----------------------------------------------------------------
   Total forces(  13)            : 0.144998E+01 0.157888E+01 -.662095E+00
  atom #   14
   Hellmann-Feynman + Multipole  : -.573185E+00 0.234747E-01 -.845726E-01
   Pulay + GGA                   : 0.125505E+00 -.537111E-01 0.324441E-01
   Van der Waals               : 0.738128E-03 -.790579E-02 -.267210E-02
   ----------------------------------------------------------------
   Total forces(  14)            : -.446943E+00 -.381421E-01 -.548007E-01
  atom #   15
   Hellmann-Feynman + Multipole  : -.758718E+00 -.140734E+01 0.668113E+00
   Pulay + GGA                   : 0.442811E-01 0.990132E-01 -.568393E-01
   Van der Waals               : 0.506738E-03 -.111153E-02 -.807409E-03
   ----------------------------------------------------------------
   Total forces(  15)            : -.713930E+00 -.130944E+01 0.610466E+00
  atom #   16
   Hellmann-Feynman + Multipole  : 0.809384E+00 -.157771E+02 0.160245E+01
   Pulay + GGA                   : 0.322931E+00 0.159895E+02 -.302247E+01
   Van der Waals               : 0.158050E-02 -.793420E-02 -.446372E-02
   ----------------------------------------------------------------
   Total forces(  16)            : 0.113390E+01 0.204474E+00 -.142448E+01
  atom #   17
   Hellmann-Feynman + Multipole  : -.273735E+00 0.450993E+00 0.244070E+00
   Pulay + GGA                   : -.611323E-01 0.970612E-01 0.846227E-01
   Van der Waals               : 0.277738E-02 -.127468E-02 -.370868E-02
   ----------------------------------------------------------------
   Total forces(  17)            : -.332090E+00 0.546779E+00 0.324984E+00
  atom #   18
   Hellmann-Feynman + Multipole  : -.987579E+00 -.862131E+00 0.139451E+01
   Pulay + GGA                   : 0.375047E-01 0.701163E-01 -.620572E-01
   Van der Waals               : -.226331E-02 -.424188E-02 0.254954E-02
   ----------------------------------------------------------------
   Total forces(  18)            : -.952338E+00 -.796257E+00 0.133500E+01
  Timings for vdw_correction_hirshfeld (Tkatchenko-Scheffler 2009):
  | CPU time:        7.370 s, Wall clock time:        7.373 s.
  Removing unitary transformations (pure translations, rotations) from forces on atoms.
  Atomic forces before filtering:
  | Net force on center of mass :  0.101354E-01 0.511921E-02 -.463480E-02 eV/A
  | Net torque on center of mass:  -.682986E-02 0.169804E-01 -.179658E-01 eV
  Atomic forces after filtering:
  | Net force on center of mass :  -.178406E-15 -.178406E-15 0.178406E-15 eV/A
  | Net torque on center of mass:  0.755268E-15 0.000000E+00 -.151054E-14 eV
 
  Energy and forces in a compact form:
  | Total energy uncorrected      :         -0.124976270255678E+05 eV
  | Total energy corrected        :         -0.124976270255678E+05 eV  <-- do not rely on this value for anything but (periodic) metals
  | Electronic free energy        :         -0.124976270255678E+05 eV
  Total atomic forces (unitary forces cleaned) [eV/Ang]:
  |   1         -0.224292327179203E+00          0.259511494609039E+01         -0.172315012466843E+01
  |   2          0.182904206015813E+01         -0.320229775418357E+01          0.125434821809699E+01
  |   3         -0.230316053810081E+01         -0.732349699611249E+00         -0.251495501742970E+00
  |   4         -0.276554844138153E+00         -0.147370400666061E+01         -0.312925726053861E+00
  |   5         -0.483381959760972E+00          0.562580131700106E+00          0.968964739138752E+00
  |   6          0.558608595060982E+00          0.812014556641948E+00          0.302617181900665E+00
  |   7         -0.967026538855685E-01          0.784076243123390E+00          0.213232720735277E+01
  |   8         -0.343618260211140E+00         -0.356489756400442E+00         -0.204623297878295E+00
  |   9         -0.296172029170258E+00          0.336792182996844E+00         -0.238607915536979E+01
  |  10          0.308842743215673E+01          0.555876217519581E+00          0.147368187043476E+01
  |  11         -0.995374400623948E-01         -0.102402138439191E+01         -0.110865152153485E+01
  |  12         -0.148448908504470E+01          0.958781971511003E+00         -0.275947276819239E+00
  |  13          0.144910516358271E+01          0.157862382445924E+01         -0.661650670249854E+00
  |  14         -0.447828437174779E+00         -0.382871647912758E-01         -0.541931968585726E-01
  |  15         -0.714850040746715E+00         -0.130960511967792E+01          0.611057458208783E+00
  |  16          0.113258291234299E+01          0.203764970301741E+00         -0.142444103868889E+01
  |  17         -0.333627029814859E+00          0.545953483554103E+00          0.324974517695263E+00
  |  18         -0.953551518011998E+00         -0.796823642181368E+00          0.133518631703677E+01
 
  ------------------------------------ 
  Start decomposition of the XC Energy 
  ------------------------------------ 
  Hartree-Fock part   :          0.000000000 Ha              0.000000000 eV
  ------------------------------------ 
  X Energy            :        -53.962237203 Ha          -1468.387185001 eV
  C Energy GGA        :         -1.967092575 Ha            -53.527312409 eV
  Total XC Energy     :        -55.929329778 Ha          -1521.914497410 eV
  LDA X and C from self-consistent density 
  X Energy LDA        :        -48.638241696 Ha          -1323.513896187 eV
  C Energy LDA        :         -3.961346049 Ha           -107.793710471 eV
  ------------------------------------ 
  End decomposition of the XC Energy 
  ------------------------------------ 
  Performing Hirshfeld analysis of fragment charges and moments.
  ----------------------------------------------------------------------
  | Atom     1: O
  |   Hirshfeld charge        :     -0.40024094
  |   Free atom volume        :     23.95238533
  |   Hirshfeld volume        :     24.50843210
  |   Hirshfeld dipole vector :      0.01876155       0.06575592       0.02883233
  |   Hirshfeld dipole moment :      0.07421011
  |   Hirshfeld second moments:     -0.00887093      -0.02025441       0.01418279
  |                                 -0.02025441      -0.07431152      -0.03392567
  |                                  0.01418279      -0.03392567      -0.09345585
  ----------------------------------------------------------------------
  | Atom     2: H
  |   Hirshfeld charge        :      0.05345771
  |   Free atom volume        :     10.44207651
  |   Hirshfeld volume        :      8.77446125
  |   Hirshfeld dipole vector :     -0.02373037       0.04122323      -0.00783960
  |   Hirshfeld dipole moment :      0.04820731
  |   Hirshfeld second moments:      0.06126483       0.02819338       0.00228160
  |                                  0.02819338       0.01746765       0.00687416
  |                                  0.00228160       0.00687416       0.05579297
  ----------------------------------------------------------------------
  | Atom     3: H
  |   Hirshfeld charge        :      0.03818459
  |   Free atom volume        :     10.44207651
  |   Hirshfeld volume        :      8.85399832
  |   Hirshfeld dipole vector :      0.04924516       0.01530270       0.01744840
  |   Hirshfeld dipole moment :      0.05443993
  |   Hirshfeld second moments:      0.02042432      -0.02762953      -0.00159632
  |                                 -0.02762953       0.05978448      -0.00579648
  |                                 -0.00159632      -0.00579648       0.04703106
  ----------------------------------------------------------------------
  | Atom     4: O
  |   Hirshfeld charge        :     -0.28509656
  |   Free atom volume        :     23.95238533
  |   Hirshfeld volume        :     22.05243291
  |   Hirshfeld dipole vector :     -0.03535373       0.02358428       0.01451631
  |   Hirshfeld dipole moment :      0.04490910
  |   Hirshfeld second moments:      0.02479628       0.05829224      -0.00762273
  |                                  0.05829224       0.02844987       0.02623980
  |                                 -0.00762273       0.02623980      -0.00477932
  ----------------------------------------------------------------------
  | Atom     5: H
  |   Hirshfeld charge        :      0.12151380
  |   Free atom volume        :     10.44207651
  |   Hirshfeld volume        :      7.26078452
  |   Hirshfeld dipole vector :      0.03572552       0.08920536       0.05482998
  |   Hirshfeld dipole moment :      0.11063560
  |   Hirshfeld second moments:      0.10642608       0.02254398      -0.00679498
  |                                  0.02254398       0.07948907       0.00040555
  |                                 -0.00679498       0.00040555       0.09002879
  ----------------------------------------------------------------------
  | Atom     6: H
  |   Hirshfeld charge        :      0.13737329
  |   Free atom volume        :     10.44207651
  |   Hirshfeld volume        :      6.78830907
  |   Hirshfeld dipole vector :     -0.10382631      -0.06196671       0.01864715
  |   Hirshfeld dipole moment :      0.12234170
  |   Hirshfeld second moments:      0.09769952       0.01421063       0.00029124
  |                                  0.01421063       0.11220297       0.01285502
  |                                  0.00029124       0.01285502       0.09987331
  ----------------------------------------------------------------------
  | Atom     7: O
  |   Hirshfeld charge        :     -0.19895795
  |   Free atom volume        :     23.95238533
  |   Hirshfeld volume        :     20.52804448
  |   Hirshfeld dipole vector :      0.02805355      -0.01354710      -0.01320942
  |   Hirshfeld dipole moment :      0.03383806
  |   Hirshfeld second moments:      0.03453091       0.01324534       0.02625662
  |                                  0.01324534       0.07462245       0.00583246
  |                                  0.02625662       0.00583246       0.09890997
  ----------------------------------------------------------------------
  | Atom     8: H
  |   Hirshfeld charge        :      0.11487045
  |   Free atom volume        :     10.44207651
  |   Hirshfeld volume        :      7.28755364
  |   Hirshfeld dipole vector :      0.02804676       0.04168786       0.01165101
  |   Hirshfeld dipole moment :      0.05157756
  |   Hirshfeld second moments:      0.08170215      -0.02021319      -0.00546506
  |                                 -0.02021319       0.07299398      -0.02605891
  |                                 -0.00546506      -0.02605891       0.10310164
  ----------------------------------------------------------------------
  | Atom     9: H
  |   Hirshfeld charge        :      0.15887083
  |   Free atom volume        :     10.44207651
  |   Hirshfeld volume        :      6.06540319
  |   Hirshfeld dipole vector :     -0.01861236       0.00819984      -0.11823135
  |   Hirshfeld dipole moment :      0.11996795
  |   Hirshfeld second moments:      0.11694570       0.00981898       0.00808784
  |                                  0.00981898       0.13058681       0.00235719
  |                                  0.00808784       0.00235719       0.12211495
  ----------------------------------------------------------------------
  | Atom    10: O
  |   Hirshfeld charge        :     -0.18412052
  |   Free atom volume        :     23.95238533
  |   Hirshfeld volume        :     20.65146469
  |   Hirshfeld dipole vector :     -0.02044348      -0.03444640       0.02974478
  |   Hirshfeld dipole moment :      0.04989231
  |   Hirshfeld second moments:      0.06677095      -0.02920891       0.00649469
  |                                 -0.02920891       0.07594914       0.03860734
  |                                  0.00649469       0.03860734       0.04565288
  ----------------------------------------------------------------------
  | Atom    11: H
  |   Hirshfeld charge        :      0.15760519
  |   Free atom volume        :     10.44207651
  |   Hirshfeld volume        :      6.16473776
  |   Hirshfeld dipole vector :      0.00011455       0.06763458       0.09309028
  |   Hirshfeld dipole moment :      0.11506629
  |   Hirshfeld second moments:      0.12480448      -0.01019374       0.00532293
  |                                 -0.01019374       0.12321349       0.00216053
  |                                  0.00532293       0.00216053       0.11057962
  ----------------------------------------------------------------------
  | Atom    12: H
  |   Hirshfeld charge        :      0.17092330
  |   Free atom volume        :     10.44207651
  |   Hirshfeld volume        :      5.89190724
  |   Hirshfeld dipole vector :      0.08829357      -0.08078020       0.01262575
  |   Hirshfeld dipole moment :      0.12033538
  |   Hirshfeld second moments:      0.12220458       0.00005489       0.00029048
  |                                  0.00005489       0.12697376       0.01583507
  |                                  0.00029048       0.01583507       0.12992205
  ----------------------------------------------------------------------
  | Atom    13: O
  |   Hirshfeld charge        :     -0.15958306
  |   Free atom volume        :     23.95238533
  |   Hirshfeld volume        :     19.50868198
  |   Hirshfeld dipole vector :     -0.00331820      -0.01173932       0.00248705
  |   Hirshfeld dipole moment :      0.01245020
  |   Hirshfeld second moments:      0.09651890      -0.00558320       0.00978604
  |                                 -0.00558320       0.11133630      -0.02674410
  |                                  0.00978604      -0.02674410       0.07638195
  ----------------------------------------------------------------------
  | Atom    14: H
  |   Hirshfeld charge        :      0.17836464
  |   Free atom volume        :     10.44207651
  |   Hirshfeld volume        :      5.86114509
  |   Hirshfeld dipole vector :      0.09468027      -0.04675896       0.04051301
  |   Hirshfeld dipole moment :      0.11310198
  |   Hirshfeld second moments:      0.12797596       0.00970364       0.00121935
  |                                  0.00970364       0.13587573      -0.00738006
  |                                  0.00121935      -0.00738006       0.12543662
  ----------------------------------------------------------------------
  | Atom    15: H
  |   Hirshfeld charge        :      0.18355682
  |   Free atom volume        :     10.44207651
  |   Hirshfeld volume        :      5.27709666
  |   Hirshfeld dipole vector :      0.03218121       0.10262676      -0.05166227
  |   Hirshfeld dipole moment :      0.11931836
  |   Hirshfeld second moments:      0.14954846      -0.00733929       0.00700489
  |                                 -0.00733929       0.13542252      -0.00203560
  |                                  0.00700489      -0.00203560       0.13526903
  ----------------------------------------------------------------------
  | Atom    16: O
  |   Hirshfeld charge        :     -0.31188185
  |   Free atom volume        :     23.95238533
  |   Hirshfeld volume        :     22.28049238
  |   Hirshfeld dipole vector :     -0.00954079       0.04766319      -0.01370423
  |   Hirshfeld dipole moment :      0.05050359
  |   Hirshfeld second moments:     -0.01323946      -0.01993429      -0.05811547
  |                                 -0.01993429       0.00594461       0.00943367
  |                                 -0.05811547       0.00943367       0.02023429
  ----------------------------------------------------------------------
  | Atom    17: H
  |   Hirshfeld charge        :      0.13023778
  |   Free atom volume        :     10.44207651
  |   Hirshfeld volume        :      6.49303186
  |   Hirshfeld dipole vector :     -0.06510618       0.08592525       0.06407817
  |   Hirshfeld dipole moment :      0.12541122
  |   Hirshfeld second moments:      0.10063734       0.00193022      -0.01689120
  |                                  0.00193022       0.10699106      -0.00703432
  |                                 -0.01689120      -0.00703432       0.11537443
  ----------------------------------------------------------------------
  | Atom    18: H
  |   Hirshfeld charge        :      0.09490908
  |   Free atom volume        :     10.44207651
  |   Hirshfeld volume        :      7.58363662
  |   Hirshfeld dipole vector :      0.02112734       0.04071300      -0.04666094
  |   Hirshfeld dipole moment :      0.06543055
  |   Hirshfeld second moments:      0.07214702      -0.01879371       0.01304231
  |                                 -0.01879371       0.09961909       0.01402643
  |                                  0.01304231       0.01402643       0.05402238
  ----------------------------------------------------------------------


------------------------------------------------------------------------------
  Final output of selected total energy values:

  The following output summarizes some interesting total energy values
  at the end of a run (AFTER all relaxation, molecular dynamics, etc.).

  | Total energy of the DFT / Hartree-Fock s.c.f. calculation      :         -12497.627025568 eV
  | Final zero-broadening corrected energy (caution - metals only) :         -12497.627025568 eV
  | For reference only, the value of 1 Hartree used in FHI-aims is :             27.211384500 eV

  Before relying on these values, please be sure to understand exactly which
  total energy value is referred to by a given number. Different objects may
  all carry the same name 'total energy'. Definitions:

  Total energy of the DFT / Hartree-Fock s.c.f. calculation:
  | Note that this energy does not include ANY quantities calculated after the
  | s.c.f. cycle, in particular not ANY RPA, MP2, etc. many-body perturbation terms.

  Final zero-broadening corrected energy:
  | For metallic systems only, a broadening of the occupation numbers at the Fermi
  | level can be extrapolated back to zero broadening by an electron-gas inspired
  | formula. For all systems that are not real metals, this value can be
  | meaningless and should be avoided.

------------------------------------------------------------------------------

------------------------------------------------------------
          Leaving FHI-aims.
          Date     :  20150727, Time     :  114409.756

          Computational steps:
          | Number of self-consistency cycles          :           16

          Detailed time accounting                     :  max(cpu_time)    wall_clock(cpu1)
          | Total time                                 :       53.155 s          53.188 s
          | Preparation time                           :        0.172 s           0.534 s
          | Grid partitioning                          :        0.169 s           0.169 s
          | Preloading free-atom quantities on grid    :        0.014 s           0.013 s
          | Free-atom superposition energy             :        0.090 s           0.091 s
          | Total time for integrations                :       23.153 s          23.151 s
          | Total time for solution of K.-S. equations :        1.600 s           1.614 s
          | Total time for density & force components  :       17.641 s          17.638 s
          | Total time for mixing                      :        0.248 s           0.245 s
          | Total time for Hartree multipole update    :        0.097 s           0.099 s
          | Total time for Hartree multipole sum       :        9.170 s           9.172 s
          | Total time for total energy evaluation     :        0.005 s           0.012 s
          | Total time for scaled ZORA corrections     :        0.000 s           0.000 s
          | Total time for TS (2009) vdW correction    :        0.077 s           0.081 s

          Have a nice day.
------------------------------------------------------------
