  MPI-parallelism will be employed.
------------------------------------------------------------
          Invoking FHI-aims ...
          Version 081213
          Compiled on 2013/08/29 at 17:41:06 on host generoso.

          When using FHI-aims, please cite the following reference:

          Volker Blum, Ralf Gehrke, Felix Hanke, Paula Havu,
          Ville Havu, Xinguo Ren, Karsten Reuter, and Matthias Scheffler,
          'Ab Initio Molecular Simulations with Numeric Atom-Centered Orbitals: FHI-aims',
          Computer Physics Communications 180, 2175-2196 (2009)

          For any questions about FHI-aims, please visit the aimsclub website
          with its forums and wiki. Contributions to both the forums and the
          wiki are warmly encouraged - they are for you, and everyone is welcome there.

------------------------------------------------------------

  Date     :  20150727, Time     :  123528.370
  Time zero on CPU 1             :   0.359930000000000E-01  s.
  Internal wall clock time zero  :           207232528.370  s.

  Using        8 parallel tasks.
  Task        0 on host gen60 reporting.
  Task        1 on host gen60 reporting.
  Task        2 on host gen60 reporting.
  Task        3 on host gen60 reporting.
  Task        4 on host gen60 reporting.
  Task        5 on host gen60 reporting.
  Task        6 on host gen60 reporting.
  Task        7 on host gen60 reporting.

  Performing system and environment tests:
  | Environment variable OMP_NUM_THREADS correctly set to 1.
  | Checking for scalapack...
  | No scalapack compiled in.

  Obtaining array dimensions for all initial allocations:
  
  -----------------------------------------------------------------------
  Parsing control.in (first pass over file, find array dimensions only).
  The contents of control.in will be repeated verbatim below
  unless switched off by setting 'verbatim_writeout .false.' .
  in the first line of control.in .
  -----------------------------------------------------------------------
  
  #########################################################################################
  #
  #  Volker Blum, FHI 2008 : Test run input file control.in
  #
  #########################################################################################
  #
  #  Physical model
  #
    xc                 rpbe
    spin               none
    relativistic       atomic_zora scalar
    charge             0.
   vdw_correction_hirshfeld
  #
  #  SCF convergence
  #
    occupation_type    gaussian 0.01
    mixer              pulay
      n_max_pulay        10
      charge_mix_param   0.1
    sc_accuracy_rho    5E-5
    sc_accuracy_eev    5E-3
    sc_accuracy_etot   5E-6
    sc_iter_limit      3000
  #
  #  Eigenvalue solver
  #
    KS_method          lapack
      empty_states       8
      basis_threshold    0.e-5
  #
  #  Efficiency
  #
  #   all previous settings are now default, except stratmann still
  #   undecided. Continue to handle stratmann with care, if at all.
  #
  #  partition_type stratmann
    partition_type rho_r2
  #  hartree_partition_type stratmann
  #
  #  Oprions for large clusters (100's of atoms: memory saving / better scaling)
  #
  # for periodic systems:
  #
    density_update_method orbital
    packed_matrix_format none
  #  k_grid 6 6 6
  #  output k_eigenvalue 1
  #  distributed_spline_storage .true.
  #
  #  Relaxation
  #
  #  relax_geometry   bfgs 5.e-3
    sc_accuracy_forces 5.E-4
    final_forces_cleaned .true.
  #
  #  Output options
  #
  #  output mulliken
    output Hirshfeld
  #  output dipole
  
  #harmonic_length_scale 0.001
  
  ################################################################################
  #
  #  FHI-aims code project
  #  VB, Fritz-Haber Institut, 2007
  #
  #  Suggested "safe" defaults for H atom (to be pasted into control.in file)
  #  Basis constructed for a non-relativistic H2 molecule using the
  #  PW-LDA functional.
  #
  ################################################################################
    species        H
  #     global species definitions
      nucleus             1
      cut_pot             4.0  2.0  1.0
      cut_free_atom       finite 8.0
      logarithmic         0.00010000 100.00  1.0123
      basis_dep_cutoff    1d-4  # 1d-4 is safe default - please check 5d-4 if you wish!
      radial_base         24 7.0
      radial_multiplier   2
      angular_grids       specified
        division   0.2783  110
        division   0.3822  194
        division   0.5626  302
  #      division   0.5922  434
  #      division   0.6227  590
  #      division   0.7206  770
        outer_grid  302
      l_hartree           4
  ################################################################################
  #
  #  Definition of "minimal" basis
  #
  ################################################################################
  #     valence basis states
      valence      1  s   1.
  #     ion occupancy
      ion_occ      1  s   0.5
  ################################################################################
  #
  #  Suggested additional basis functions. For production calculations,
  #  uncomment them one after another (the most important basis functions are
  #  listed first).
  #
  ################################################################################
  #  "First tier" - improvements: -1014.90 meV to -62.69 meV
       hydro 2 s 2.1
       hydro 2 p 3.5
  #  "Second tier" - improvements: -12.89 meV to -1.83 meV
       hydro 1 s 0.85
       hydro 2 p 3.7
       hydro 2 s 1.2
       hydro 3 d 7
  #  "Third tier" - improvements: -0.25 meV to -0.12 meV
  #     hydro 4 f 11.2
  #     hydro 3 p 4.8
  #     hydro 4 d 9
  #     hydro 3 s 3.2
  
  ################################################################################
  #
  #  FHI-aims code project
  #  VB, Fritz-Haber Institut, 2007
  #
  #  Suggested "safe" defaults for O atom (to be pasted into control.in file)
  #  All values have been tested for a non-relativistic, non-spinpolarized O2
  #  molecule using the PW-LDA functional. Validity for PBE is expected.
  #
  #  Constructed for dimers: 1.0 A, 1.208 A, 1.5 A, 2.0 A, 3.0 A
  #
  ################################################################################
    species        O
  #     global species definitions
      nucleus             8
      mass                15.9994
      l_hartree           4
      cut_pot             4.0  2.0  1.0
      cut_free_atom       finite 8.0
      basis_dep_cutoff    1d-4  # 1d-4 is safe default - please check 5d-4 if you wish!
      logarithmic         0.00010000 100.00  1.0123
      radial_base         36 7.0
      radial_multiplier   2
       angular_grids specified
        division   0.4087  110
        division   0.5181  194
        division   0.6184  302
  #      division   0.7315  434
  #      division   0.7934  590
  #      division   0.9656  770
  #      division   1.4041  974
  #      outer_grid 974
        outer_grid 302
  ################################################################################
  #
  #  Definition of "minimal" basis
  #
  ################################################################################
  #     valence basis states
      valence      2  s   2.
      valence      2  p   4.
  #     ion occupancy
      ion_occ      2  s   1.
      ion_occ      2  p   3.
  ################################################################################
  #
  #  Suggested additional basis functions. For production calculations,
  #  uncomment them one after another (the most important basis functions are
  #  listed first).
  #
  ################################################################################
  #  "First tier" - improvements: -699.05 meV to -159.38 meV
       hydro 2 p 1.8
       hydro 3 d 7.6
       hydro 3 s 6.4
  #  "Second tier" - improvements: -49.91 meV to -5.39 meV
       hydro 4 f 11.6
       hydro 3 p 6.2
       hydro 3 d 5.6
       hydro 5 g 17.6
       hydro 1 s 0.75
  #  "Third tier" - improvements: -2.83 meV to -0.50 meV
  #     ionic 2 p auto
  #     hydro 4 f 10.8
  #     hydro 4 d 4.7
  #     hydro 2 s 6.8
  #  "Fourth tier" - improvements: -0.40 meV to -0.12 meV
  #     hydro 3 p 5
  #     hydro 3 s 3.3
  #     hydro 5 g 15.6
  #     hydro 4 f 17.6
  #     hydro 4 d 14
  # Further basis functions - -0.08 meV and below
  #     hydro 3 s 2.1
  #     hydro 4 d 11.6
  #     hydro 3 p 16
  #     hydro 2 s 17.2
  
  
  -----------------------------------------------------------------------
  Completed first pass over input file control.in .
  -----------------------------------------------------------------------
  
  
  -----------------------------------------------------------------------
  Parsing geometry.in (first pass over file, find array dimensions only).
  The contents of geometry.in will be repeated verbatim below
  unless switched off by setting 'verbatim_writeout .false.' .
  in the first line of geometry.in .
  -----------------------------------------------------------------------
  
  atom      -4.053030000      0.065001000     -1.525160000  O
  atom      -4.566710000      0.974813000     -1.912820000  H
  atom      -3.067820000      0.330172000     -1.477310000  H
  atom      -1.645860000      0.870179000     -1.502250000  O
  atom      -1.568890000      1.501730000     -0.721051000  H
  atom      -0.824432000      0.282220000     -1.377720000  H
  atom      -1.975360000      2.858040000      0.453140000  O
  atom      -1.223550000      3.375850000      0.786238000  H
  atom      -2.537520000      2.567960000      1.156120000  H
  atom      -4.066610000      4.258280000     -0.900064000  O
  atom      -3.224110000      3.876870000     -0.569443000  H
  atom      -3.737450000      5.116530000     -1.322720000  H
  atom      -5.628340000      3.730740000      1.385610000  O
  atom      -6.090650000      4.418470000      1.860350000  H
  atom      -5.158540000      4.200260000      0.615875000  H
  
  -----------------------------------------------------------------------
  Completed first pass over input file geometry.in .
  -----------------------------------------------------------------------
  
 
  Basic array size parameters: 
  | Number of species                 :        2
  | Number of atoms                   :       15
  | Max. basis fn. angular momentum   :        4
  | Max. atomic/ionic basis occupied n:        2
  | Max. number of basis fn. types    :        2
  | Max. radial fns per species/type  :        8
  | Max. logarithmic grid size        :     1301
  | Max. radial integration grid size :       73
  | Max. angular integration grid size:      302
  | Max. angular grid division number :        8
  | Radial grid for Hartree potential :     1301
  | Number of spin channels           :        1

------------------------------------------------------------
          Reading file control.in.
------------------------------------------------------------
  XC: Using RPBE gradient-corrected functionals.
  Spin treatment: No spin polarisation.
  Scalar relativistic treatment of kinetic energy: on-site free-atom approximation to ZORA.
  Charge =   0.000000E+00: Neutral system requested explicitly.
  Using non-empirical van der Waals correction (Hirshfeld partitioning):
  Occupation type: Gaussian broadening, width =   0.100000E-01 eV.
  Using pulay charge density mixing.
  Pulay mixing - number of memorized iterations:   10
  Charge density mixing - mixing parameter:     0.1000
  Convergence accuracy of self-consistent charge density: 0.5000E-04
  Convergence accuracy of sum of eigenvalues: 0.5000E-02
  Convergence accuracy of total energy: 0.5000E-05
  Maximum number of s.-c. iterations  :  3000
  Kohn-Sham eigenvalues and eigenfunctions calculated by lapack diagonalisation (D&C).
  Number of empty states per atom:        8
  Threshold for basis singularities: 0.0000E+00
  Partition function in integrals calculations: rho / r^2
 Using packed matrix format           0
  Convergence accuracy of forces: 0.5000E-03
  Cleaning forces before final output.
  Hirshfeld charge analysis will be performed.
 
  Reading configuration options for species H                   .
  | Found nuclear charge :   1.0000
  | Found cutoff potl. onset [A], width [A], scale factor :    4.00000    2.00000    1.00000
  | Found cutoff specification for free atom: Cutoff potential begins at    8.00000 A.
  | Found logarithmic grid data [bohr] : 0.1000E-03 0.1000E+03 0.1012E+01
  | Threshold for basis-dependent cutoff potential is   0.100000E-03
  | Found data for basic radial integration grid :    24 points, outermost radius =    7.000 A
  | Found multiplier for basic radial grid :   2
  | Found angular grid specification: user-specified.
  | Specified grid contains     4 separate shells.
  | Check grid settings after all constraints further below.
  | Found l_max for Hartree potential  :   4
  | Found free-atom valence shell :  1 s   1.000
  | No ionic wave fns used. Skipping ion_occ.
  | Found hydrogenic basis function :  2 s   2.100
  | Found hydrogenic basis function :  2 p   3.500
  | Found hydrogenic basis function :  1 s   0.850
  | Found hydrogenic basis function :  2 p   3.700
  | Found hydrogenic basis function :  2 s   1.200
  | Found hydrogenic basis function :  3 d   7.000
  Species H                   : Missing cutoff potential type.
  Defaulting to exp(1/x)/(1-x)^2 type cutoff potential.
  Species H : On-site basis accuracy parameter (for Gram-Schmidt orthonormalisation) not specified.
  Using default value basis_acc =  0.1000000E-03.
  Species H                   : Using default innermost maximum threshold i_radial=  2 for radial functions.
  Species H                   : Basic radial grid will be enhanced according to radial_multiplier =   2, to contain    49 grid points.
 
  Reading configuration options for species O                   .
  | Found nuclear charge :   8.0000
  | Found atomic mass :    15.9994000000000      amu
  | Found l_max for Hartree potential  :   4
  | Found cutoff potl. onset [A], width [A], scale factor :    4.00000    2.00000    1.00000
  | Found cutoff specification for free atom: Cutoff potential begins at    8.00000 A.
  | Threshold for basis-dependent cutoff potential is   0.100000E-03
  | Found logarithmic grid data [bohr] : 0.1000E-03 0.1000E+03 0.1012E+01
  | Found data for basic radial integration grid :    36 points, outermost radius =    7.000 A
  | Found multiplier for basic radial grid :   2
  | Found angular grid specification: user-specified.
  | Specified grid contains     4 separate shells.
  | Check grid settings after all constraints further below.
  | Found free-atom valence shell :  2 s   2.000
  | Found free-atom valence shell :  2 p   4.000
  | No ionic wave fns used. Skipping ion_occ.
  | No ionic wave fns used. Skipping ion_occ.
  | Found hydrogenic basis function :  2 p   1.800
  | Found hydrogenic basis function :  3 d   7.600
  | Found hydrogenic basis function :  3 s   6.400
  | Found hydrogenic basis function :  4 f  11.600
  | Found hydrogenic basis function :  3 p   6.200
  | Found hydrogenic basis function :  3 d   5.600
  | Found hydrogenic basis function :  5 g  17.600
  | Found hydrogenic basis function :  1 s   0.750
  Species O                   : Missing cutoff potential type.
  Defaulting to exp(1/x)/(1-x)^2 type cutoff potential.
  Species O : On-site basis accuracy parameter (for Gram-Schmidt orthonormalisation) not specified.
  Using default value basis_acc =  0.1000000E-03.
  Species O                   : Using default innermost maximum threshold i_radial=  2 for radial functions.
  Species O                   : Basic radial grid will be enhanced according to radial_multiplier =   2, to contain    73 grid points.
 
  Finished reading input file 'control.in'. Consistency checks are next.
 
  Target number of points in a grid batch is not set. Defaulting to  100
  Method for grid partitioning is not set. Defaulting to parallel hash+maxmin partitioning.
  Batch size limit is not set. Defaulting to    200
  By default, will store active basis functions for each batch.
  If in need of memory, prune_basis_once .false. can be used to disable this option.
  communication_type for Hartree potential was not specified.
  Defaulting to calc_hartree .
  Pulay mixer: Number of initial linear mixing iterations not set.
  Defaulting to    0 iterations.
  Work space size for distributed Hartree potential not set.
  Defaulting to   0.200000E+03 MB.
  Algorithm-dependent basis array size parameters:
  | n_max_pulay                         :       10
  Geometry relaxation not requested: no relaxation will be performed.
  Handling of forces: Unphysical translation and rotation will be removed from forces.
  No accuracy limit for integral partition fn. given. Defaulting to 0.1000E-14.
  No threshold value for u(r) in integrations given. Defaulting to 0.1000E-05.
  No accuracy for occupation numbers given. Defaulting to 0.1000E-07.
  No threshold value for occupation numbers given. Defaulting to 0.0000E+00.
  No accuracy for fermi level given. Defaulting to 0.1000E-19.
  Maximum # of iterations to find E_F not set. Defaulting to  200.
  Will not use alltoall communication since running on < 1024 CPUs.
  Partitioning for Hartree potential was not defined. Using partition_type for integrals.
  | Reporting present value of keyword multip_moments_threshold  :       0.10000000E-09
  | This value may affect high angular momentum components of the Hartree potential in periodic systems.
  No q(lm)/r^(l+1) cutoff set for long-range Hartree potential.
  | Using default value of  0.100000E-09 .
  | Verify using the multipole_threshold keyword.
  Defaulting to new monopole extrapolation.
  Density update method: Loop over occupied states selected for charge density update.
------------------------------------------------------------


------------------------------------------------------------
          Reading geometry description geometry.in.
------------------------------------------------------------
  Input structure read successfully.
  The structure contains       15 atoms,  and a total of         50.000 electrons.

  Input geometry:
  | No unit cell requested.
  | Atomic structure:
  |       Atom                x [A]            y [A]            z [A]
  |    1: Species O             -4.053030         0.065001        -1.525160
  |    2: Species H             -4.566710         0.974813        -1.912820
  |    3: Species H             -3.067820         0.330172        -1.477310
  |    4: Species O             -1.645860         0.870179        -1.502250
  |    5: Species H             -1.568890         1.501730        -0.721051
  |    6: Species H             -0.824432         0.282220        -1.377720
  |    7: Species O             -1.975360         2.858040         0.453140
  |    8: Species H             -1.223550         3.375850         0.786238
  |    9: Species H             -2.537520         2.567960         1.156120
  |   10: Species O             -4.066610         4.258280        -0.900064
  |   11: Species H             -3.224110         3.876870        -0.569443
  |   12: Species H             -3.737450         5.116530        -1.322720
  |   13: Species O             -5.628340         3.730740         1.385610
  |   14: Species H             -6.090650         4.418470         1.860350
  |   15: Species H             -5.158540         4.200260         0.615875
  |

  | The smallest distance between any two atoms is         0.94570141 AA.
  |
  | The first atom of this pair is atom number                      7 .
  | The second atom of this pair is atom number                     9 .

  Structure-dependent array size parameters: 
  | Maximum number of distinct radial functions  :       18
  | Maximum number of basis functions            :      345
  | Number of Kohn-Sham states (occupied + empty):       85
------------------------------------------------------------

------------------------------------------------------------
          Preparing all fixed parts of the calculation.
------------------------------------------------------------
  Determining machine precision:
    2.225073858507201E-308
  Setting up grids for atomic and cluster calculations.

  Creating wave function, potential, and density for free atoms.

  Species: H

  List of occupied orbitals and eigenvalues:
    n    l              occ      energy [Ha]    energy [eV]
    1    0           1.0000        -0.241408        -6.5691


  Species: O

  List of occupied orbitals and eigenvalues:
    n    l              occ      energy [Ha]    energy [eV]
    1    0           2.0000       -18.944147      -515.4965
    2    0           2.0000        -0.883529       -24.0421
    2    1           4.0000        -0.330176        -8.9845

  Creating fixed part of basis set: Ionic, confined, hydrogenic.
 
  H                    hydrogenic:
 
  List of hydrogenic basis orbitals: 
    n    l      effective z      eigenvalue [eV]  inner max. [A]     outer max. [A]     outer radius [A]   
    2    0         2.100000       -14.9965           0.193241           1.317192           5.372934
    2    1         3.500000       -41.6672           0.602363           0.602363           4.056010
    1    0         0.850000        -9.8292           0.624864           0.624864           5.372934
    2    1         3.700000       -46.5653           0.573616           0.573616           3.909951
    2    0         1.200000        -4.5995           0.334977           2.228160           5.505921
    3    2         7.000000       -74.0753           0.680692           0.680692           3.769152
 
 
  O                    hydrogenic:
 
  List of hydrogenic basis orbitals: 
    n    l      effective z      eigenvalue [eV]  inner max. [A]     outer max. [A]     outer radius [A]   
    2    1         1.800000       -11.0118           1.178546           1.178546           5.432516
    3    2         7.600000       -87.3182           0.624117           0.624117           3.541422
    3    0         6.400000       -61.9209           0.061166           1.081887           4.306510
    4    3        11.600000      -114.4238           0.731621           0.731621           3.584982
    3    1         6.200000       -58.1113           0.255677           1.030255           4.306510
    3    2         5.600000       -47.4081           0.847222           0.847222           4.413102
    5    4        17.600000      -168.5799           0.749730           0.749730           3.372413
    1    0         0.750000        -7.6499           0.705275           0.705275           5.366508
 

  Adding cutoff potential to free-atom effective potential.
  Creating atomic-like basis functions for current effective potential.

  Species H                   :

  List of atomic basis orbitals and eigenvalues:
    n    l      energy [Ha]    energy [eV]    outer radius [A]
    1    0        -0.241374        -6.5681       5.372934


  Species O                   :

  List of atomic basis orbitals and eigenvalues:
    n    l      energy [Ha]    energy [eV]    outer radius [A]
    1    0       -18.944147      -515.4965       1.415745
    2    0        -0.883529       -24.0421       5.048305
    2    1        -0.330173        -8.9845       5.301302

  Assembling full basis from fixed parts.
  | Species H :   atomic orbital   1 s accepted.
  | Species H :    hydro orbital   2 s accepted.
  | Species H :    hydro orbital   1 s accepted.
  | Species H :    hydro orbital   2 s accepted.
  | Species H :    hydro orbital   2 p accepted.
  | Species H :    hydro orbital   2 p accepted.
  | Species H :    hydro orbital   3 d accepted.
  | Species O :   atomic orbital   1 s accepted.
  | Species O :    hydro orbital   3 s accepted.
  | Species O :   atomic orbital   2 s accepted.
  | Species O :    hydro orbital   1 s accepted.
  | Species O :    hydro orbital   3 p accepted.
  | Species O :   atomic orbital   2 p accepted.
  | Species O :    hydro orbital   2 p accepted.
  | Species O :    hydro orbital   3 d accepted.
  | Species O :    hydro orbital   3 d accepted.
  | Species O :    hydro orbital   4 f accepted.
  | Species O :    hydro orbital   5 g accepted.
 
  Basis size parameters after reduction:
  | Total number of radial functions:       18
  | Total number of basis functions :      345
 
  Testing on-site integration grid accuracy.
  |  Species  Function  <phi|h_atom|phi> (log., in eV)  <phi|h_atom|phi> (rad., in eV)
           1        1                 -6.5683835025                 -6.5684759159
           1        2                 13.3711789951                 13.3708738703
           1        3                 23.6590910787                 23.6532055418
           1        4                 16.2963827186                 16.1870710655 ***
           1        5                 28.7627214838                 28.7627215090
           1        6                 59.5965249172                 59.5965950857
           1        7                 60.2220506392                 60.2220503827
           2        8               -515.4964576505               -515.4964530710
           2        9                 15.3030791347                 15.3030722972
           2       10                -21.7296094581                -21.7296135470
           2       11                 14.2969371730                 14.2969701621
           2       12                 21.0679693190                 21.0679697493
           2       13                 -2.3833606469                 -2.3833613176
           2       14                 13.7067136422                 13.7066766629
           2       15                 45.8013116808                 45.8013116965
           2       16                 52.2309815402                 52.2309831494
           2       17                 85.4120732416                 85.4120732763
           2       18                142.1019167745                142.1019167817
 * Note: Onsite integrals marked "***" above are less accurate than
 * onsite_accuracy_threshold =    0.03000 eV. Usually, this is harmless.
 * When in doubt, tighten the "radial" and/or "radial_multiplier" flags to check.

  Preparing densities etc. for the partition functions (integrals / Hartree potential).

  Preparations completed.
  max(cpu_time)          :      0.171 s.
  Wall clock time (cpu1) :      0.515 s.
------------------------------------------------------------

------------------------------------------------------------
          Begin self-consistency loop: Initialization.

          Date     :  20150727, Time     :  123528.919
------------------------------------------------------------

  Initializing index lists of integration centers etc. from given atomic structure:
  | Number of centers in hartree potential         :        15
  | Number of centers in hartree multipole         :        15
  | Number of centers in electron density summation:        15
  | Number of centers in basis integrals           :        15
  | Number of centers in integrals                 :        15
  Partitioning the integration grid into batches with parallel hashing+maxmin method.
  | Number of batches:     1979
  | Maximal batch size:     198
  | Minimal batch size:      51
  | Average batch size:      99.399
  | Standard deviation of batch sizes:      28.862

  Integration load balanced across     8 MPI tasks.
  Work distribution over tasks is as follows:
  Task     0 has      24577 integration points.
  Task     1 has      24631 integration points.
  Task     2 has      24638 integration points.
  Task     3 has      24631 integration points.
  Task     4 has      24556 integration points.
  Task     5 has      24556 integration points.
  Task     6 has      24576 integration points.
  Task     7 has      24545 integration points.
  Initializing partition tables, free-atom densities, potentials, etc. across the integration grid (initialize_grid_storage).
  | Net number of integration points:   196710
  | of which are non-zero points    :   196142
  Obtaining max. number of non-zero basis functions in each batch (get_n_compute_maxes).
  | Maximal number of non-zero basis functions:      342 in task     0
  | Maximal number of non-zero basis functions:      342 in task     1
  | Maximal number of non-zero basis functions:      342 in task     2
  | Maximal number of non-zero basis functions:      341 in task     3
  | Maximal number of non-zero basis functions:      342 in task     4
  | Maximal number of non-zero basis functions:      342 in task     5
  | Maximal number of non-zero basis functions:      342 in task     6
  | Maximal number of non-zero basis functions:      342 in task     7
  Integrating Hamiltonian matrix: batch-based integration.
  Time summed over all CPUs for integration: real work        7.106 s, elapsed        7.209 s
  Integrating overlap matrix.
  Time summed over all CPUs for integration: real work        3.813 s, elapsed        3.883 s

  Updating Kohn-Sham eigenvalues, eigenvectors, occupation numbers, and Fermi level.
  Solving generalized eigenproblem
  Updating Kohn-Sham eigenvalues and eigenfunctions.
  Transforming overlap matrix and checking for singularities.
  Overlap matrix is nonsingular:
  | Lowest eigenvalue:  0.302663E-03
  Solving real generalised eigenvalue problem by standard LAPACK (fast)
  Determining occupation numbers for Kohn-Sham eigenstates.
  | Chemical potential (Fermi level) in eV                 : -.33054612E+01
  | Error in electron count due to remaining E_F inaccuracy: 0.00000000E+00
  | Maximum occupation number of highest empty state:  0.00E+00

  Writing Kohn-Sham eigenvalues.

  State    Occupation    Eigenvalue [Ha]    Eigenvalue [eV]
      1       2.00000         -19.059397         -518.63258
      2       2.00000         -19.044621         -518.23050
      3       2.00000         -19.042616         -518.17594
      4       2.00000         -19.042527         -518.17354
      5       2.00000         -19.019454         -517.54566
      6       2.00000          -1.111712          -30.25122
      7       2.00000          -1.092107          -29.71773
      8       2.00000          -1.086628          -29.56866
      9       2.00000          -1.083944          -29.49561
     10       2.00000          -1.041698          -28.34606
     11       2.00000          -0.651879          -17.73853
     12       2.00000          -0.623333          -16.96175
     13       2.00000          -0.609947          -16.59751
     14       2.00000          -0.606952          -16.51601
     15       2.00000          -0.590317          -16.06333
     16       2.00000          -0.522858          -14.22769
     17       2.00000          -0.516988          -14.06796
     18       2.00000          -0.505265          -13.74896
     19       2.00000          -0.497370          -13.53414
     20       2.00000          -0.471893          -12.84085
     21       2.00000          -0.448095          -12.19330
     22       2.00000          -0.433201          -11.78800
     23       2.00000          -0.431675          -11.74647
     24       2.00000          -0.429378          -11.68397
     25       2.00000          -0.409349          -11.13896
     26       0.00000          -0.097825           -2.66194
     27       0.00000          -0.068081           -1.85257
     28       0.00000          -0.063298           -1.72241
     29       0.00000          -0.042220           -1.14887
     30       0.00000          -0.041271           -1.12304
     31       0.00000          -0.002121           -0.05770
     32       0.00000           0.031624            0.86054
     33       0.00000           0.032437            0.88265
     34       0.00000           0.043726            1.18985
     35       0.00000           0.046551            1.26671
     36       0.00000           0.069231            1.88387
     37       0.00000           0.073219            1.99240
     38       0.00000           0.088456            2.40700
     39       0.00000           0.095759            2.60574
     40       0.00000           0.096407            2.62336
     41       0.00000           0.102021            2.77615
     42       0.00000           0.106738            2.90448
     43       0.00000           0.108642            2.95630
     44       0.00000           0.128674            3.50141
     45       0.00000           0.133387            3.62965
     46       0.00000           0.141379            3.84712
     47       0.00000           0.153333            4.17241
     48       0.00000           0.162558            4.42342
     49       0.00000           0.168696            4.59046
     50       0.00000           0.178861            4.86706
     51       0.00000           0.180749            4.91842
     52       0.00000           0.215417            5.86178
     53       0.00000           0.221707            6.03296
     54       0.00000           0.234250            6.37428
     55       0.00000           0.256832            6.98875
     56       0.00000           0.276038            7.51138
     57       0.00000           0.278475            7.57768
     58       0.00000           0.294525            8.01443
     59       0.00000           0.315284            8.57932
     60       0.00000           0.334119            9.09185
     61       0.00000           0.344508            9.37453
     62       0.00000           0.352383            9.58882
     63       0.00000           0.359629            9.78601
     64       0.00000           0.367809           10.00859
     65       0.00000           0.371630           10.11257
     66       0.00000           0.390575           10.62810
     67       0.00000           0.396450           10.78794
     68       0.00000           0.418838           11.39717
     69       0.00000           0.432517           11.76939
     70       0.00000           0.441489           12.01353
     71       0.00000           0.454616           12.37073
     72       0.00000           0.469505           12.77587
     73       0.00000           0.477728           12.99963
     74       0.00000           0.494594           13.45859
     75       0.00000           0.502003           13.66020
     76       0.00000           0.525828           14.30852
     77       0.00000           0.537849           14.63563
     78       0.00000           0.575394           15.65727
     79       0.00000           0.581666           15.82795
     80       0.00000           0.610698           16.61795
     81       0.00000           0.628282           17.09642
     82       0.00000           0.654639           17.81364
     83       0.00000           0.692661           18.84826
     84       0.00000           0.700552           19.06300
     85       0.00000           0.755760           20.56528

  Highest occupied state (VBM) at    -11.13896370 eV
  | Occupation number:      2.00000000

  Lowest unoccupied state (CBM) at    -2.66194225 eV
  | Occupation number:      0.00000000

  Overall HOMO-LUMO gap:      8.47702145 eV.
  Calculating total energy contributions from superposition of free atom densities.

  Total energy components:
  | Sum of eigenvalues            :        -216.74640855 Ha       -5897.96986209 eV
  | XC energy correction          :         -45.55478948 Ha       -1239.60889233 eV
  | XC potential correction       :          58.20996332 Ha        1583.97369368 eV
  | Free-atom electrostatic energy:        -178.98727605 Ha       -4870.49158921 eV
  | Hartree energy correction     :           0.00000000 Ha           0.00000000 eV
  | van der Waals energy corr.    :           0.00000000 Ha           0.00000000 eV
  | Entropy correction            :           0.00000000 Ha           0.00000000 eV
  | ---------------------------
  | Total energy                  :        -383.07851076 Ha      -10424.09664995 eV
  | Total energy, T -> 0          :        -383.07851076 Ha      -10424.09664995 eV  <-- do not rely on this value for anything but (periodic) metals
  | Electronic free energy        :        -383.07851076 Ha      -10424.09664995 eV

  Derived energy quantities:
  | Kinetic energy                :         379.13124989 Ha       10316.68621666 eV
  | Electrostatic energy          :        -716.65497117 Ha      -19501.17397428 eV
  | Energy correction for multipole
  | error in Hartree potential    :           0.00000000 Ha           0.00000000 eV
  | Sum of eigenvalues per atom                           :        -393.19799081 eV
  | Total energy (T->0) per atom                          :        -694.93977666 eV  <-- do not rely on this value for anything but (periodic) metals
  | Electronic free energy per atom                       :        -694.93977666 eV
  Initialize hartree_potential_storage
  Max. number of atoms included in rho_multipole:           15

  End scf initialization - timings             :  max(cpu_time)    wall_clock(cpu1)
  | Time for scf. initialization               :        1.959 s           1.959 s
  | Boundary condition initialization          :        0.000 s           0.001 s
  | Integration                                :        1.390 s           1.390 s
  | Solution of K.-S. eqns.                    :        0.197 s           0.197 s
  | Grid partitioning                          :        0.158 s           0.157 s
  | Preloading free-atom quantities on grid    :        0.014 s           0.013 s
  | Free-atom superposition energy             :        0.067 s           0.067 s
  | Total energy evaluation                    :        0.000 s           0.000 s
------------------------------------------------------------

------------------------------------------------------------
          Begin self-consistency iteration #    1

  Date     :  20150727, Time     :  123530.878
------------------------------------------------------------
  Evaluating new KS density.
  Integration grid: deviation in total charge (<rho> - N_e) =   1.421085E-14
  Pulay mixing of updated and previous charge densities.

  Evaluating partitioned Hartree potential by multipole expansion.
  | Analytical far-field extrapolation by fixed multipoles:
  | Hartree multipole sum: apparent total charge =  -0.144425E-05
  Summing up the Hartree potential.
  Time summed over all CPUs for potential: real work        2.566 s, elapsed        2.571 s
  | RMS charge density error from multipole expansion :   0.161481E-02

  Integrating Hamiltonian matrix: batch-based integration.
  Time summed over all CPUs for integration: real work        7.108 s, elapsed        7.237 s

  Updating Kohn-Sham eigenvalues, eigenvectors, occupation numbers, and Fermi level.
  Solving generalized eigenproblem
  Updating Kohn-Sham eigenvalues and eigenfunctions.
  Solving real generalised eigenvalue problem by standard LAPACK (fast)
  Determining occupation numbers for Kohn-Sham eigenstates.
  | Chemical potential (Fermi level) in eV                 : -.29228537E+01
  | Error in electron count due to remaining E_F inaccuracy: 0.00000000E+00
  | Maximum occupation number of highest empty state:  0.00E+00

  Writing Kohn-Sham eigenvalues.

  State    Occupation    Eigenvalue [Ha]    Eigenvalue [eV]
      1       2.00000         -18.994390         -516.86364
      2       2.00000         -18.973830         -516.30418
      3       2.00000         -18.970765         -516.22077
      4       2.00000         -18.962352         -515.99186
      5       2.00000         -18.933258         -515.20017
      6       2.00000          -1.082804          -29.46459
      7       2.00000          -1.054065          -28.68258
      8       2.00000          -1.052106          -28.62927
      9       2.00000          -1.044930          -28.43399
     10       2.00000          -0.994577          -27.06383
     11       2.00000          -0.627773          -17.08258
     12       2.00000          -0.588033          -16.00119
     13       2.00000          -0.581002          -15.80987
     14       2.00000          -0.576401          -15.68467
     15       2.00000          -0.552730          -15.04056
     16       2.00000          -0.489960          -13.33248
     17       2.00000          -0.480938          -13.08698
     18       2.00000          -0.470648          -12.80697
     19       2.00000          -0.457149          -12.43967
     20       2.00000          -0.429681          -11.69220
     21       2.00000          -0.416377          -11.33019
     22       2.00000          -0.395613          -10.76516
     23       2.00000          -0.392720          -10.68645
     24       2.00000          -0.386145          -10.50754
     25       2.00000          -0.360710           -9.81543
     26       0.00000          -0.089379           -2.43212
     27       0.00000          -0.057827           -1.57356
     28       0.00000          -0.054234           -1.47578
     29       0.00000          -0.034826           -0.94765
     30       0.00000          -0.034228           -0.93140
     31       0.00000           0.002814            0.07658
     32       0.00000           0.040848            1.11153
     33       0.00000           0.043424            1.18163
     34       0.00000           0.052478            1.42799
     35       0.00000           0.056202            1.52934
     36       0.00000           0.077287            2.10308
     37       0.00000           0.084349            2.29525
     38       0.00000           0.096838            2.63510
     39       0.00000           0.104346            2.83941
     40       0.00000           0.105330            2.86617
     41       0.00000           0.113784            3.09623
     42       0.00000           0.115382            3.13971
     43       0.00000           0.117992            3.21072
     44       0.00000           0.135806            3.69547
     45       0.00000           0.142790            3.88553
     46       0.00000           0.149901            4.07902
     47       0.00000           0.166343            4.52642
     48       0.00000           0.173868            4.73118
     49       0.00000           0.179151            4.87493
     50       0.00000           0.188365            5.12568
     51       0.00000           0.195978            5.33282
     52       0.00000           0.225138            6.12633
     53       0.00000           0.229842            6.25431
     54       0.00000           0.242980            6.61183
     55       0.00000           0.263893            7.18089
     56       0.00000           0.284911            7.75283
     57       0.00000           0.287008            7.80989
     58       0.00000           0.303231            8.25133
     59       0.00000           0.323048            8.79058
     60       0.00000           0.342095            9.30889
     61       0.00000           0.353589            9.62164
     62       0.00000           0.362522            9.86473
     63       0.00000           0.370038           10.06924
     64       0.00000           0.377090           10.26115
     65       0.00000           0.379319           10.32181
     66       0.00000           0.398560           10.84537
     67       0.00000           0.405636           11.03790
     68       0.00000           0.426155           11.59628
     69       0.00000           0.441901           12.02473
     70       0.00000           0.450880           12.26906
     71       0.00000           0.464197           12.63145
     72       0.00000           0.480676           13.07987
     73       0.00000           0.488989           13.30606
     74       0.00000           0.504784           13.73587
     75       0.00000           0.512660           13.95019
     76       0.00000           0.536207           14.59093
     77       0.00000           0.550058           14.96783
     78       0.00000           0.586222           15.95191
     79       0.00000           0.592036           16.11013
     80       0.00000           0.621835           16.92100
     81       0.00000           0.640083           17.41753
     82       0.00000           0.666039           18.12384
     83       0.00000           0.705038           19.18505
     84       0.00000           0.714681           19.44746
     85       0.00000           0.767461           20.88367

  Highest occupied state (VBM) at     -9.81542896 eV
  | Occupation number:      2.00000000

  Lowest unoccupied state (CBM) at    -2.43211510 eV
  | Occupation number:      0.00000000

  Overall HOMO-LUMO gap:      7.38331386 eV.

  Total energy components:
  | Sum of eigenvalues            :        -214.53791267 Ha       -5837.87363143 eV
  | XC energy correction          :         -45.79318861 Ha       -1246.09606264 eV
  | XC potential correction       :          58.52181700 Ha        1592.45966416 eV
  | Free-atom electrostatic energy:        -178.98727605 Ha       -4870.49158921 eV
  | Hartree energy correction     :          -2.14171327 Ha         -58.27898324 eV
  | van der Waals energy corr.    :           0.00000000 Ha           0.00000000 eV
  | Entropy correction            :           0.00000000 Ha           0.00000000 eV
  | ---------------------------
  | Total energy                  :        -382.93827359 Ha      -10420.28060236 eV
  | Total energy, T -> 0          :        -382.93827359 Ha      -10420.28060236 eV  <-- do not rely on this value for anything but (periodic) metals
  | Electronic free energy        :        -382.93827359 Ha      -10420.28060236 eV

  Derived energy quantities:
  | Kinetic energy                :         380.54174196 Ha       10355.06765883 eV
  | Electrostatic energy          :        -717.68682694 Ha      -19529.25219855 eV
  | Energy correction for multipole
  | error in Hartree potential    :          -0.00000703 Ha          -0.00019116 eV
  | Sum of eigenvalues per atom                           :        -389.19157543 eV
  | Total energy (T->0) per atom                          :        -694.68537349 eV  <-- do not rely on this value for anything but (periodic) metals
  | Electronic free energy per atom                       :        -694.68537349 eV

  Self-consistency convergence accuracy:
  | Change of charge density      : 0.6564E+00
  | Change of sum of eigenvalues  : 0.6010E+02 eV
  | Change of total energy        : 0.3816E+01 eV

  End self-consistency iteration #     1       :  max(cpu_time)    wall_clock(cpu1)
  | Time for this iteration                    :        1.921 s           1.920 s
  | Charge density update                      :        0.630 s           0.630 s
  | Density mixing                             :        0.003 s           0.003 s
  | Hartree multipole update                   :        0.005 s           0.005 s
  | Hartree multipole summation                :        0.322 s           0.322 s
  | Integration                                :        0.906 s           0.906 s
  | Solution of K.-S. eqns.                    :        0.054 s           0.053 s
  | Total energy evaluation                    :        0.001 s           0.000 s
------------------------------------------------------------

------------------------------------------------------------
          Begin self-consistency iteration #    2

  Date     :  20150727, Time     :  123532.798
------------------------------------------------------------
  Evaluating new KS density.
  Integration grid: deviation in total charge (<rho> - N_e) =  -1.421085E-14
  Pulay mixing of updated and previous charge densities.

  Evaluating partitioned Hartree potential by multipole expansion.
  | Analytical far-field extrapolation by fixed multipoles:
  | Hartree multipole sum: apparent total charge =  -0.361697E-05
  Summing up the Hartree potential.
  Time summed over all CPUs for potential: real work        2.566 s, elapsed        2.570 s
  | RMS charge density error from multipole expansion :   0.644741E-02

  Integrating Hamiltonian matrix: batch-based integration.
  Time summed over all CPUs for integration: real work        7.091 s, elapsed        7.234 s

  Updating Kohn-Sham eigenvalues, eigenvectors, occupation numbers, and Fermi level.
  Solving generalized eigenproblem
  Updating Kohn-Sham eigenvalues and eigenfunctions.
  Solving real generalised eigenvalue problem by standard LAPACK (fast)
  Determining occupation numbers for Kohn-Sham eigenstates.
  | Chemical potential (Fermi level) in eV                 : -.49864983E+01
  | Error in electron count due to remaining E_F inaccuracy: 0.00000000E+00
  | Maximum occupation number of highest empty state:  0.00E+00

  Highest occupied state (VBM) at     -6.69174914 eV
  | Occupation number:      2.00000000

  Lowest unoccupied state (CBM) at    -2.00129377 eV
  | Occupation number:      0.00000000

  Overall HOMO-LUMO gap:      4.69045537 eV.

  Total energy components:
  | Sum of eigenvalues            :        -209.35500279 Ha       -5696.83947786 eV
  | XC energy correction          :         -46.37829809 Ha       -1262.01770175 eV
  | XC potential correction       :          59.28639156 Ha        1613.26479647 eV
  | Free-atom electrostatic energy:        -178.98727605 Ha       -4870.49158921 eV
  | Hartree energy correction     :          -7.34308596 Ha        -199.81553559 eV
  | van der Waals energy corr.    :           0.00000000 Ha           0.00000000 eV
  | Entropy correction            :           0.00000000 Ha           0.00000000 eV
  | ---------------------------
  | Total energy                  :        -382.77727133 Ha      -10415.89950794 eV
  | Total energy, T -> 0          :        -382.77727133 Ha      -10415.89950794 eV  <-- do not rely on this value for anything but (periodic) metals
  | Electronic free energy        :        -382.77727133 Ha      -10415.89950794 eV

  Derived energy quantities:
  | Kinetic energy                :         383.36121130 Ha       10431.78932310 eV
  | Electrostatic energy          :        -719.76018454 Ha      -19585.67112929 eV
  | Energy correction for multipole
  | error in Hartree potential    :          -0.00081891 Ha          -0.02228360 eV
  | Sum of eigenvalues per atom                           :        -379.78929852 eV
  | Total energy (T->0) per atom                          :        -694.39330053 eV  <-- do not rely on this value for anything but (periodic) metals
  | Electronic free energy per atom                       :        -694.39330053 eV

  Self-consistency convergence accuracy:
  | Change of charge density      : 0.4963E+00
  | Change of sum of eigenvalues  : 0.1410E+03 eV
  | Change of total energy        : 0.4381E+01 eV

  End self-consistency iteration #     2       :  max(cpu_time)    wall_clock(cpu1)
  | Time for this iteration                    :        1.919 s           1.919 s
  | Charge density update                      :        0.627 s           0.627 s
  | Density mixing                             :        0.005 s           0.006 s
  | Hartree multipole update                   :        0.005 s           0.005 s
  | Hartree multipole summation                :        0.322 s           0.322 s
  | Integration                                :        0.906 s           0.905 s
  | Solution of K.-S. eqns.                    :        0.053 s           0.054 s
  | Total energy evaluation                    :        0.001 s           0.000 s
------------------------------------------------------------

------------------------------------------------------------
          Begin self-consistency iteration #    3

  Date     :  20150727, Time     :  123534.717
------------------------------------------------------------
  Evaluating new KS density.
  Integration grid: deviation in total charge (<rho> - N_e) =   2.131628E-14
  Pulay mixing of updated and previous charge densities.

  Evaluating partitioned Hartree potential by multipole expansion.
  | Analytical far-field extrapolation by fixed multipoles:
  | Hartree multipole sum: apparent total charge =  -0.181175E-05
  Summing up the Hartree potential.
  Time summed over all CPUs for potential: real work        2.565 s, elapsed        2.571 s
  | RMS charge density error from multipole expansion :   0.134131E-01

  Integrating Hamiltonian matrix: batch-based integration.
  Time summed over all CPUs for integration: real work        7.090 s, elapsed        7.203 s

  Updating Kohn-Sham eigenvalues, eigenvectors, occupation numbers, and Fermi level.
  Solving generalized eigenproblem
  Updating Kohn-Sham eigenvalues and eigenfunctions.
  Solving real generalised eigenvalue problem by standard LAPACK (fast)
  Determining occupation numbers for Kohn-Sham eigenstates.
  | Chemical potential (Fermi level) in eV                 : -.31911453E+01
  | Error in electron count due to remaining E_F inaccuracy: 0.00000000E+00
  | Maximum occupation number of highest empty state:  0.00E+00

  Highest occupied state (VBM) at     -6.49957750 eV
  | Occupation number:      2.00000000

  Lowest unoccupied state (CBM) at    -1.98896449 eV
  | Occupation number:      0.00000000

  Overall HOMO-LUMO gap:      4.51061301 eV.

  Total energy components:
  | Sum of eigenvalues            :        -209.49490268 Ha       -5700.64634752 eV
  | XC energy correction          :         -46.36898593 Ha       -1261.76430510 eV
  | XC potential correction       :          59.26853019 Ha        1612.77876374 eV
  | Free-atom electrostatic energy:        -178.98727605 Ha       -4870.49158921 eV
  | Hartree energy correction     :          -7.18838332 Ha        -195.60586238 eV
  | van der Waals energy corr.    :           0.00000000 Ha           0.00000000 eV
  | Entropy correction            :           0.00000000 Ha           0.00000000 eV
  | ---------------------------
  | Total energy                  :        -382.77101779 Ha      -10415.72934047 eV
  | Total energy, T -> 0          :        -382.77101779 Ha      -10415.72934047 eV  <-- do not rely on this value for anything but (periodic) metals
  | Electronic free energy        :        -382.77101779 Ha      -10415.72934047 eV

  Derived energy quantities:
  | Kinetic energy                :         381.32367603 Ha       10376.34516751 eV
  | Electrostatic energy          :        -717.72570789 Ha      -19530.31020288 eV
  | Energy correction for multipole
  | error in Hartree potential    :          -0.00546739 Ha          -0.14877534 eV
  | Sum of eigenvalues per atom                           :        -380.04308983 eV
  | Total energy (T->0) per atom                          :        -694.38195603 eV  <-- do not rely on this value for anything but (periodic) metals
  | Electronic free energy per atom                       :        -694.38195603 eV

  Self-consistency convergence accuracy:
  | Change of charge density      : 0.2496E+00
  | Change of sum of eigenvalues  : -.3807E+01 eV
  | Change of total energy        : 0.1702E+00 eV

  End self-consistency iteration #     3       :  max(cpu_time)    wall_clock(cpu1)
  | Time for this iteration                    :        1.912 s           1.912 s
  | Charge density update                      :        0.622 s           0.623 s
  | Density mixing                             :        0.007 s           0.007 s
  | Hartree multipole update                   :        0.005 s           0.004 s
  | Hartree multipole summation                :        0.322 s           0.322 s
  | Integration                                :        0.902 s           0.902 s
  | Solution of K.-S. eqns.                    :        0.053 s           0.053 s
  | Total energy evaluation                    :        0.000 s           0.000 s
------------------------------------------------------------

------------------------------------------------------------
          Begin self-consistency iteration #    4

  Date     :  20150727, Time     :  123536.629
------------------------------------------------------------
  Evaluating new KS density.
  Integration grid: deviation in total charge (<rho> - N_e) =  -1.421085E-14
  Pulay mixing of updated and previous charge densities.

  Evaluating partitioned Hartree potential by multipole expansion.
  | Analytical far-field extrapolation by fixed multipoles:
  | Hartree multipole sum: apparent total charge =  -0.183557E-05
  Summing up the Hartree potential.
  Time summed over all CPUs for potential: real work        2.565 s, elapsed        2.569 s
  | RMS charge density error from multipole expansion :   0.168158E-01

  Integrating Hamiltonian matrix: batch-based integration.
  Time summed over all CPUs for integration: real work        7.085 s, elapsed        7.199 s

  Updating Kohn-Sham eigenvalues, eigenvectors, occupation numbers, and Fermi level.
  Solving generalized eigenproblem
  Updating Kohn-Sham eigenvalues and eigenfunctions.
  Solving real generalised eigenvalue problem by standard LAPACK (fast)
  Determining occupation numbers for Kohn-Sham eigenstates.
  | Chemical potential (Fermi level) in eV                 : -.29309988E+01
  | Error in electron count due to remaining E_F inaccuracy: 0.00000000E+00
  | Maximum occupation number of highest empty state:  0.00E+00

  Highest occupied state (VBM) at     -5.51976010 eV
  | Occupation number:      2.00000000

  Lowest unoccupied state (CBM) at    -1.89817005 eV
  | Occupation number:      0.00000000

  Overall HOMO-LUMO gap:      3.62159005 eV.

  Total energy components:
  | Sum of eigenvalues            :        -208.09099689 Ha       -5662.44412748 eV
  | XC energy correction          :         -46.54727617 Ha       -1266.61582937 eV
  | XC potential correction       :          59.50051132 Ha        1619.09129151 eV
  | Free-atom electrostatic energy:        -178.98727605 Ha       -4870.49158921 eV
  | Hartree energy correction     :          -8.63614635 Ha        -235.00149884 eV
  | van der Waals energy corr.    :           0.00000000 Ha           0.00000000 eV
  | Entropy correction            :           0.00000000 Ha           0.00000000 eV
  | ---------------------------
  | Total energy                  :        -382.76118414 Ha      -10415.46175339 eV
  | Total energy, T -> 0          :        -382.76118414 Ha      -10415.46175339 eV  <-- do not rely on this value for anything but (periodic) metals
  | Electronic free energy        :        -382.76118414 Ha      -10415.46175339 eV

  Derived energy quantities:
  | Kinetic energy                :         381.49495698 Ha       10381.00595915 eV
  | Electrostatic energy          :        -717.70886495 Ha      -19529.85188317 eV
  | Energy correction for multipole
  | error in Hartree potential    :          -0.00713650 Ha          -0.19419409 eV
  | Sum of eigenvalues per atom                           :        -377.49627517 eV
  | Total energy (T->0) per atom                          :        -694.36411689 eV  <-- do not rely on this value for anything but (periodic) metals
  | Electronic free energy per atom                       :        -694.36411689 eV

  Self-consistency convergence accuracy:
  | Change of charge density      : 0.1274E+00
  | Change of sum of eigenvalues  : 0.3820E+02 eV
  | Change of total energy        : 0.2676E+00 eV

  End self-consistency iteration #     4       :  max(cpu_time)    wall_clock(cpu1)
  | Time for this iteration                    :        1.912 s           1.912 s
  | Charge density update                      :        0.622 s           0.622 s
  | Density mixing                             :        0.008 s           0.008 s
  | Hartree multipole update                   :        0.005 s           0.005 s
  | Hartree multipole summation                :        0.322 s           0.322 s
  | Integration                                :        0.901 s           0.901 s
  | Solution of K.-S. eqns.                    :        0.054 s           0.054 s
  | Total energy evaluation                    :        0.000 s           0.000 s
------------------------------------------------------------

------------------------------------------------------------
          Begin self-consistency iteration #    5

  Date     :  20150727, Time     :  123538.541
------------------------------------------------------------
  Evaluating new KS density.
  Integration grid: deviation in total charge (<rho> - N_e) =   0.000000E+00
  Pulay mixing of updated and previous charge densities.

  Evaluating partitioned Hartree potential by multipole expansion.
  | Analytical far-field extrapolation by fixed multipoles:
  | Hartree multipole sum: apparent total charge =  -0.168725E-05
  Summing up the Hartree potential.
  Time summed over all CPUs for potential: real work        2.565 s, elapsed        2.570 s
  | RMS charge density error from multipole expansion :   0.174737E-01

  Integrating Hamiltonian matrix: batch-based integration.
  Time summed over all CPUs for integration: real work        7.082 s, elapsed        7.191 s

  Updating Kohn-Sham eigenvalues, eigenvectors, occupation numbers, and Fermi level.
  Solving generalized eigenproblem
  Updating Kohn-Sham eigenvalues and eigenfunctions.
  Solving real generalised eigenvalue problem by standard LAPACK (fast)
  Determining occupation numbers for Kohn-Sham eigenstates.
  | Chemical potential (Fermi level) in eV                 : -.29291535E+01
  | Error in electron count due to remaining E_F inaccuracy: 0.00000000E+00
  | Maximum occupation number of highest empty state:  0.00E+00

  Highest occupied state (VBM) at     -5.25828895 eV
  | Occupation number:      2.00000000

  Lowest unoccupied state (CBM) at    -1.89376960 eV
  | Occupation number:      0.00000000

  Overall HOMO-LUMO gap:      3.36451935 eV.

  Total energy components:
  | Sum of eigenvalues            :        -207.95317324 Ha       -5658.69375516 eV
  | XC energy correction          :         -46.56941282 Ha       -1267.21819819 eV
  | XC potential correction       :          59.52893596 Ha        1619.86476532 eV
  | Free-atom electrostatic energy:        -178.98727605 Ha       -4870.49158921 eV
  | Hartree energy correction     :          -8.78004517 Ha        -238.91718504 eV
  | van der Waals energy corr.    :           0.00000000 Ha           0.00000000 eV
  | Entropy correction            :           0.00000000 Ha           0.00000000 eV
  | ---------------------------
  | Total energy                  :        -382.76097132 Ha      -10415.45596228 eV
  | Total energy, T -> 0          :        -382.76097132 Ha      -10415.45596228 eV  <-- do not rely on this value for anything but (periodic) metals
  | Electronic free energy        :        -382.76097132 Ha      -10415.45596228 eV

  Derived energy quantities:
  | Kinetic energy                :         381.53886710 Ha       10382.20081431 eV
  | Electrostatic energy          :        -717.73042560 Ha      -19530.43857840 eV
  | Energy correction for multipole
  | error in Hartree potential    :          -0.00745115 Ha          -0.20275623 eV
  | Sum of eigenvalues per atom                           :        -377.24625034 eV
  | Total energy (T->0) per atom                          :        -694.36373082 eV  <-- do not rely on this value for anything but (periodic) metals
  | Electronic free energy per atom                       :        -694.36373082 eV

  Self-consistency convergence accuracy:
  | Change of charge density      : 0.3018E-01
  | Change of sum of eigenvalues  : 0.3750E+01 eV
  | Change of total energy        : 0.5791E-02 eV

  End self-consistency iteration #     5       :  max(cpu_time)    wall_clock(cpu1)
  | Time for this iteration                    :        1.913 s           1.913 s
  | Charge density update                      :        0.623 s           0.623 s
  | Density mixing                             :        0.009 s           0.009 s
  | Hartree multipole update                   :        0.004 s           0.005 s
  | Hartree multipole summation                :        0.322 s           0.322 s
  | Integration                                :        0.901 s           0.900 s
  | Solution of K.-S. eqns.                    :        0.053 s           0.053 s
  | Total energy evaluation                    :        0.000 s           0.000 s
------------------------------------------------------------

------------------------------------------------------------
          Begin self-consistency iteration #    6

  Date     :  20150727, Time     :  123540.454
------------------------------------------------------------
  Evaluating new KS density.
  Integration grid: deviation in total charge (<rho> - N_e) =   4.263256E-14
  Pulay mixing of updated and previous charge densities.

  Evaluating partitioned Hartree potential by multipole expansion.
  | Analytical far-field extrapolation by fixed multipoles:
  | Hartree multipole sum: apparent total charge =  -0.160735E-05
  Summing up the Hartree potential.
  Time summed over all CPUs for potential: real work        2.565 s, elapsed        2.570 s
  | RMS charge density error from multipole expansion :   0.177537E-01

  Integrating Hamiltonian matrix: batch-based integration.
  Time summed over all CPUs for integration: real work        7.079 s, elapsed        7.200 s

  Updating Kohn-Sham eigenvalues, eigenvectors, occupation numbers, and Fermi level.
  Solving generalized eigenproblem
  Updating Kohn-Sham eigenvalues and eigenfunctions.
  Solving real generalised eigenvalue problem by standard LAPACK (fast)
  Determining occupation numbers for Kohn-Sham eigenstates.
  | Chemical potential (Fermi level) in eV                 : -.29204984E+01
  | Error in electron count due to remaining E_F inaccuracy: 0.00000000E+00
  | Maximum occupation number of highest empty state:  0.00E+00

  Highest occupied state (VBM) at     -5.21895575 eV
  | Occupation number:      2.00000000

  Lowest unoccupied state (CBM) at    -1.88722122 eV
  | Occupation number:      0.00000000

  Overall HOMO-LUMO gap:      3.33173453 eV.

  Total energy components:
  | Sum of eigenvalues            :        -207.90145903 Ha       -5657.28653989 eV
  | XC energy correction          :         -46.57745933 Ha       -1267.43715491 eV
  | XC potential correction       :          59.53923887 Ha        1620.14512168 eV
  | Free-atom electrostatic energy:        -178.98727605 Ha       -4870.49158921 eV
  | Hartree energy correction     :          -8.83408983 Ha        -240.38781508 eV
  | van der Waals energy corr.    :           0.00000000 Ha           0.00000000 eV
  | Entropy correction            :           0.00000000 Ha           0.00000000 eV
  | ---------------------------
  | Total energy                  :        -382.76104538 Ha      -10415.45797742 eV
  | Total energy, T -> 0          :        -382.76104538 Ha      -10415.45797742 eV  <-- do not rely on this value for anything but (periodic) metals
  | Electronic free energy        :        -382.76104538 Ha      -10415.45797742 eV

  Derived energy quantities:
  | Kinetic energy                :         381.54267602 Ha       10382.30446047 eV
  | Electrostatic energy          :        -717.72626207 Ha      -19530.32528297 eV
  | Energy correction for multipole
  | error in Hartree potential    :          -0.00758539 Ha          -0.20640904 eV
  | Sum of eigenvalues per atom                           :        -377.15243599 eV
  | Total energy (T->0) per atom                          :        -694.36386516 eV  <-- do not rely on this value for anything but (periodic) metals
  | Electronic free energy per atom                       :        -694.36386516 eV

  Self-consistency convergence accuracy:
  | Change of charge density      : 0.9816E-02
  | Change of sum of eigenvalues  : 0.1407E+01 eV
  | Change of total energy        : -.2015E-02 eV

  End self-consistency iteration #     6       :  max(cpu_time)    wall_clock(cpu1)
  | Time for this iteration                    :        1.914 s           1.915 s
  | Charge density update                      :        0.621 s           0.622 s
  | Density mixing                             :        0.011 s           0.011 s
  | Hartree multipole update                   :        0.005 s           0.004 s
  | Hartree multipole summation                :        0.322 s           0.321 s
  | Integration                                :        0.902 s           0.902 s
  | Solution of K.-S. eqns.                    :        0.053 s           0.053 s
  | Total energy evaluation                    :        0.000 s           0.001 s
------------------------------------------------------------

------------------------------------------------------------
          Begin self-consistency iteration #    7

  Date     :  20150727, Time     :  123542.369
------------------------------------------------------------
  Evaluating new KS density.
  Integration grid: deviation in total charge (<rho> - N_e) =   1.421085E-14
  Pulay mixing of updated and previous charge densities.

  Evaluating partitioned Hartree potential by multipole expansion.
  | Analytical far-field extrapolation by fixed multipoles:
  | Hartree multipole sum: apparent total charge =  -0.138315E-05
  Summing up the Hartree potential.
  Time summed over all CPUs for potential: real work        2.565 s, elapsed        2.569 s
  | RMS charge density error from multipole expansion :   0.177320E-01

  Integrating Hamiltonian matrix: batch-based integration.
  Time summed over all CPUs for integration: real work        7.077 s, elapsed        7.218 s

  Updating Kohn-Sham eigenvalues, eigenvectors, occupation numbers, and Fermi level.
  Solving generalized eigenproblem
  Updating Kohn-Sham eigenvalues and eigenfunctions.
  Solving real generalised eigenvalue problem by standard LAPACK (fast)
  Determining occupation numbers for Kohn-Sham eigenstates.
  | Chemical potential (Fermi level) in eV                 : -.29477527E+01
  | Error in electron count due to remaining E_F inaccuracy: 0.00000000E+00
  | Maximum occupation number of highest empty state:  0.00E+00

  Highest occupied state (VBM) at     -5.34440781 eV
  | Occupation number:      2.00000000

  Lowest unoccupied state (CBM) at    -1.89513776 eV
  | Occupation number:      0.00000000

  Overall HOMO-LUMO gap:      3.44927005 eV.

  Total energy components:
  | Sum of eigenvalues            :        -208.03204829 Ha       -5660.84005434 eV
  | XC energy correction          :         -46.56333414 Ha       -1267.05278888 eV
  | XC potential correction       :          59.52030262 Ha        1619.62984025 eV
  | Free-atom electrostatic energy:        -178.98727605 Ha       -4870.49158921 eV
  | Hartree energy correction     :          -8.69858335 Ha        -236.70049610 eV
  | van der Waals energy corr.    :           0.00000000 Ha           0.00000000 eV
  | Entropy correction            :           0.00000000 Ha           0.00000000 eV
  | ---------------------------
  | Total energy                  :        -382.76093920 Ha      -10415.45508828 eV
  | Total energy, T -> 0          :        -382.76093920 Ha      -10415.45508828 eV  <-- do not rely on this value for anything but (periodic) metals
  | Electronic free energy        :        -382.76093920 Ha      -10415.45508828 eV

  Derived energy quantities:
  | Kinetic energy                :         381.58745175 Ha       10383.52286981 eV
  | Electrostatic energy          :        -717.78505681 Ha      -19531.92516922 eV
  | Energy correction for multipole
  | error in Hartree potential    :          -0.00750832 Ha          -0.20431172 eV
  | Sum of eigenvalues per atom                           :        -377.38933696 eV
  | Total energy (T->0) per atom                          :        -694.36367255 eV  <-- do not rely on this value for anything but (periodic) metals
  | Electronic free energy per atom                       :        -694.36367255 eV

  Self-consistency convergence accuracy:
  | Change of charge density      : 0.1054E-01
  | Change of sum of eigenvalues  : -.3554E+01 eV
  | Change of total energy        : 0.2889E-02 eV

  End self-consistency iteration #     7       :  max(cpu_time)    wall_clock(cpu1)
  | Time for this iteration                    :        1.917 s           1.917 s
  | Charge density update                      :        0.621 s           0.621 s
  | Density mixing                             :        0.012 s           0.012 s
  | Hartree multipole update                   :        0.005 s           0.005 s
  | Hartree multipole summation                :        0.322 s           0.322 s
  | Integration                                :        0.904 s           0.904 s
  | Solution of K.-S. eqns.                    :        0.053 s           0.053 s
  | Total energy evaluation                    :        0.000 s           0.000 s
------------------------------------------------------------

------------------------------------------------------------
          Begin self-consistency iteration #    8

  Date     :  20150727, Time     :  123544.286
------------------------------------------------------------
  Evaluating new KS density.
  Integration grid: deviation in total charge (<rho> - N_e) =  -2.842171E-14
  Pulay mixing of updated and previous charge densities.

  Evaluating partitioned Hartree potential by multipole expansion.
  | Analytical far-field extrapolation by fixed multipoles:
  | Hartree multipole sum: apparent total charge =  -0.136061E-05
  Summing up the Hartree potential.
  Time summed over all CPUs for potential: real work        2.565 s, elapsed        2.569 s
  | RMS charge density error from multipole expansion :   0.177469E-01

  Integrating Hamiltonian matrix: batch-based integration.
  Time summed over all CPUs for integration: real work        7.080 s, elapsed        7.217 s

  Updating Kohn-Sham eigenvalues, eigenvectors, occupation numbers, and Fermi level.
  Solving generalized eigenproblem
  Updating Kohn-Sham eigenvalues and eigenfunctions.
  Solving real generalised eigenvalue problem by standard LAPACK (fast)
  Determining occupation numbers for Kohn-Sham eigenstates.
  | Chemical potential (Fermi level) in eV                 : -.29481081E+01
  | Error in electron count due to remaining E_F inaccuracy: 0.00000000E+00
  | Maximum occupation number of highest empty state:  0.00E+00

  Highest occupied state (VBM) at     -5.34211879 eV
  | Occupation number:      2.00000000

  Lowest unoccupied state (CBM) at    -1.89539380 eV
  | Occupation number:      0.00000000

  Overall HOMO-LUMO gap:      3.44672498 eV.

  Total energy components:
  | Sum of eigenvalues            :        -208.03668610 Ha       -5660.96625554 eV
  | XC energy correction          :         -46.56272117 Ha       -1267.03610901 eV
  | XC potential correction       :          59.51945351 Ha        1619.60673482 eV
  | Free-atom electrostatic energy:        -178.98727605 Ha       -4870.49158921 eV
  | Hartree energy correction     :          -8.69370759 Ha        -236.56782004 eV
  | van der Waals energy corr.    :           0.00000000 Ha           0.00000000 eV
  | Entropy correction            :           0.00000000 Ha           0.00000000 eV
  | ---------------------------
  | Total energy                  :        -382.76093739 Ha      -10415.45503898 eV
  | Total energy, T -> 0          :        -382.76093739 Ha      -10415.45503898 eV  <-- do not rely on this value for anything but (periodic) metals
  | Electronic free energy        :        -382.76093739 Ha      -10415.45503898 eV

  Derived energy quantities:
  | Kinetic energy                :         381.59169552 Ha       10383.63834881 eV
  | Electrostatic energy          :        -717.78991175 Ha      -19532.05727878 eV
  | Energy correction for multipole
  | error in Hartree potential    :          -0.00751737 Ha          -0.20455806 eV
  | Sum of eigenvalues per atom                           :        -377.39775037 eV
  | Total energy (T->0) per atom                          :        -694.36366927 eV  <-- do not rely on this value for anything but (periodic) metals
  | Electronic free energy per atom                       :        -694.36366927 eV

  Self-consistency convergence accuracy:
  | Change of charge density      : 0.1648E-02
  | Change of sum of eigenvalues  : -.1262E+00 eV
  | Change of total energy        : 0.4931E-04 eV

  End self-consistency iteration #     8       :  max(cpu_time)    wall_clock(cpu1)
  | Time for this iteration                    :        1.919 s           1.920 s
  | Charge density update                      :        0.621 s           0.621 s
  | Density mixing                             :        0.014 s           0.014 s
  | Hartree multipole update                   :        0.005 s           0.005 s
  | Hartree multipole summation                :        0.322 s           0.322 s
  | Integration                                :        0.904 s           0.903 s
  | Solution of K.-S. eqns.                    :        0.053 s           0.054 s
  | Total energy evaluation                    :        0.000 s           0.000 s
------------------------------------------------------------

------------------------------------------------------------
          Begin self-consistency iteration #    9

  Date     :  20150727, Time     :  123546.206
------------------------------------------------------------
  Evaluating new KS density.
  Integration grid: deviation in total charge (<rho> - N_e) =   2.131628E-14
  Pulay mixing of updated and previous charge densities.

  Evaluating partitioned Hartree potential by multipole expansion.
  | Analytical far-field extrapolation by fixed multipoles:
  | Hartree multipole sum: apparent total charge =  -0.135026E-05
  Summing up the Hartree potential.
  Time summed over all CPUs for potential: real work        2.565 s, elapsed        2.570 s
  | RMS charge density error from multipole expansion :   0.177425E-01

  Integrating Hamiltonian matrix: batch-based integration.
  Time summed over all CPUs for integration: real work        7.076 s, elapsed        7.200 s

  Updating Kohn-Sham eigenvalues, eigenvectors, occupation numbers, and Fermi level.
  Solving generalized eigenproblem
  Updating Kohn-Sham eigenvalues and eigenfunctions.
  Solving real generalised eigenvalue problem by standard LAPACK (fast)
  Determining occupation numbers for Kohn-Sham eigenstates.
  | Chemical potential (Fermi level) in eV                 : -.29484998E+01
  | Error in electron count due to remaining E_F inaccuracy: 0.00000000E+00
  | Maximum occupation number of highest empty state:  0.00E+00

  Highest occupied state (VBM) at     -5.35063203 eV
  | Occupation number:      2.00000000

  Lowest unoccupied state (CBM) at    -1.89557509 eV
  | Occupation number:      0.00000000

  Overall HOMO-LUMO gap:      3.45505693 eV.

  Total energy components:
  | Sum of eigenvalues            :        -208.04085547 Ha       -5661.07970989 eV
  | XC energy correction          :         -46.56214512 Ha       -1267.02043411 eV
  | XC potential correction       :          59.51867920 Ha        1619.58566473 eV
  | Free-atom electrostatic energy:        -178.98727605 Ha       -4870.49158921 eV
  | Hartree energy correction     :          -8.68933892 Ha        -236.44894235 eV
  | van der Waals energy corr.    :           0.00000000 Ha           0.00000000 eV
  | Entropy correction            :           0.00000000 Ha           0.00000000 eV
  | ---------------------------
  | Total energy                  :        -382.76093636 Ha      -10415.45501084 eV
  | Total energy, T -> 0          :        -382.76093636 Ha      -10415.45501084 eV  <-- do not rely on this value for anything but (periodic) metals
  | Electronic free energy        :        -382.76093636 Ha      -10415.45501084 eV

  Derived energy quantities:
  | Kinetic energy                :         381.59629703 Ha       10383.76356221 eV
  | Electrostatic energy          :        -717.79508826 Ha      -19532.19813894 eV
  | Energy correction for multipole
[...]
   ----------------------------------------------------------------
   Total forces(   4)            : 0.293161E+01 -.142688E+00 0.118995E+01
  atom #    5
   Hellmann-Feynman + Multipole  : -.309532E+00 -.585579E+00 -.948895E+00
   Pulay + GGA                   : 0.486174E-01 0.461390E-01 0.707449E-01
   Van der Waals               : 0.149586E-02 -.456888E-03 -.217881E-02
   ----------------------------------------------------------------
   Total forces(   5)            : -.259419E+00 -.539897E+00 -.880329E+00
  atom #    6
   Hellmann-Feynman + Multipole  : -.172428E+01 0.997847E+00 -.404593E+00
   Pulay + GGA                   : 0.119443E+00 -.512717E-01 0.231667E-01
   Van der Waals               : -.249104E-02 0.329178E-02 0.210806E-02
   ----------------------------------------------------------------
   Total forces(   6)            : -.160733E+01 0.949867E+00 -.379319E+00
  atom #    7
   Hellmann-Feynman + Multipole  : -.167224E+01 -.215219E+01 -.137817E+02
   Pulay + GGA                   : 0.267762E+01 0.257596E+01 0.123843E+02
   Van der Waals               : -.556777E-02 -.155100E-02 0.498990E-03
   ----------------------------------------------------------------
   Total forces(   7)            : 0.999805E+00 0.422217E+00 -.139684E+01
  atom #    8
   Hellmann-Feynman + Multipole  : -.426711E+00 -.236025E+00 0.333837E+00
   Pulay + GGA                   : 0.975027E-01 0.556680E-01 0.524023E-01
   Van der Waals               : -.161447E-02 -.356189E-03 -.973768E-03
   ----------------------------------------------------------------
   Total forces(   8)            : -.330823E+00 -.180713E+00 0.385266E+00
  atom #    9
   Hellmann-Feynman + Multipole  : -.538417E+00 -.172184E+00 0.116904E+01
   Pulay + GGA                   : -.617097E-01 -.434803E-01 0.930156E-01
   Van der Waals               : -.377033E-02 -.191750E-02 -.259546E-02
   ----------------------------------------------------------------
   Total forces(   9)            : -.603897E+00 -.217582E+00 0.125946E+01
  atom #   10
   Hellmann-Feynman + Multipole  : -.123482E+02 -.524856E+01 -.139675E+01
   Pulay + GGA                   : 0.132942E+02 0.698483E+01 0.563976E+00
   Van der Waals               : 0.871547E-03 -.545105E-02 -.391228E-02
   ----------------------------------------------------------------
   Total forces(  10)            : 0.946882E+00 0.173081E+01 -.836688E+00
  atom #   11
   Hellmann-Feynman + Multipole  : -.317707E+00 -.156854E+00 -.359535E-02
   Pulay + GGA                   : 0.883936E-01 -.258252E-01 0.122475E-01
   Van der Waals               : -.134614E-02 -.336184E-02 -.573027E-02
   ----------------------------------------------------------------
   Total forces(  11)            : -.230659E+00 -.186041E+00 0.292190E-02
  atom #   12
   Hellmann-Feynman + Multipole  : -.833845E+00 -.149541E+01 0.686244E+00
   Pulay + GGA                   : 0.520872E-01 0.988754E-01 -.637273E-01
   Van der Waals               : 0.234239E-02 -.384853E-02 0.215961E-02
   ----------------------------------------------------------------
   Total forces(  12)            : -.779416E+00 -.140038E+01 0.624676E+00
  atom #   13
   Hellmann-Feynman + Multipole  : 0.676879E+00 -.154908E+02 0.135959E+01
   Pulay + GGA                   : 0.404267E+00 0.156418E+02 -.262018E+01
   Van der Waals               : 0.321963E-02 -.274627E-02 0.485466E-03
   ----------------------------------------------------------------
   Total forces(  13)            : 0.108437E+01 0.148314E+00 -.126010E+01
  atom #   14
   Hellmann-Feynman + Multipole  : -.268577E+00 0.435174E+00 0.239876E+00
   Pulay + GGA                   : -.671737E-01 0.946613E-01 0.840445E-01
   Van der Waals               : 0.337720E-02 -.709912E-03 -.331276E-02
   ----------------------------------------------------------------
   Total forces(  14)            : -.332374E+00 0.529126E+00 0.320607E+00
  atom #   15
   Hellmann-Feynman + Multipole  : -.807361E+00 -.808306E+00 0.107496E+01
   Pulay + GGA                   : 0.402805E-01 0.673589E-01 -.587438E-01
   Van der Waals               : 0.258626E-02 -.408774E-02 0.178597E-02
   ----------------------------------------------------------------
   Total forces(  15)            : -.764494E+00 -.745035E+00 0.101801E+01
  Timings for vdw_correction_hirshfeld (Tkatchenko-Scheffler 2009):
  | CPU time:        5.242 s, Wall clock time:        5.243 s.
  Removing unitary transformations (pure translations, rotations) from forces on atoms.
  Atomic forces before filtering:
  | Net force on center of mass :  0.181031E-02 0.536747E-02 -.123788E-01 eV/A
  | Net torque on center of mass:  0.417350E-02 0.290208E-02 -.231189E-01 eV
  Atomic forces after filtering:
  | Net force on center of mass :  -.446015E-15 -.267609E-15 0.178406E-15 eV/A
  | Net torque on center of mass:  -.132172E-14 -.226580E-14 0.320989E-14 eV
 
  Energy and forces in a compact form:
  | Total energy uncorrected      :         -0.104155231929432E+05 eV
  | Total energy corrected        :         -0.104155231929432E+05 eV  <-- do not rely on this value for anything but (periodic) metals
  | Electronic free energy        :         -0.104155231929432E+05 eV
  Total atomic forces (unitary forces cleaned) [eV/Ang]:
  |   1         -0.171058741565351E+01          0.339242008623406E+01         -0.131494269627527E+01
  |   2          0.217877302405826E+01         -0.353045074245987E+01          0.154403011934083E+01
  |   3         -0.151930366015612E+01         -0.226788621458731E+00         -0.285592152606892E+00
  |   4          0.293193594899306E+01         -0.142673385808537E+00          0.119086310525858E+01
  |   5         -0.259232348065033E+00         -0.539752190144146E+00         -0.879510960541209E+00
  |   6         -0.160680432733564E+01          0.950162256581312E+00         -0.378401441606135E+00
  |   7          0.999657911302290E+00          0.422389860604368E+00         -0.139617253392546E+01
  |   8         -0.331107320835361E+00         -0.180253730273151E+00          0.385799701149861E+00
  |   9         -0.603888922280344E+00         -0.217494998811055E+00          0.126021954336678E+01
  |  10          0.946165271436908E+00          0.173012843415410E+01         -0.836023907682565E+00
  |  11         -0.231223548603682E+00         -0.186408596789212E+00          0.356344793744533E-02
  |  12         -0.780445473904777E+00         -0.140101405303576E+01          0.625195392633832E+00
  |  13          0.108401927663942E+01          0.147436771378313E+00         -0.125922803133269E+01
  |  14         -0.332899626867166E+00          0.528163892556069E+00          0.321427005052239E+00
  |  15         -0.765058788728312E+00         -0.745864982727758E+00          0.101877340923064E+01
 
  ------------------------------------ 
  Start decomposition of the XC Energy 
  ------------------------------------ 
  Hartree-Fock part   :          0.000000000 Ha              0.000000000 eV
  ------------------------------------ 
  X Energy            :        -44.928194223 Ha          -1222.558367881 eV
  C Energy GGA        :         -1.634496470 Ha            -44.476911905 eV
  Total XC Energy     :        -46.562690692 Ha          -1267.035279785 eV
  LDA X and C from self-consistent density 
  X Energy LDA        :        -40.485843284 Ha          -1101.675848417 eV
  C Energy LDA        :         -3.298259887 Ha            -89.750217964 eV
  ------------------------------------ 
  End decomposition of the XC Energy 
  ------------------------------------ 
  Performing Hirshfeld analysis of fragment charges and moments.
  ----------------------------------------------------------------------
  | Atom     1: O
  |   Hirshfeld charge        :     -0.35927095
  |   Free atom volume        :     23.95238533
  |   Hirshfeld volume        :     24.12254040
  |   Hirshfeld dipole vector :      0.04216864       0.05857394      -0.01644307
  |   Hirshfeld dipole moment :      0.07402347
  |   Hirshfeld second moments:     -0.00046264      -0.03581626       0.02922642
  |                                 -0.03581626      -0.04133212      -0.02774242
  |                                  0.02922642      -0.02774242      -0.09903597
  ----------------------------------------------------------------------
  | Atom     2: H
  |   Hirshfeld charge        :      0.12034948
  |   Free atom volume        :     10.44207651
  |   Hirshfeld volume        :      7.67483373
  |   Hirshfeld dipole vector :     -0.05802840       0.09093068      -0.04184086
  |   Hirshfeld dipole moment :      0.11569936
  |   Hirshfeld second moments:      0.10727768       0.00220975       0.00741690
  |                                  0.00220975       0.06425213      -0.00262856
  |                                  0.00741690      -0.00262856       0.07447446
  ----------------------------------------------------------------------
  | Atom     3: H
  |   Hirshfeld charge        :      0.05749520
  |   Free atom volume        :     10.44207651
  |   Hirshfeld volume        :      8.56696791
  |   Hirshfeld dipole vector :      0.04633051       0.00775154       0.00663250
  |   Hirshfeld dipole moment :      0.04744041
  |   Hirshfeld second moments:      0.01866025      -0.03012064       0.00512808
  |                                 -0.03012064       0.07445786      -0.00517790
  |                                  0.00512808      -0.00517790       0.05724429
  ----------------------------------------------------------------------
  | Atom     4: O
  |   Hirshfeld charge        :     -0.20800188
  |   Free atom volume        :     23.95238533
  |   Hirshfeld volume        :     20.89684209
  |   Hirshfeld dipole vector :     -0.01869702      -0.02576472       0.02802791
  |   Hirshfeld dipole moment :      0.04241419
  |   Hirshfeld second moments:      0.06818146      -0.02587717       0.00811582
  |                                 -0.02587717       0.06563163       0.02971224
  |                                  0.00811582       0.02971224       0.03051638
  ----------------------------------------------------------------------
  | Atom     5: H
  |   Hirshfeld charge        :      0.11058103
  |   Free atom volume        :     10.44207651
  |   Hirshfeld volume        :      7.24436260
  |   Hirshfeld dipole vector :      0.01125236       0.02621155       0.04713653
  |   Hirshfeld dipole moment :      0.05509549
  |   Hirshfeld second moments:      0.11115003      -0.00101339       0.00822526
  |                                 -0.00101339       0.07822528      -0.02648873
  |                                  0.00822526      -0.02648873       0.06604234
  ----------------------------------------------------------------------
  | Atom     6: H
  |   Hirshfeld charge        :      0.16271667
  |   Free atom volume        :     10.44207651
  |   Hirshfeld volume        :      5.92369888
  |   Hirshfeld dipole vector :      0.09116236      -0.07743295       0.01228618
  |   Hirshfeld dipole moment :      0.12023888
  |   Hirshfeld second moments:      0.12231186       0.00236393       0.00105340
  |                                  0.00236393       0.12491058       0.01354478
  |                                  0.00105340       0.01354478       0.12556814
  ----------------------------------------------------------------------
  | Atom     7: O
  |   Hirshfeld charge        :     -0.17531176
  |   Free atom volume        :     23.95238533
  |   Hirshfeld volume        :     19.33886678
  |   Hirshfeld dipole vector :     -0.00932960      -0.00077429       0.00919348
  |   Hirshfeld dipole moment :      0.01312102
  |   Hirshfeld second moments:      0.11394098       0.03036021      -0.00721937
  |                                  0.03036021       0.08664441      -0.00226143
  |                                 -0.00721937      -0.00226143       0.09808396
  ----------------------------------------------------------------------
  | Atom     8: H
  |   Hirshfeld charge        :      0.18647540
  |   Free atom volume        :     10.44207651
  |   Hirshfeld volume        :      5.27567849
  |   Hirshfeld dipole vector :      0.09640100       0.06634467       0.03306554
  |   Hirshfeld dipole moment :      0.12160633
  |   Hirshfeld second moments:      0.13952436       0.00387348      -0.00892373
  |                                  0.00387348       0.13563755      -0.00552400
  |                                 -0.00892373      -0.00552400       0.14852914
  ----------------------------------------------------------------------
  | Atom     9: H
  |   Hirshfeld charge        :      0.18720560
  |   Free atom volume        :     10.44207651
  |   Hirshfeld volume        :      6.11280753
  |   Hirshfeld dipole vector :     -0.06412017      -0.04201508       0.08011600
  |   Hirshfeld dipole moment :      0.11088389
  |   Hirshfeld second moments:      0.11734501       0.00969651       0.01325186
  |                                  0.00969651       0.12940949      -0.00000109
  |                                  0.01325186      -0.00000109       0.13126692
  ----------------------------------------------------------------------
  | Atom    10: O
  |   Hirshfeld charge        :     -0.24079967
  |   Free atom volume        :     23.95238533
  |   Hirshfeld volume        :     20.95915213
  |   Hirshfeld dipole vector :      0.01497060       0.00904851       0.02247962
  |   Hirshfeld dipole moment :      0.02848382
  |   Hirshfeld second moments:      0.04864005      -0.00908704      -0.00858142
  |                                 -0.00908704       0.06730915      -0.03975039
  |                                 -0.00858142      -0.03975039       0.02541883
  ----------------------------------------------------------------------
  | Atom    11: H
  |   Hirshfeld charge        :      0.10843665
  |   Free atom volume        :     10.44207651
  |   Hirshfeld volume        :      7.24291839
  |   Hirshfeld dipole vector :      0.05462416      -0.01965190       0.01193576
  |   Hirshfeld dipole moment :      0.05926600
  |   Hirshfeld second moments:      0.07546510       0.02594217      -0.02331630
  |                                  0.02594217       0.09865905       0.00243411
  |                                 -0.02331630       0.00243411       0.08362985
  ----------------------------------------------------------------------
  | Atom    12: H
  |   Hirshfeld charge        :      0.15412001
  |   Free atom volume        :     10.44207651
  |   Hirshfeld volume        :      5.91729656
  |   Hirshfeld dipole vector :      0.03414260       0.10340331      -0.05075984
  |   Hirshfeld dipole moment :      0.12014376
  |   Hirshfeld second moments:      0.13260415      -0.00873534       0.00231559
  |                                 -0.00873534       0.11786388      -0.00674789
  |                                  0.00231559      -0.00674789       0.11661286
  ----------------------------------------------------------------------
  | Atom    13: O
  |   Hirshfeld charge        :     -0.32312962
  |   Free atom volume        :     23.95238533
  |   Hirshfeld volume        :     22.60952905
  |   Hirshfeld dipole vector :     -0.00634233       0.05841731      -0.01741467
  |   Hirshfeld dipole moment :      0.06128685
  |   Hirshfeld second moments:     -0.01435402      -0.02221856      -0.05679210
  |                                 -0.02221856      -0.01048427       0.01101040
  |                                 -0.05679210       0.01101040       0.01222576
  ----------------------------------------------------------------------
  | Atom    14: H
  |   Hirshfeld charge        :      0.12664358
  |   Free atom volume        :     10.44207651
  |   Hirshfeld volume        :      6.63290367
  |   Hirshfeld dipole vector :     -0.06465517       0.08806142       0.06232300
  |   Hirshfeld dipole moment :      0.12577464
  |   Hirshfeld second moments:      0.09933106       0.00108201      -0.01701994
  |                                  0.00108201       0.10174271      -0.00677577
  |                                 -0.01701994      -0.00677577       0.11267862
  ----------------------------------------------------------------------
  | Atom    15: H
  |   Hirshfeld charge        :      0.09245290
  |   Free atom volume        :     10.44207651
  |   Hirshfeld volume        :      7.85932898
  |   Hirshfeld dipole vector :      0.01855507       0.04131384      -0.04063608
  |   Hirshfeld dipole moment :      0.06084747
  |   Hirshfeld second moments:      0.06633069      -0.02060910       0.01559065
  |                                 -0.02060910       0.09286989       0.01400332
  |                                  0.01559065       0.01400332       0.04721060
  ----------------------------------------------------------------------


------------------------------------------------------------------------------
  Final output of selected total energy values:

  The following output summarizes some interesting total energy values
  at the end of a run (AFTER all relaxation, molecular dynamics, etc.).

  | Total energy of the DFT / Hartree-Fock s.c.f. calculation      :         -10415.523192943 eV
  | Final zero-broadening corrected energy (caution - metals only) :         -10415.523192943 eV
  | For reference only, the value of 1 Hartree used in FHI-aims is :             27.211384500 eV

  Before relying on these values, please be sure to understand exactly which
  total energy value is referred to by a given number. Different objects may
  all carry the same name 'total energy'. Definitions:

  Total energy of the DFT / Hartree-Fock s.c.f. calculation:
  | Note that this energy does not include ANY quantities calculated after the
  | s.c.f. cycle, in particular not ANY RPA, MP2, etc. many-body perturbation terms.

  Final zero-broadening corrected energy:
  | For metallic systems only, a broadening of the occupation numbers at the Fermi
  | level can be extrapolated back to zero broadening by an electron-gas inspired
  | formula. For all systems that are not real metals, this value can be
  | meaningless and should be avoided.

------------------------------------------------------------------------------

------------------------------------------------------------
          Leaving FHI-aims.
          Date     :  20150727, Time     :  123605.555

          Computational steps:
          | Number of self-consistency cycles          :           16

          Detailed time accounting                     :  max(cpu_time)    wall_clock(cpu1)
          | Total time                                 :       37.137 s          37.185 s
          | Preparation time                           :        0.171 s           0.515 s
          | Grid partitioning                          :        0.158 s           0.157 s
          | Preloading free-atom quantities on grid    :        0.014 s           0.013 s
          | Free-atom superposition energy             :        0.067 s           0.067 s
          | Total time for integrations                :       15.799 s          15.796 s
          | Total time for solution of K.-S. equations :        1.050 s           1.051 s
          | Total time for density & force components  :       12.753 s          12.755 s
          | Total time for mixing                      :        0.214 s           0.214 s
          | Total time for Hartree multipole update    :        0.074 s           0.074 s
          | Total time for Hartree multipole sum       :        6.221 s           6.221 s
          | Total time for total energy evaluation     :        0.005 s           0.004 s
          | Total time for scaled ZORA corrections     :        0.000 s           0.000 s
          | Total time for TS (2009) vdW correction    :        0.051 s           0.051 s

          Have a nice day.
------------------------------------------------------------
