  MPI-parallelism will be employed.
------------------------------------------------------------
          Invoking FHI-aims ...
          Version 081213
          Compiled on 2013/08/29 at 17:41:06 on host generoso.

          When using FHI-aims, please cite the following reference:

          Volker Blum, Ralf Gehrke, Felix Hanke, Paula Havu,
          Ville Havu, Xinguo Ren, Karsten Reuter, and Matthias Scheffler,
          'Ab Initio Molecular Simulations with Numeric Atom-Centered Orbitals: FHI-aims',
          Computer Physics Communications 180, 2175-2196 (2009)

          For any questions about FHI-aims, please visit the aimsclub website
          with its forums and wiki. Contributions to both the forums and the
          wiki are warmly encouraged - they are for you, and everyone is welcome there.

------------------------------------------------------------

  Date     :  20150727, Time     :  121508.061
  Time zero on CPU 1             :   0.429920000000000E-01  s.
  Internal wall clock time zero  :           207231308.061  s.

  Using        8 parallel tasks.
  Task        0 on host gen60 reporting.
  Task        1 on host gen60 reporting.
  Task        2 on host gen60 reporting.
  Task        3 on host gen60 reporting.
  Task        4 on host gen60 reporting.
  Task        5 on host gen60 reporting.
  Task        6 on host gen60 reporting.
  Task        7 on host gen60 reporting.

  Performing system and environment tests:
  | Environment variable OMP_NUM_THREADS correctly set to 1.
  | Checking for scalapack...
  | No scalapack compiled in.

  Obtaining array dimensions for all initial allocations:
  
  -----------------------------------------------------------------------
  Parsing control.in (first pass over file, find array dimensions only).
  The contents of control.in will be repeated verbatim below
  unless switched off by setting 'verbatim_writeout .false.' .
  in the first line of control.in .
  -----------------------------------------------------------------------
  
  #########################################################################################
  #
  #  Volker Blum, FHI 2008 : Test run input file control.in
  #
  #########################################################################################
  #
  #  Physical model
  #
    xc                 rpbe
    spin               none
    relativistic       atomic_zora scalar
    charge             0.
   vdw_correction_hirshfeld
  #
  #  SCF convergence
  #
    occupation_type    gaussian 0.01
    mixer              pulay
      n_max_pulay        10
      charge_mix_param   0.1
    sc_accuracy_rho    5E-5
    sc_accuracy_eev    5E-3
    sc_accuracy_etot   5E-6
    sc_iter_limit      3000
  #
  #  Eigenvalue solver
  #
    KS_method          lapack
      empty_states       8
      basis_threshold    0.e-5
  #
  #  Efficiency
  #
  #   all previous settings are now default, except stratmann still
  #   undecided. Continue to handle stratmann with care, if at all.
  #
  #  partition_type stratmann
    partition_type rho_r2
  #  hartree_partition_type stratmann
  #
  #  Oprions for large clusters (100's of atoms: memory saving / better scaling)
  #
  # for periodic systems:
  #
    density_update_method orbital
    packed_matrix_format none
  #  k_grid 6 6 6
  #  output k_eigenvalue 1
  #  distributed_spline_storage .true.
  #
  #  Relaxation
  #
  #  relax_geometry   bfgs 5.e-3
    sc_accuracy_forces 5.E-4
    final_forces_cleaned .true.
  #
  #  Output options
  #
  #  output mulliken
    output Hirshfeld
  #  output dipole
  
  #harmonic_length_scale 0.001
  
  ################################################################################
  #
  #  FHI-aims code project
  #  VB, Fritz-Haber Institut, 2007
  #
  #  Suggested "safe" defaults for H atom (to be pasted into control.in file)
  #  Basis constructed for a non-relativistic H2 molecule using the
  #  PW-LDA functional.
  #
  ################################################################################
    species        H
  #     global species definitions
      nucleus             1
      cut_pot             4.0  2.0  1.0
      cut_free_atom       finite 8.0
      logarithmic         0.00010000 100.00  1.0123
      basis_dep_cutoff    1d-4  # 1d-4 is safe default - please check 5d-4 if you wish!
      radial_base         24 7.0
      radial_multiplier   2
      angular_grids       specified
        division   0.2783  110
        division   0.3822  194
        division   0.5626  302
  #      division   0.5922  434
  #      division   0.6227  590
  #      division   0.7206  770
        outer_grid  302
      l_hartree           4
  ################################################################################
  #
  #  Definition of "minimal" basis
  #
  ################################################################################
  #     valence basis states
      valence      1  s   1.
  #     ion occupancy
      ion_occ      1  s   0.5
  ################################################################################
  #
  #  Suggested additional basis functions. For production calculations,
  #  uncomment them one after another (the most important basis functions are
  #  listed first).
  #
  ################################################################################
  #  "First tier" - improvements: -1014.90 meV to -62.69 meV
       hydro 2 s 2.1
       hydro 2 p 3.5
  #  "Second tier" - improvements: -12.89 meV to -1.83 meV
       hydro 1 s 0.85
       hydro 2 p 3.7
       hydro 2 s 1.2
       hydro 3 d 7
  #  "Third tier" - improvements: -0.25 meV to -0.12 meV
  #     hydro 4 f 11.2
  #     hydro 3 p 4.8
  #     hydro 4 d 9
  #     hydro 3 s 3.2
  
  ################################################################################
  #
  #  FHI-aims code project
  #  VB, Fritz-Haber Institut, 2007
  #
  #  Suggested "safe" defaults for O atom (to be pasted into control.in file)
  #  All values have been tested for a non-relativistic, non-spinpolarized O2
  #  molecule using the PW-LDA functional. Validity for PBE is expected.
  #
  #  Constructed for dimers: 1.0 A, 1.208 A, 1.5 A, 2.0 A, 3.0 A
  #
  ################################################################################
    species        O
  #     global species definitions
      nucleus             8
      mass                15.9994
      l_hartree           4
      cut_pot             4.0  2.0  1.0
      cut_free_atom       finite 8.0
      basis_dep_cutoff    1d-4  # 1d-4 is safe default - please check 5d-4 if you wish!
      logarithmic         0.00010000 100.00  1.0123
      radial_base         36 7.0
      radial_multiplier   2
       angular_grids specified
        division   0.4087  110
        division   0.5181  194
        division   0.6184  302
  #      division   0.7315  434
  #      division   0.7934  590
  #      division   0.9656  770
  #      division   1.4041  974
  #      outer_grid 974
        outer_grid 302
  ################################################################################
  #
  #  Definition of "minimal" basis
  #
  ################################################################################
  #     valence basis states
      valence      2  s   2.
      valence      2  p   4.
  #     ion occupancy
      ion_occ      2  s   1.
      ion_occ      2  p   3.
  ################################################################################
  #
  #  Suggested additional basis functions. For production calculations,
  #  uncomment them one after another (the most important basis functions are
  #  listed first).
  #
  ################################################################################
  #  "First tier" - improvements: -699.05 meV to -159.38 meV
       hydro 2 p 1.8
       hydro 3 d 7.6
       hydro 3 s 6.4
  #  "Second tier" - improvements: -49.91 meV to -5.39 meV
       hydro 4 f 11.6
       hydro 3 p 6.2
       hydro 3 d 5.6
       hydro 5 g 17.6
       hydro 1 s 0.75
  #  "Third tier" - improvements: -2.83 meV to -0.50 meV
  #     ionic 2 p auto
  #     hydro 4 f 10.8
  #     hydro 4 d 4.7
  #     hydro 2 s 6.8
  #  "Fourth tier" - improvements: -0.40 meV to -0.12 meV
  #     hydro 3 p 5
  #     hydro 3 s 3.3
  #     hydro 5 g 15.6
  #     hydro 4 f 17.6
  #     hydro 4 d 14
  # Further basis functions - -0.08 meV and below
  #     hydro 3 s 2.1
  #     hydro 4 d 11.6
  #     hydro 3 p 16
  #     hydro 2 s 17.2
  
  
  -----------------------------------------------------------------------
  Completed first pass over input file control.in .
  -----------------------------------------------------------------------
  
  
  -----------------------------------------------------------------------
  Parsing geometry.in (first pass over file, find array dimensions only).
  The contents of geometry.in will be repeated verbatim below
  unless switched off by setting 'verbatim_writeout .false.' .
  in the first line of geometry.in .
  -----------------------------------------------------------------------
  
  atom      -4.053030000      0.065001000     -1.525160000  O
  atom      -4.566710000      0.974813000     -1.912820000  H
  atom      -3.067820000      0.330172000     -1.477310000  H
  atom      -5.293160000      2.192130000     -2.328800000  O
  atom      -4.829300000      2.988660000     -1.973850000  H
  atom      -5.428570000      2.328640000     -3.235170000  H
  atom      -1.645860000      0.870179000     -1.502250000  O
  atom      -1.568890000      1.501730000     -0.721051000  H
  atom      -0.824432000      0.282220000     -1.377720000  H
  atom      -3.818880000      2.024990000      2.187990000  O
  atom      -3.690880000      1.961360000      3.202150000  H
  atom      -4.546490000      2.751300000      2.045370000  H
  atom      -1.975360000      2.858040000      0.453140000  O
  atom      -1.223550000      3.375850000      0.786238000  H
  atom      -2.537520000      2.567960000      1.156120000  H
  atom      -4.066610000      4.258280000     -0.900064000  O
  atom      -3.224110000      3.876870000     -0.569443000  H
  atom      -3.737450000      5.116530000     -1.322720000  H
  
  -----------------------------------------------------------------------
  Completed first pass over input file geometry.in .
  -----------------------------------------------------------------------
  
 
  Basic array size parameters: 
  | Number of species                 :        2
  | Number of atoms                   :       18
  | Max. basis fn. angular momentum   :        4
  | Max. atomic/ionic basis occupied n:        2
  | Max. number of basis fn. types    :        2
  | Max. radial fns per species/type  :        8
  | Max. logarithmic grid size        :     1301
  | Max. radial integration grid size :       73
  | Max. angular integration grid size:      302
  | Max. angular grid division number :        8
  | Radial grid for Hartree potential :     1301
  | Number of spin channels           :        1

------------------------------------------------------------
          Reading file control.in.
------------------------------------------------------------
  XC: Using RPBE gradient-corrected functionals.
  Spin treatment: No spin polarisation.
  Scalar relativistic treatment of kinetic energy: on-site free-atom approximation to ZORA.
  Charge =   0.000000E+00: Neutral system requested explicitly.
  Using non-empirical van der Waals correction (Hirshfeld partitioning):
  Occupation type: Gaussian broadening, width =   0.100000E-01 eV.
  Using pulay charge density mixing.
  Pulay mixing - number of memorized iterations:   10
  Charge density mixing - mixing parameter:     0.1000
  Convergence accuracy of self-consistent charge density: 0.5000E-04
  Convergence accuracy of sum of eigenvalues: 0.5000E-02
  Convergence accuracy of total energy: 0.5000E-05
  Maximum number of s.-c. iterations  :  3000
  Kohn-Sham eigenvalues and eigenfunctions calculated by lapack diagonalisation (D&C).
  Number of empty states per atom:        8
  Threshold for basis singularities: 0.0000E+00
  Partition function in integrals calculations: rho / r^2
 Using packed matrix format           0
  Convergence accuracy of forces: 0.5000E-03
  Cleaning forces before final output.
  Hirshfeld charge analysis will be performed.
 
  Reading configuration options for species H                   .
  | Found nuclear charge :   1.0000
  | Found cutoff potl. onset [A], width [A], scale factor :    4.00000    2.00000    1.00000
  | Found cutoff specification for free atom: Cutoff potential begins at    8.00000 A.
  | Found logarithmic grid data [bohr] : 0.1000E-03 0.1000E+03 0.1012E+01
  | Threshold for basis-dependent cutoff potential is   0.100000E-03
  | Found data for basic radial integration grid :    24 points, outermost radius =    7.000 A
  | Found multiplier for basic radial grid :   2
  | Found angular grid specification: user-specified.
  | Specified grid contains     4 separate shells.
  | Check grid settings after all constraints further below.
  | Found l_max for Hartree potential  :   4
  | Found free-atom valence shell :  1 s   1.000
  | No ionic wave fns used. Skipping ion_occ.
  | Found hydrogenic basis function :  2 s   2.100
  | Found hydrogenic basis function :  2 p   3.500
  | Found hydrogenic basis function :  1 s   0.850
  | Found hydrogenic basis function :  2 p   3.700
  | Found hydrogenic basis function :  2 s   1.200
  | Found hydrogenic basis function :  3 d   7.000
  Species H                   : Missing cutoff potential type.
  Defaulting to exp(1/x)/(1-x)^2 type cutoff potential.
  Species H : On-site basis accuracy parameter (for Gram-Schmidt orthonormalisation) not specified.
  Using default value basis_acc =  0.1000000E-03.
  Species H                   : Using default innermost maximum threshold i_radial=  2 for radial functions.
  Species H                   : Basic radial grid will be enhanced according to radial_multiplier =   2, to contain    49 grid points.
 
  Reading configuration options for species O                   .
  | Found nuclear charge :   8.0000
  | Found atomic mass :    15.9994000000000      amu
  | Found l_max for Hartree potential  :   4
  | Found cutoff potl. onset [A], width [A], scale factor :    4.00000    2.00000    1.00000
  | Found cutoff specification for free atom: Cutoff potential begins at    8.00000 A.
  | Threshold for basis-dependent cutoff potential is   0.100000E-03
  | Found logarithmic grid data [bohr] : 0.1000E-03 0.1000E+03 0.1012E+01
  | Found data for basic radial integration grid :    36 points, outermost radius =    7.000 A
  | Found multiplier for basic radial grid :   2
  | Found angular grid specification: user-specified.
  | Specified grid contains     4 separate shells.
  | Check grid settings after all constraints further below.
  | Found free-atom valence shell :  2 s   2.000
  | Found free-atom valence shell :  2 p   4.000
  | No ionic wave fns used. Skipping ion_occ.
  | No ionic wave fns used. Skipping ion_occ.
  | Found hydrogenic basis function :  2 p   1.800
  | Found hydrogenic basis function :  3 d   7.600
  | Found hydrogenic basis function :  3 s   6.400
  | Found hydrogenic basis function :  4 f  11.600
  | Found hydrogenic basis function :  3 p   6.200
  | Found hydrogenic basis function :  3 d   5.600
  | Found hydrogenic basis function :  5 g  17.600
  | Found hydrogenic basis function :  1 s   0.750
  Species O                   : Missing cutoff potential type.
  Defaulting to exp(1/x)/(1-x)^2 type cutoff potential.
  Species O : On-site basis accuracy parameter (for Gram-Schmidt orthonormalisation) not specified.
  Using default value basis_acc =  0.1000000E-03.
  Species O                   : Using default innermost maximum threshold i_radial=  2 for radial functions.
  Species O                   : Basic radial grid will be enhanced according to radial_multiplier =   2, to contain    73 grid points.
 
  Finished reading input file 'control.in'. Consistency checks are next.
 
  Target number of points in a grid batch is not set. Defaulting to  100
  Method for grid partitioning is not set. Defaulting to parallel hash+maxmin partitioning.
  Batch size limit is not set. Defaulting to    200
  By default, will store active basis functions for each batch.
  If in need of memory, prune_basis_once .false. can be used to disable this option.
  communication_type for Hartree potential was not specified.
  Defaulting to calc_hartree .
  Pulay mixer: Number of initial linear mixing iterations not set.
  Defaulting to    0 iterations.
  Work space size for distributed Hartree potential not set.
  Defaulting to   0.200000E+03 MB.
  Algorithm-dependent basis array size parameters:
  | n_max_pulay                         :       10
  Geometry relaxation not requested: no relaxation will be performed.
  Handling of forces: Unphysical translation and rotation will be removed from forces.
  No accuracy limit for integral partition fn. given. Defaulting to 0.1000E-14.
  No threshold value for u(r) in integrations given. Defaulting to 0.1000E-05.
  No accuracy for occupation numbers given. Defaulting to 0.1000E-07.
  No threshold value for occupation numbers given. Defaulting to 0.0000E+00.
  No accuracy for fermi level given. Defaulting to 0.1000E-19.
  Maximum # of iterations to find E_F not set. Defaulting to  200.
  Will not use alltoall communication since running on < 1024 CPUs.
  Partitioning for Hartree potential was not defined. Using partition_type for integrals.
  | Reporting present value of keyword multip_moments_threshold  :       0.10000000E-09
  | This value may affect high angular momentum components of the Hartree potential in periodic systems.
  No q(lm)/r^(l+1) cutoff set for long-range Hartree potential.
  | Using default value of  0.100000E-09 .
  | Verify using the multipole_threshold keyword.
  Defaulting to new monopole extrapolation.
  Density update method: Loop over occupied states selected for charge density update.
------------------------------------------------------------


------------------------------------------------------------
          Reading geometry description geometry.in.
------------------------------------------------------------
  Input structure read successfully.
  The structure contains       18 atoms,  and a total of         60.000 electrons.

  Input geometry:
  | No unit cell requested.
  | Atomic structure:
  |       Atom                x [A]            y [A]            z [A]
  |    1: Species O             -4.053030         0.065001        -1.525160
  |    2: Species H             -4.566710         0.974813        -1.912820
  |    3: Species H             -3.067820         0.330172        -1.477310
  |    4: Species O             -5.293160         2.192130        -2.328800
  |    5: Species H             -4.829300         2.988660        -1.973850
  |    6: Species H             -5.428570         2.328640        -3.235170
  |    7: Species O             -1.645860         0.870179        -1.502250
  |    8: Species H             -1.568890         1.501730        -0.721051
  |    9: Species H             -0.824432         0.282220        -1.377720
  |   10: Species O             -3.818880         2.024990         2.187990
  |   11: Species H             -3.690880         1.961360         3.202150
  |   12: Species H             -4.546490         2.751300         2.045370
  |   13: Species O             -1.975360         2.858040         0.453140
  |   14: Species H             -1.223550         3.375850         0.786238
  |   15: Species H             -2.537520         2.567960         1.156120
  |   16: Species O             -4.066610         4.258280        -0.900064
  |   17: Species H             -3.224110         3.876870        -0.569443
  |   18: Species H             -3.737450         5.116530        -1.322720
  |

  | The smallest distance between any two atoms is         0.92654057 AA.
  |
  | The first atom of this pair is atom number                      4 .
  | The second atom of this pair is atom number                     6 .

  Structure-dependent array size parameters: 
  | Maximum number of distinct radial functions  :       18
  | Maximum number of basis functions            :      414
  | Number of Kohn-Sham states (occupied + empty):      102
------------------------------------------------------------

------------------------------------------------------------
          Preparing all fixed parts of the calculation.
------------------------------------------------------------
  Determining machine precision:
    2.225073858507201E-308
  Setting up grids for atomic and cluster calculations.

  Creating wave function, potential, and density for free atoms.

  Species: H

  List of occupied orbitals and eigenvalues:
    n    l              occ      energy [Ha]    energy [eV]
    1    0           1.0000        -0.241408        -6.5691


  Species: O

  List of occupied orbitals and eigenvalues:
    n    l              occ      energy [Ha]    energy [eV]
    1    0           2.0000       -18.944147      -515.4965
    2    0           2.0000        -0.883529       -24.0421
    2    1           4.0000        -0.330176        -8.9845

  Creating fixed part of basis set: Ionic, confined, hydrogenic.
 
  H                    hydrogenic:
 
  List of hydrogenic basis orbitals: 
    n    l      effective z      eigenvalue [eV]  inner max. [A]     outer max. [A]     outer radius [A]   
    2    0         2.100000       -14.9965           0.193241           1.317192           5.372934
    2    1         3.500000       -41.6672           0.602363           0.602363           4.056010
    1    0         0.850000        -9.8292           0.624864           0.624864           5.372934
    2    1         3.700000       -46.5653           0.573616           0.573616           3.909951
    2    0         1.200000        -4.5995           0.334977           2.228160           5.505921
    3    2         7.000000       -74.0753           0.680692           0.680692           3.769152
 
 
  O                    hydrogenic:
 
  List of hydrogenic basis orbitals: 
    n    l      effective z      eigenvalue [eV]  inner max. [A]     outer max. [A]     outer radius [A]   
    2    1         1.800000       -11.0118           1.178546           1.178546           5.432516
    3    2         7.600000       -87.3182           0.624117           0.624117           3.541422
    3    0         6.400000       -61.9209           0.061166           1.081887           4.306510
    4    3        11.600000      -114.4238           0.731621           0.731621           3.584982
    3    1         6.200000       -58.1113           0.255677           1.030255           4.306510
    3    2         5.600000       -47.4081           0.847222           0.847222           4.413102
    5    4        17.600000      -168.5799           0.749730           0.749730           3.372413
    1    0         0.750000        -7.6499           0.705275           0.705275           5.366508
 

  Adding cutoff potential to free-atom effective potential.
  Creating atomic-like basis functions for current effective potential.

  Species H                   :

  List of atomic basis orbitals and eigenvalues:
    n    l      energy [Ha]    energy [eV]    outer radius [A]
    1    0        -0.241374        -6.5681       5.372934


  Species O                   :

  List of atomic basis orbitals and eigenvalues:
    n    l      energy [Ha]    energy [eV]    outer radius [A]
    1    0       -18.944147      -515.4965       1.415745
    2    0        -0.883529       -24.0421       5.048305
    2    1        -0.330173        -8.9845       5.301302

  Assembling full basis from fixed parts.
  | Species H :   atomic orbital   1 s accepted.
  | Species H :    hydro orbital   2 s accepted.
  | Species H :    hydro orbital   1 s accepted.
  | Species H :    hydro orbital   2 s accepted.
  | Species H :    hydro orbital   2 p accepted.
  | Species H :    hydro orbital   2 p accepted.
  | Species H :    hydro orbital   3 d accepted.
  | Species O :   atomic orbital   1 s accepted.
  | Species O :    hydro orbital   3 s accepted.
  | Species O :   atomic orbital   2 s accepted.
  | Species O :    hydro orbital   1 s accepted.
  | Species O :    hydro orbital   3 p accepted.
  | Species O :   atomic orbital   2 p accepted.
  | Species O :    hydro orbital   2 p accepted.
  | Species O :    hydro orbital   3 d accepted.
  | Species O :    hydro orbital   3 d accepted.
  | Species O :    hydro orbital   4 f accepted.
  | Species O :    hydro orbital   5 g accepted.
 
  Basis size parameters after reduction:
  | Total number of radial functions:       18
  | Total number of basis functions :      414
 
  Testing on-site integration grid accuracy.
  |  Species  Function  <phi|h_atom|phi> (log., in eV)  <phi|h_atom|phi> (rad., in eV)
           1        1                 -6.5683835025                 -6.5684759159
           1        2                 13.3711789951                 13.3708738703
           1        3                 23.6590910787                 23.6532055418
           1        4                 16.2963827186                 16.1870710655 ***
           1        5                 28.7627214838                 28.7627215090
           1        6                 59.5965249172                 59.5965950857
           1        7                 60.2220506392                 60.2220503827
           2        8               -515.4964576505               -515.4964530710
           2        9                 15.3030791347                 15.3030722972
           2       10                -21.7296094581                -21.7296135470
           2       11                 14.2969371730                 14.2969701621
           2       12                 21.0679693190                 21.0679697493
           2       13                 -2.3833606469                 -2.3833613176
           2       14                 13.7067136422                 13.7066766629
           2       15                 45.8013116808                 45.8013116965
           2       16                 52.2309815402                 52.2309831494
           2       17                 85.4120732416                 85.4120732763
           2       18                142.1019167745                142.1019167817
 * Note: Onsite integrals marked "***" above are less accurate than
 * onsite_accuracy_threshold =    0.03000 eV. Usually, this is harmless.
 * When in doubt, tighten the "radial" and/or "radial_multiplier" flags to check.

  Preparing densities etc. for the partition functions (integrals / Hartree potential).

  Preparations completed.
  max(cpu_time)          :      0.173 s.
  Wall clock time (cpu1) :      0.570 s.
------------------------------------------------------------

------------------------------------------------------------
          Begin self-consistency loop: Initialization.

          Date     :  20150727, Time     :  121508.657
------------------------------------------------------------

  Initializing index lists of integration centers etc. from given atomic structure:
  | Number of centers in hartree potential         :        18
  | Number of centers in hartree multipole         :        18
  | Number of centers in electron density summation:        18
  | Number of centers in basis integrals           :        18
  | Number of centers in integrals                 :        18
  Partitioning the integration grid into batches with parallel hashing+maxmin method.
  | Number of batches:     2415
  | Maximal batch size:     181
  | Minimal batch size:      49
  | Average batch size:      97.744
  | Standard deviation of batch sizes:      26.043

  Integration load balanced across     8 MPI tasks.
  Work distribution over tasks is as follows:
  Task     0 has      29536 integration points.
  Task     1 has      29456 integration points.
  Task     2 has      29634 integration points.
  Task     3 has      29520 integration points.
  Task     4 has      29470 integration points.
  Task     5 has      29467 integration points.
  Task     6 has      29455 integration points.
  Task     7 has      29514 integration points.
  Initializing partition tables, free-atom densities, potentials, etc. across the integration grid (initialize_grid_storage).
  | Net number of integration points:   236052
  | of which are non-zero points    :   235484
  Obtaining max. number of non-zero basis functions in each batch (get_n_compute_maxes).
  | Maximal number of non-zero basis functions:      410 in task     0
  | Maximal number of non-zero basis functions:      410 in task     1
  | Maximal number of non-zero basis functions:      410 in task     2
  | Maximal number of non-zero basis functions:      410 in task     3
  | Maximal number of non-zero basis functions:      410 in task     4
  | Maximal number of non-zero basis functions:      410 in task     5
  | Maximal number of non-zero basis functions:      410 in task     6
  | Maximal number of non-zero basis functions:      410 in task     7
  Integrating Hamiltonian matrix: batch-based integration.
  Time summed over all CPUs for integration: real work       11.345 s, elapsed       11.576 s
  Integrating overlap matrix.
  Time summed over all CPUs for integration: real work        6.187 s, elapsed        6.284 s

  Updating Kohn-Sham eigenvalues, eigenvectors, occupation numbers, and Fermi level.
  Solving generalized eigenproblem
  Updating Kohn-Sham eigenvalues and eigenfunctions.
  Transforming overlap matrix and checking for singularities.
  Overlap matrix is nonsingular:
  | Lowest eigenvalue:  0.219192E-03
  Solving real generalised eigenvalue problem by standard LAPACK (fast)
  Determining occupation numbers for Kohn-Sham eigenstates.
  | Chemical potential (Fermi level) in eV                 : -.28136231E+01
  | Error in electron count due to remaining E_F inaccuracy: 0.00000000E+00
  | Maximum occupation number of highest empty state:  0.00E+00

  Writing Kohn-Sham eigenvalues.

  State    Occupation    Eigenvalue [Ha]    Eigenvalue [eV]
      1       2.00000         -19.064898         -518.78228
      2       2.00000         -19.059568         -518.63724
      3       2.00000         -19.042989         -518.18609
      4       2.00000         -19.042534         -518.17371
      5       2.00000         -19.032611         -517.90368
      6       2.00000         -19.019683         -517.55190
      7       2.00000          -1.122186          -30.53625
      8       2.00000          -1.113359          -30.29604
      9       2.00000          -1.087391          -29.58942
     10       2.00000          -1.085933          -29.54975
     11       2.00000          -1.065083          -28.98239
     12       2.00000          -1.042053          -28.35571
     13       2.00000          -0.656632          -17.86786
     14       2.00000          -0.653299          -17.77716
     15       2.00000          -0.611320          -16.63487
     16       2.00000          -0.609122          -16.57505
     17       2.00000          -0.604395          -16.44642
     18       2.00000          -0.594102          -16.16634
     19       2.00000          -0.551233          -14.99980
     20       2.00000          -0.522132          -14.20793
     21       2.00000          -0.507644          -13.81370
     22       2.00000          -0.500779          -13.62688
     23       2.00000          -0.491918          -13.38578
     24       2.00000          -0.476781          -12.97387
     25       2.00000          -0.448475          -12.20361
     26       2.00000          -0.441415          -12.01152
     27       2.00000          -0.433473          -11.79540
     28       2.00000          -0.431567          -11.74352
     29       2.00000          -0.425449          -11.57705
     30       2.00000          -0.409731          -11.14935
     31       0.00000          -0.097047           -2.64078
     32       0.00000          -0.069996           -1.90468
     33       0.00000          -0.062613           -1.70379
     34       0.00000          -0.048439           -1.31810
     35       0.00000          -0.031240           -0.85009
     36       0.00000          -0.014054           -0.38243
     37       0.00000           0.008822            0.24007
     38       0.00000           0.027461            0.74725
     39       0.00000           0.039064            1.06298
     40       0.00000           0.043756            1.19066
     41       0.00000           0.050569            1.37604
     42       0.00000           0.062090            1.68955
     43       0.00000           0.073839            2.00927
     44       0.00000           0.079013            2.15006
     45       0.00000           0.086104            2.34301
     46       0.00000           0.092321            2.51219
     47       0.00000           0.100184            2.72615
     48       0.00000           0.101950            2.77420
     49       0.00000           0.110212            2.99902
     50       0.00000           0.118034            3.21186
     51       0.00000           0.123506            3.36076
     52       0.00000           0.130788            3.55893
     53       0.00000           0.133849            3.64222
     54       0.00000           0.139473            3.79525
     55       0.00000           0.149600            4.07082
     56       0.00000           0.153791            4.18486
     57       0.00000           0.158117            4.30260
     58       0.00000           0.171567            4.66858
     59       0.00000           0.184118            5.01011
     60       0.00000           0.192606            5.24107
     61       0.00000           0.216206            5.88326
     62       0.00000           0.229456            6.24380
     63       0.00000           0.241574            6.57357
     64       0.00000           0.251590            6.84611
     65       0.00000           0.262073            7.13138
     66       0.00000           0.268847            7.31570
     67       0.00000           0.287997            7.83680
     68       0.00000           0.295781            8.04861
     69       0.00000           0.307180            8.35879
     70       0.00000           0.312872            8.51369
     71       0.00000           0.333462            9.07397
     72       0.00000           0.343587            9.34949
     73       0.00000           0.352449            9.59062
     74       0.00000           0.356537            9.70187
     75       0.00000           0.367918           10.01157
     76       0.00000           0.378515           10.29992
     77       0.00000           0.389572           10.60080
     78       0.00000           0.394128           10.72478
     79       0.00000           0.405266           11.02784
     80       0.00000           0.419891           11.42580
     81       0.00000           0.428255           11.65341
     82       0.00000           0.446045           12.13749
     83       0.00000           0.448777           12.21185
     84       0.00000           0.462936           12.59712
     85       0.00000           0.470444           12.80142
     86       0.00000           0.484592           13.18642
     87       0.00000           0.500060           13.60731
     88       0.00000           0.506993           13.79597
     89       0.00000           0.529089           14.39724
     90       0.00000           0.555850           15.12544
     91       0.00000           0.577754           15.72148
     92       0.00000           0.592145           16.11308
     93       0.00000           0.607075           16.51934
     94       0.00000           0.625121           17.01040
     95       0.00000           0.649692           17.67902
     96       0.00000           0.665957           18.12162
     97       0.00000           0.696901           18.96364
     98       0.00000           0.707540           19.25315
     99       0.00000           0.733762           19.96669
    100       0.00000           0.747865           20.35045
    101       0.00000           0.758050           20.62758
    102       0.00000           0.774392           21.07227

  Highest occupied state (VBM) at    -11.14934833 eV
  | Occupation number:      2.00000000

  Lowest unoccupied state (CBM) at    -2.64078206 eV
  | Occupation number:      0.00000000

  Overall HOMO-LUMO gap:      8.50856627 eV.
  Calculating total energy contributions from superposition of free atom densities.

  Total energy components:
  | Sum of eigenvalues            :        -260.29550796 Ha       -7083.00115081 eV
  | XC energy correction          :         -54.71836392 Ha       -1488.96243990 eV
  | XC potential correction       :          69.93011572 Ha        1902.89526693 eV
  | Free-atom electrostatic energy:        -214.61215663 Ha       -5839.89391252 eV
  | Hartree energy correction     :           0.00000000 Ha           0.00000000 eV
  | van der Waals energy corr.    :           0.00000000 Ha           0.00000000 eV
  | Entropy correction            :           0.00000000 Ha           0.00000000 eV
  | ---------------------------
  | Total energy                  :        -459.69591280 Ha      -12508.96223630 eV
  | Total energy, T -> 0          :        -459.69591280 Ha      -12508.96223630 eV  <-- do not rely on this value for anything but (periodic) metals
  | Electronic free energy        :        -459.69591280 Ha      -12508.96223630 eV

  Derived energy quantities:
  | Kinetic energy                :         455.06678171 Ha       12382.99717039 eV
  | Electrostatic energy          :        -860.04433059 Ha      -23402.99696678 eV
  | Energy correction for multipole
  | error in Hartree potential    :           0.00000000 Ha           0.00000000 eV
  | Sum of eigenvalues per atom                           :        -393.50006393 eV
  | Total energy (T->0) per atom                          :        -694.94234646 eV  <-- do not rely on this value for anything but (periodic) metals
  | Electronic free energy per atom                       :        -694.94234646 eV
  Initialize hartree_potential_storage
  Max. number of atoms included in rho_multipole:           18

  End scf initialization - timings             :  max(cpu_time)    wall_clock(cpu1)
  | Time for scf. initialization               :        3.036 s           3.034 s
  | Boundary condition initialization          :        0.000 s           0.000 s
  | Integration                                :        2.238 s           2.238 s
  | Solution of K.-S. eqns.                    :        0.298 s           0.298 s
  | Grid partitioning                          :        0.199 s           0.199 s
  | Preloading free-atom quantities on grid    :        0.013 s           0.013 s
  | Free-atom superposition energy             :        0.089 s           0.088 s
  | Total energy evaluation                    :        0.000 s           0.001 s
------------------------------------------------------------

------------------------------------------------------------
          Begin self-consistency iteration #    1

  Date     :  20150727, Time     :  121511.692
------------------------------------------------------------
  Evaluating new KS density.
  Integration grid: deviation in total charge (<rho> - N_e) =  -1.421085E-14
  Pulay mixing of updated and previous charge densities.

  Evaluating partitioned Hartree potential by multipole expansion.
  | Analytical far-field extrapolation by fixed multipoles:
  | Hartree multipole sum: apparent total charge =  -0.259385E-05
  Summing up the Hartree potential.
  Time summed over all CPUs for potential: real work        3.783 s, elapsed        3.794 s
  | RMS charge density error from multipole expansion :   0.178826E-02

  Integrating Hamiltonian matrix: batch-based integration.
  Time summed over all CPUs for integration: real work       11.330 s, elapsed       11.568 s

  Updating Kohn-Sham eigenvalues, eigenvectors, occupation numbers, and Fermi level.
  Solving generalized eigenproblem
  Updating Kohn-Sham eigenvalues and eigenfunctions.
  Solving real generalised eigenvalue problem by standard LAPACK (fast)
  Determining occupation numbers for Kohn-Sham eigenstates.
  | Chemical potential (Fermi level) in eV                 : -.27892518E+01
  | Error in electron count due to remaining E_F inaccuracy: 0.00000000E+00
  | Maximum occupation number of highest empty state:  0.00E+00

  Writing Kohn-Sham eigenvalues.

  State    Occupation    Eigenvalue [Ha]    Eigenvalue [eV]
      1       2.00000         -18.989763         -516.73775
      2       2.00000         -18.988252         -516.69661
      3       2.00000         -18.972166         -516.25891
      4       2.00000         -18.970762         -516.22071
      5       2.00000         -18.966549         -516.10606
      6       2.00000         -18.919817         -514.83442
      7       2.00000          -1.083851          -29.49309
      8       2.00000          -1.079425          -29.37266
      9       2.00000          -1.052222          -28.63243
     10       2.00000          -1.048854          -28.54076
     11       2.00000          -1.033402          -28.12030
     12       2.00000          -0.985208          -26.80888
     13       2.00000          -0.627449          -17.07376
     14       2.00000          -0.619429          -16.85551
     15       2.00000          -0.580707          -15.80183
     16       2.00000          -0.577001          -15.70099
     17       2.00000          -0.568112          -15.45912
     18       2.00000          -0.562681          -15.31132
     19       2.00000          -0.511528          -13.91938
     20       2.00000          -0.488210          -13.28488
     21       2.00000          -0.473075          -12.87301
     22       2.00000          -0.460936          -12.54270
     23       2.00000          -0.456551          -12.42338
     24       2.00000          -0.432432          -11.76708
     25       2.00000          -0.412800          -11.23286
     26       2.00000          -0.397203          -10.80844
     27       2.00000          -0.395422          -10.75998
     28       2.00000          -0.391640          -10.65707
     29       2.00000          -0.385831          -10.49900
     30       2.00000          -0.351594           -9.56736
     31       0.00000          -0.088959           -2.42069
     32       0.00000          -0.062327           -1.69601
     33       0.00000          -0.054375           -1.47961
     34       0.00000          -0.040275           -1.09594
     35       0.00000          -0.024556           -0.66819
     36       0.00000          -0.007775           -0.21156
     37       0.00000           0.023466            0.63853
     38       0.00000           0.039444            1.07334
     39       0.00000           0.048176            1.31092
     40       0.00000           0.054049            1.47076
     41       0.00000           0.057372            1.56117
     42       0.00000           0.071164            1.93646
     43       0.00000           0.083502            2.27220
     44       0.00000           0.091540            2.49093
     45       0.00000           0.096421            2.62374
     46       0.00000           0.101562            2.76363
     47       0.00000           0.110076            2.99533
     48       0.00000           0.114020            3.10265
     49       0.00000           0.122188            3.32491
     50       0.00000           0.131965            3.59096
     51       0.00000           0.136653            3.71853
     52       0.00000           0.139056            3.78389
     53       0.00000           0.147405            4.01110
     54       0.00000           0.151972            4.13537
     55       0.00000           0.158854            4.32264
     56       0.00000           0.169740            4.61885
     57       0.00000           0.177102            4.81919
     58       0.00000           0.188476            5.12868
     59       0.00000           0.194542            5.29375
     60       0.00000           0.205938            5.60387
     61       0.00000           0.227131            6.18055
     62       0.00000           0.240694            6.54961
     63       0.00000           0.251599            6.84634
     64       0.00000           0.262350            7.13890
     65       0.00000           0.271577            7.39000
     66       0.00000           0.279284            7.59971
     67       0.00000           0.296173            8.05927
     68       0.00000           0.303345            8.25444
     69       0.00000           0.319518            8.69454
     70       0.00000           0.322395            8.77280
     71       0.00000           0.344006            9.36087
     72       0.00000           0.353951            9.63149
     73       0.00000           0.360660            9.81406
     74       0.00000           0.370222           10.07426
     75       0.00000           0.378665           10.30400
     76       0.00000           0.388613           10.57470
     77       0.00000           0.401197           10.91713
     78       0.00000           0.402870           10.96266
     79       0.00000           0.414352           11.27510
     80       0.00000           0.431068           11.72996
     81       0.00000           0.438141           11.92243
     82       0.00000           0.454684           12.37259
     83       0.00000           0.458880           12.48675
     84       0.00000           0.475407           12.93649
     85       0.00000           0.478423           13.01855
     86       0.00000           0.492673           13.40631
     87       0.00000           0.512574           13.94785
     88       0.00000           0.522051           14.20574
     89       0.00000           0.542574           14.76419
     90       0.00000           0.569467           15.49600
     91       0.00000           0.588321           16.00902
     92       0.00000           0.603195           16.41377
     93       0.00000           0.617673           16.80773
     94       0.00000           0.638153           17.36503
     95       0.00000           0.666060           18.12440
     96       0.00000           0.680224           18.50983
     97       0.00000           0.711336           19.35644
     98       0.00000           0.721025           19.62010
     99       0.00000           0.748468           20.36684
    100       0.00000           0.760592           20.69675
    101       0.00000           0.769365           20.93550
    102       0.00000           0.785863           21.38442

  Highest occupied state (VBM) at     -9.56735571 eV
  | Occupation number:      2.00000000

  Lowest unoccupied state (CBM) at    -2.42069419 eV
  | Occupation number:      0.00000000

  Overall HOMO-LUMO gap:      7.14666153 eV.

  Total energy components:
  | Sum of eigenvalues            :        -257.56574339 Ha       -7008.72047740 eV
  | XC energy correction          :         -55.00038249 Ha       -1496.63655568 eV
  | XC potential correction       :          70.29856754 Ha        1912.92135126 eV
  | Free-atom electrostatic energy:        -214.61215663 Ha       -5839.89391252 eV
  | Hartree energy correction     :          -2.65030369 Ha         -72.11843268 eV
  | van der Waals energy corr.    :           0.00000000 Ha           0.00000000 eV
  | Entropy correction            :           0.00000000 Ha           0.00000000 eV
  | ---------------------------
  | Total energy                  :        -459.53001866 Ha      -12504.44802702 eV
  | Total energy, T -> 0          :        -459.53001866 Ha      -12504.44802702 eV  <-- do not rely on this value for anything but (periodic) metals
  | Electronic free energy        :        -459.53001866 Ha      -12504.44802702 eV

  Derived energy quantities:
  | Kinetic energy                :         456.74245939 Ha       12428.59467987 eV
  | Electrostatic energy          :        -861.27209555 Ha      -23436.40615121 eV
  | Energy correction for multipole
  | error in Hartree potential    :           0.00004142 Ha           0.00112704 eV
  | Sum of eigenvalues per atom                           :        -389.37335986 eV
  | Total energy (T->0) per atom                          :        -694.69155706 eV  <-- do not rely on this value for anything but (periodic) metals
  | Electronic free energy per atom                       :        -694.69155706 eV

  Self-consistency convergence accuracy:
  | Change of charge density      : 0.7123E+00
  | Change of sum of eigenvalues  : 0.7428E+02 eV
  | Change of total energy        : 0.4514E+01 eV

  End self-consistency iteration #     1       :  max(cpu_time)    wall_clock(cpu1)
  | Time for this iteration                    :        2.934 s           2.933 s
  | Charge density update                      :        0.914 s           0.913 s
  | Density mixing                             :        0.004 s           0.004 s
  | Hartree multipole update                   :        0.006 s           0.006 s
  | Hartree multipole summation                :        0.475 s           0.476 s
  | Integration                                :        1.449 s           1.448 s
  | Solution of K.-S. eqns.                    :        0.082 s           0.081 s
  | Total energy evaluation                    :        0.000 s           0.001 s
------------------------------------------------------------

------------------------------------------------------------
          Begin self-consistency iteration #    2

  Date     :  20150727, Time     :  121514.626
------------------------------------------------------------
  Evaluating new KS density.
  Integration grid: deviation in total charge (<rho> - N_e) =  -2.131628E-14
  Pulay mixing of updated and previous charge densities.

  Evaluating partitioned Hartree potential by multipole expansion.
  | Analytical far-field extrapolation by fixed multipoles:
  | Hartree multipole sum: apparent total charge =  -0.787085E-05
  Summing up the Hartree potential.
  Time summed over all CPUs for potential: real work        3.781 s, elapsed        3.792 s
  | RMS charge density error from multipole expansion :   0.723304E-02

  Integrating Hamiltonian matrix: batch-based integration.
  Time summed over all CPUs for integration: real work       11.305 s, elapsed       11.516 s

  Updating Kohn-Sham eigenvalues, eigenvectors, occupation numbers, and Fermi level.
  Solving generalized eigenproblem
  Updating Kohn-Sham eigenvalues and eigenfunctions.
  Solving real generalised eigenvalue problem by standard LAPACK (fast)
  Determining occupation numbers for Kohn-Sham eigenstates.
  | Chemical potential (Fermi level) in eV                 : -.25717079E+01
  | Error in electron count due to remaining E_F inaccuracy: 0.00000000E+00
  | Maximum occupation number of highest empty state:  0.00E+00

  Highest occupied state (VBM) at     -5.67171151 eV
  | Occupation number:      2.00000000

  Lowest unoccupied state (CBM) at    -1.96615581 eV
  | Occupation number:      0.00000000

  Overall HOMO-LUMO gap:      3.70555570 eV.

  Total energy components:
  | Sum of eigenvalues            :        -250.95495783 Ha       -6828.83184978 eV
  | XC energy correction          :         -55.71090130 Ha       -1515.97075609 eV
  | XC potential correction       :          71.22578048 Ha        1938.15209896 eV
  | Free-atom electrostatic energy:        -214.61215663 Ha       -5839.89391252 eV
  | Hartree energy correction     :          -9.28041426 Ha        -252.53292080 eV
  | van der Waals energy corr.    :           0.00000000 Ha           0.00000000 eV
  | Entropy correction            :           0.00000000 Ha           0.00000000 eV
  | ---------------------------
  | Total energy                  :        -459.33264955 Ha      -12499.07734023 eV
  | Total energy, T -> 0          :        -459.33264955 Ha      -12499.07734023 eV  <-- do not rely on this value for anything but (periodic) metals
  | Electronic free energy        :        -459.33264955 Ha      -12499.07734023 eV

  Derived energy quantities:
  | Kinetic energy                :         460.18710160 Ha       12522.32816360 eV
  | Electrostatic energy          :        -863.80884985 Ha      -23505.43474775 eV
  | Energy correction for multipole
  | error in Hartree potential    :          -0.00089824 Ha          -0.02444227 eV
  | Sum of eigenvalues per atom                           :        -379.37954721 eV
  | Total energy (T->0) per atom                          :        -694.39318557 eV  <-- do not rely on this value for anything but (periodic) metals
  | Electronic free energy per atom                       :        -694.39318557 eV

  Self-consistency convergence accuracy:
  | Change of charge density      : 0.5400E+00
  | Change of sum of eigenvalues  : 0.1799E+03 eV
  | Change of total energy        : 0.5371E+01 eV

  End self-consistency iteration #     2       :  max(cpu_time)    wall_clock(cpu1)
  | Time for this iteration                    :        2.926 s           2.925 s
  | Charge density update                      :        0.913 s           0.913 s
  | Density mixing                             :        0.006 s           0.006 s
  | Hartree multipole update                   :        0.007 s           0.006 s
  | Hartree multipole summation                :        0.475 s           0.475 s
  | Integration                                :        1.442 s           1.442 s
  | Solution of K.-S. eqns.                    :        0.081 s           0.082 s
  | Total energy evaluation                    :        0.000 s           0.001 s
------------------------------------------------------------

------------------------------------------------------------
          Begin self-consistency iteration #    3

  Date     :  20150727, Time     :  121517.552
------------------------------------------------------------
  Evaluating new KS density.
  Integration grid: deviation in total charge (<rho> - N_e) =   1.421085E-14
  Pulay mixing of updated and previous charge densities.

  Evaluating partitioned Hartree potential by multipole expansion.
  | Analytical far-field extrapolation by fixed multipoles:
  | Hartree multipole sum: apparent total charge =  -0.891990E-05
  Summing up the Hartree potential.
  Time summed over all CPUs for potential: real work        3.781 s, elapsed        3.792 s
  | RMS charge density error from multipole expansion :   0.145228E-01

  Integrating Hamiltonian matrix: batch-based integration.
  Time summed over all CPUs for integration: real work       11.313 s, elapsed       11.523 s

  Updating Kohn-Sham eigenvalues, eigenvectors, occupation numbers, and Fermi level.
  Solving generalized eigenproblem
  Updating Kohn-Sham eigenvalues and eigenfunctions.
  Solving real generalised eigenvalue problem by standard LAPACK (fast)
  Determining occupation numbers for Kohn-Sham eigenstates.
  | Chemical potential (Fermi level) in eV                 : -.33506040E+01
  | Error in electron count due to remaining E_F inaccuracy: 0.00000000E+00
  | Maximum occupation number of highest empty state:  0.00E+00

  Highest occupied state (VBM) at     -5.10277338 eV
  | Occupation number:      2.00000000

  Lowest unoccupied state (CBM) at    -1.96829215 eV
  | Occupation number:      0.00000000

  Overall HOMO-LUMO gap:      3.13448123 eV.

  Total energy components:
  | Sum of eigenvalues            :        -250.94649767 Ha       -6828.60163690 eV
  | XC energy correction          :         -55.70073788 Ha       -1515.69419547 eV
  | XC potential correction       :          71.20566325 Ha        1937.60468124 eV
  | Free-atom electrostatic energy:        -214.61215663 Ha       -5839.89391252 eV
  | Hartree energy correction     :          -9.27034743 Ha        -252.25898837 eV
  | van der Waals energy corr.    :           0.00000000 Ha           0.00000000 eV
  | Entropy correction            :           0.00000000 Ha           0.00000000 eV
  | ---------------------------
  | Total energy                  :        -459.32407636 Ha      -12498.84405202 eV
  | Total energy, T -> 0          :        -459.32407636 Ha      -12498.84405202 eV  <-- do not rely on this value for anything but (periodic) metals
  | Electronic free energy        :        -459.32407636 Ha      -12498.84405202 eV

  Derived energy quantities:
  | Kinetic energy                :         457.85770461 Ha       12458.94204647 eV
  | Electrostatic energy          :        -861.48104309 Ha      -23442.09190303 eV
  | Energy correction for multipole
  | error in Hartree potential    :          -0.00668279 Ha          -0.18184797 eV
  | Sum of eigenvalues per atom                           :        -379.36675761 eV
  | Total energy (T->0) per atom                          :        -694.38022511 eV  <-- do not rely on this value for anything but (periodic) metals
  | Electronic free energy per atom                       :        -694.38022511 eV

  Self-consistency convergence accuracy:
  | Change of charge density      : 0.2650E+00
  | Change of sum of eigenvalues  : 0.2302E+00 eV
  | Change of total energy        : 0.2333E+00 eV

  End self-consistency iteration #     3       :  max(cpu_time)    wall_clock(cpu1)
  | Time for this iteration                    :        2.924 s           2.923 s
  | Charge density update                      :        0.909 s           0.908 s
  | Density mixing                             :        0.008 s           0.009 s
  | Hartree multipole update                   :        0.006 s           0.006 s
  | Hartree multipole summation                :        0.474 s           0.475 s
  | Integration                                :        1.442 s           1.442 s
  | Solution of K.-S. eqns.                    :        0.082 s           0.082 s
  | Total energy evaluation                    :        0.000 s           0.001 s
------------------------------------------------------------

------------------------------------------------------------
          Begin self-consistency iteration #    4

  Date     :  20150727, Time     :  121520.476
------------------------------------------------------------
  Evaluating new KS density.
  Integration grid: deviation in total charge (<rho> - N_e) =   3.552714E-14
  Pulay mixing of updated and previous charge densities.

  Evaluating partitioned Hartree potential by multipole expansion.
  | Analytical far-field extrapolation by fixed multipoles:
  | Hartree multipole sum: apparent total charge =  -0.107314E-04
  Summing up the Hartree potential.
  Time summed over all CPUs for potential: real work        3.780 s, elapsed        3.792 s
  | RMS charge density error from multipole expansion :   0.186440E-01

  Integrating Hamiltonian matrix: batch-based integration.
  Time summed over all CPUs for integration: real work       11.304 s, elapsed       11.524 s

  Updating Kohn-Sham eigenvalues, eigenvectors, occupation numbers, and Fermi level.
  Solving generalized eigenproblem
  Updating Kohn-Sham eigenvalues and eigenfunctions.
  Solving real generalised eigenvalue problem by standard LAPACK (fast)
  Determining occupation numbers for Kohn-Sham eigenstates.
  | Chemical potential (Fermi level) in eV                 : -.30773012E+01
  | Error in electron count due to remaining E_F inaccuracy: 0.00000000E+00
  | Maximum occupation number of highest empty state:  0.00E+00

  Highest occupied state (VBM) at     -3.81308306 eV
  | Occupation number:      2.00000000

  Lowest unoccupied state (CBM) at    -1.84776729 eV
  | Occupation number:      0.00000000

  Overall HOMO-LUMO gap:      1.96531577 eV.

  Total energy components:
  | Sum of eigenvalues            :        -249.08128575 Ha       -6777.84663820 eV
  | XC energy correction          :         -55.92017308 Ha       -1521.66533105 eV
  | XC potential correction       :          71.49039860 Ha        1945.35272447 eV
  | Free-atom electrostatic energy:        -214.61215663 Ha       -5839.89391252 eV
  | Hartree energy correction     :         -11.19024621 Ha        -304.50209225 eV
  | van der Waals energy corr.    :           0.00000000 Ha           0.00000000 eV
  | Entropy correction            :           0.00000000 Ha           0.00000000 eV
  | ---------------------------
  | Total energy                  :        -459.31346307 Ha      -12498.55524954 eV
  | Total energy, T -> 0          :        -459.31346307 Ha      -12498.55524954 eV  <-- do not rely on this value for anything but (periodic) metals
  | Electronic free energy        :        -459.31346307 Ha      -12498.55524954 eV

  Derived energy quantities:
  | Kinetic energy                :         457.98755360 Ha       12462.47541714 eV
  | Electrostatic energy          :        -861.38084358 Ha      -23439.36533564 eV
  | Energy correction for multipole
  | error in Hartree potential    :          -0.00909228 Ha          -0.24741352 eV
  | Sum of eigenvalues per atom                           :        -376.54703546 eV
  | Total energy (T->0) per atom                          :        -694.36418053 eV  <-- do not rely on this value for anything but (periodic) metals
  | Electronic free energy per atom                       :        -694.36418053 eV

  Self-consistency convergence accuracy:
  | Change of charge density      : 0.1352E+00
  | Change of sum of eigenvalues  : 0.5075E+02 eV
  | Change of total energy        : 0.2888E+00 eV

  End self-consistency iteration #     4       :  max(cpu_time)    wall_clock(cpu1)
  | Time for this iteration                    :        2.926 s           2.926 s
  | Charge density update                      :        0.909 s           0.909 s
  | Density mixing                             :        0.010 s           0.010 s
  | Hartree multipole update                   :        0.006 s           0.006 s
  | Hartree multipole summation                :        0.474 s           0.475 s
  | Integration                                :        1.443 s           1.443 s
  | Solution of K.-S. eqns.                    :        0.082 s           0.081 s
  | Total energy evaluation                    :        0.001 s           0.001 s
------------------------------------------------------------

------------------------------------------------------------
          Begin self-consistency iteration #    5

  Date     :  20150727, Time     :  121523.403
------------------------------------------------------------
  Evaluating new KS density.
  Integration grid: deviation in total charge (<rho> - N_e) =   2.842171E-14
  Pulay mixing of updated and previous charge densities.

  Evaluating partitioned Hartree potential by multipole expansion.
  | Analytical far-field extrapolation by fixed multipoles:
  | Hartree multipole sum: apparent total charge =  -0.108615E-04
  Summing up the Hartree potential.
  Time summed over all CPUs for potential: real work        3.780 s, elapsed        3.792 s
  | RMS charge density error from multipole expansion :   0.193932E-01

  Integrating Hamiltonian matrix: batch-based integration.
  Time summed over all CPUs for integration: real work       11.314 s, elapsed       11.527 s

  Updating Kohn-Sham eigenvalues, eigenvectors, occupation numbers, and Fermi level.
  Solving generalized eigenproblem
  Updating Kohn-Sham eigenvalues and eigenfunctions.
  Solving real generalised eigenvalue problem by standard LAPACK (fast)
  Determining occupation numbers for Kohn-Sham eigenstates.
  | Chemical potential (Fermi level) in eV                 : -.30377171E+01
  | Error in electron count due to remaining E_F inaccuracy: 0.00000000E+00
  | Maximum occupation number of highest empty state:  0.00E+00

  Highest occupied state (VBM) at     -3.72002022 eV
  | Occupation number:      2.00000000

  Lowest unoccupied state (CBM) at    -1.81783492 eV
  | Occupation number:      0.00000000

  Overall HOMO-LUMO gap:      1.90218529 eV.

  Total energy components:
  | Sum of eigenvalues            :        -248.96348263 Ha       -6774.64105223 eV
  | XC energy correction          :         -55.94115266 Ha       -1522.23621443 eV
  | XC potential correction       :          71.51697873 Ha        1946.07600657 eV
  | Free-atom electrostatic energy:        -214.61215663 Ha       -5839.89391252 eV
  | Hartree energy correction     :         -11.31334751 Ha        -307.85184910 eV
  | van der Waals energy corr.    :           0.00000000 Ha           0.00000000 eV
  | Entropy correction            :           0.00000000 Ha           0.00000000 eV
  | ---------------------------
  | Total energy                  :        -459.31316070 Ha      -12498.54702171 eV
  | Total energy, T -> 0          :        -459.31316070 Ha      -12498.54702171 eV  <-- do not rely on this value for anything but (periodic) metals
  | Electronic free energy        :        -459.31316070 Ha      -12498.54702171 eV

  Derived energy quantities:
  | Kinetic energy                :         458.00679144 Ha       12462.99890546 eV
  | Electrostatic energy          :        -861.37879948 Ha      -23439.30971273 eV
  | Energy correction for multipole
  | error in Hartree potential    :          -0.00951070 Ha          -0.25879939 eV
  | Sum of eigenvalues per atom                           :        -376.36894735 eV
  | Total energy (T->0) per atom                          :        -694.36372343 eV  <-- do not rely on this value for anything but (periodic) metals
  | Electronic free energy per atom                       :        -694.36372343 eV

  Self-consistency convergence accuracy:
  | Change of charge density      : 0.3509E-01
  | Change of sum of eigenvalues  : 0.3206E+01 eV
  | Change of total energy        : 0.8228E-02 eV

  End self-consistency iteration #     5       :  max(cpu_time)    wall_clock(cpu1)
  | Time for this iteration                    :        2.928 s           2.927 s
  | Charge density update                      :        0.909 s           0.908 s
  | Density mixing                             :        0.011 s           0.012 s
  | Hartree multipole update                   :        0.006 s           0.006 s
  | Hartree multipole summation                :        0.474 s           0.475 s
  | Integration                                :        1.444 s           1.443 s
  | Solution of K.-S. eqns.                    :        0.082 s           0.082 s
  | Total energy evaluation                    :        0.000 s           0.001 s
------------------------------------------------------------

------------------------------------------------------------
          Begin self-consistency iteration #    6

  Date     :  20150727, Time     :  121526.331
------------------------------------------------------------
  Evaluating new KS density.
  Integration grid: deviation in total charge (<rho> - N_e) =   2.842171E-14
  Pulay mixing of updated and previous charge densities.

  Evaluating partitioned Hartree potential by multipole expansion.
  | Analytical far-field extrapolation by fixed multipoles:
  | Hartree multipole sum: apparent total charge =  -0.108464E-04
  Summing up the Hartree potential.
  Time summed over all CPUs for potential: real work        3.780 s, elapsed        3.792 s
  | RMS charge density error from multipole expansion :   0.194546E-01

  Integrating Hamiltonian matrix: batch-based integration.
  Time summed over all CPUs for integration: real work       11.297 s, elapsed       11.523 s

  Updating Kohn-Sham eigenvalues, eigenvectors, occupation numbers, and Fermi level.
  Solving generalized eigenproblem
  Updating Kohn-Sham eigenvalues and eigenfunctions.
  Solving real generalised eigenvalue problem by standard LAPACK (fast)
  Determining occupation numbers for Kohn-Sham eigenstates.
  | Chemical potential (Fermi level) in eV                 : -.30420571E+01
  | Error in electron count due to remaining E_F inaccuracy: 0.00000000E+00
  | Maximum occupation number of highest empty state:  0.00E+00

  Highest occupied state (VBM) at     -3.73970916 eV
  | Occupation number:      2.00000000

  Lowest unoccupied state (CBM) at    -1.81958972 eV
  | Occupation number:      0.00000000

  Overall HOMO-LUMO gap:      1.92011944 eV.

  Total energy components:
  | Sum of eigenvalues            :        -248.98778549 Ha       -6775.30236668 eV
  | XC energy correction          :         -55.93923673 Ha       -1522.18407917 eV
  | XC potential correction       :          71.51433778 Ha        1946.00414273 eV
  | Free-atom electrostatic energy:        -214.61215663 Ha       -5839.89391252 eV
  | Hartree energy correction     :         -11.28829290 Ha        -307.17007851 eV
  | van der Waals energy corr.    :           0.00000000 Ha           0.00000000 eV
  | Entropy correction            :           0.00000000 Ha           0.00000000 eV
  | ---------------------------
  | Total energy                  :        -459.31313396 Ha      -12498.54629415 eV
  | Total energy, T -> 0          :        -459.31313396 Ha      -12498.54629415 eV  <-- do not rely on this value for anything but (periodic) metals
  | Electronic free energy        :        -459.31313396 Ha      -12498.54629415 eV

  Derived energy quantities:
  | Kinetic energy                :         457.99715644 Ha       12462.73672371 eV
  | Electrostatic energy          :        -861.37105367 Ha      -23439.09893869 eV
  | Energy correction for multipole
  | error in Hartree potential    :          -0.00955520 Ha          -0.26001035 eV
  | Sum of eigenvalues per atom                           :        -376.40568704 eV
  | Total energy (T->0) per atom                          :        -694.36368301 eV  <-- do not rely on this value for anything but (periodic) metals
  | Electronic free energy per atom                       :        -694.36368301 eV

  Self-consistency convergence accuracy:
  | Change of charge density      : 0.1300E-01
  | Change of sum of eigenvalues  : -.6613E+00 eV
  | Change of total energy        : 0.7276E-03 eV

  End self-consistency iteration #     6       :  max(cpu_time)    wall_clock(cpu1)
  | Time for this iteration                    :        2.928 s           2.927 s
  | Charge density update                      :        0.908 s           0.907 s
  | Density mixing                             :        0.013 s           0.013 s
  | Hartree multipole update                   :        0.006 s           0.006 s
  | Hartree multipole summation                :        0.475 s           0.475 s
  | Integration                                :        1.443 s           1.443 s
  | Solution of K.-S. eqns.                    :        0.082 s           0.081 s
  | Total energy evaluation                    :        0.000 s           0.001 s
------------------------------------------------------------

------------------------------------------------------------
          Begin self-consistency iteration #    7

  Date     :  20150727, Time     :  121529.258
------------------------------------------------------------
  Evaluating new KS density.
  Integration grid: deviation in total charge (<rho> - N_e) =   3.552714E-14
  Pulay mixing of updated and previous charge densities.

  Evaluating partitioned Hartree potential by multipole expansion.
  | Analytical far-field extrapolation by fixed multipoles:
  | Hartree multipole sum: apparent total charge =  -0.106775E-04
  Summing up the Hartree potential.
  Time summed over all CPUs for potential: real work        3.781 s, elapsed        3.792 s
  | RMS charge density error from multipole expansion :   0.194994E-01

  Integrating Hamiltonian matrix: batch-based integration.
  Time summed over all CPUs for integration: real work       11.308 s, elapsed       11.528 s

  Updating Kohn-Sham eigenvalues, eigenvectors, occupation numbers, and Fermi level.
  Solving generalized eigenproblem
  Updating Kohn-Sham eigenvalues and eigenfunctions.
  Solving real generalised eigenvalue problem by standard LAPACK (fast)
  Determining occupation numbers for Kohn-Sham eigenstates.
  | Chemical potential (Fermi level) in eV                 : -.37557003E+01
  | Error in electron count due to remaining E_F inaccuracy: 0.00000000E+00
  | Maximum occupation number of highest empty state:  0.00E+00

  Highest occupied state (VBM) at     -3.89944359 eV
  | Occupation number:      2.00000000

  Lowest unoccupied state (CBM) at    -1.83309618 eV
  | Occupation number:      0.00000000

  Overall HOMO-LUMO gap:      2.06634741 eV.

  Total energy components:
  | Sum of eigenvalues            :        -249.15503214 Ha       -6779.85337966 eV
  | XC energy correction          :         -55.92547836 Ha       -1521.80969502 eV
  | XC potential correction       :          71.49567410 Ha        1945.49627803 eV
  | Free-atom electrostatic energy:        -214.61215663 Ha       -5839.89391252 eV
  | Hartree energy correction     :         -11.11604398 Ha        -302.48294699 eV
  | van der Waals energy corr.    :           0.00000000 Ha           0.00000000 eV
  | Entropy correction            :           0.00000000 Ha           0.00000000 eV
  | ---------------------------
  | Total energy                  :        -459.31303702 Ha      -12498.54365616 eV
  | Total energy, T -> 0          :        -459.31303702 Ha      -12498.54365616 eV  <-- do not rely on this value for anything but (periodic) metals
  | Electronic free energy        :        -459.31303702 Ha      -12498.54365616 eV

  Derived energy quantities:
  | Kinetic energy                :         458.06510273 Ha       12464.58563648 eV
  | Electrostatic energy          :        -861.45266139 Ha      -23441.31959762 eV
  | Energy correction for multipole
  | error in Hartree potential    :          -0.00955047 Ha          -0.25988145 eV
  | Sum of eigenvalues per atom                           :        -376.65852109 eV
  | Total energy (T->0) per atom                          :        -694.36353645 eV  <-- do not rely on this value for anything but (periodic) metals
  | Electronic free energy per atom                       :        -694.36353645 eV

  Self-consistency convergence accuracy:
  | Change of charge density      : 0.1100E-01
  | Change of sum of eigenvalues  : -.4551E+01 eV
  | Change of total energy        : 0.2638E-02 eV

  End self-consistency iteration #     7       :  max(cpu_time)    wall_clock(cpu1)
  | Time for this iteration                    :        2.931 s           2.930 s
  | Charge density update                      :        0.909 s           0.909 s
  | Density mixing                             :        0.015 s           0.014 s
  | Hartree multipole update                   :        0.006 s           0.007 s
  | Hartree multipole summation                :        0.475 s           0.474 s
  | Integration                                :        1.443 s           1.443 s
  | Solution of K.-S. eqns.                    :        0.080 s           0.080 s
  | Total energy evaluation                    :        0.000 s           0.001 s
------------------------------------------------------------

------------------------------------------------------------
          Begin self-consistency iteration #    8

  Date     :  20150727, Time     :  121532.189
------------------------------------------------------------
  Evaluating new KS density.
  Integration grid: deviation in total charge (<rho> - N_e) =  -2.842171E-14
  Pulay mixing of updated and previous charge densities.

  Evaluating partitioned Hartree potential by multipole expansion.
  | Analytical far-field extrapolation by fixed multipoles:
  | Hartree multipole sum: apparent total charge =  -0.107062E-04
  Summing up the Hartree potential.
  Time summed over all CPUs for potential: real work        3.781 s, elapsed        3.792 s
  | RMS charge density error from multipole expansion :   0.195857E-01

  Integrating Hamiltonian matrix: batch-based integration.
  Time summed over all CPUs for integration: real work       11.311 s, elapsed       11.514 s

  Updating Kohn-Sham eigenvalues, eigenvectors, occupation numbers, and Fermi level.
  Solving generalized eigenproblem
  Updating Kohn-Sham eigenvalues and eigenfunctions.
  Solving real generalised eigenvalue problem by standard LAPACK (fast)
  Determining occupation numbers for Kohn-Sham eigenstates.
  | Chemical potential (Fermi level) in eV                 : -.30791200E+01
  | Error in electron count due to remaining E_F inaccuracy: 0.00000000E+00
  | Maximum occupation number of highest empty state:  0.00E+00

  Highest occupied state (VBM) at     -3.85957013 eV
  | Occupation number:      2.00000000

  Lowest unoccupied state (CBM) at    -1.83143943 eV
  | Occupation number:      0.00000000

  Overall HOMO-LUMO gap:      2.02813070 eV.

  Total energy components:
  | Sum of eigenvalues            :        -249.12127441 Ha       -6778.93478517 eV
  | XC energy correction          :         -55.92892699 Ha       -1521.90353703 eV
  | XC potential correction       :          71.50013497 Ha        1945.61766451 eV
  | Free-atom electrostatic energy:        -214.61215663 Ha       -5839.89391252 eV
  | Hartree energy correction     :         -11.15081391 Ha        -303.42908469 eV
  | van der Waals energy corr.    :           0.00000000 Ha           0.00000000 eV
  | Entropy correction            :           0.00000000 Ha           0.00000000 eV
  | ---------------------------
  | Total energy                  :        -459.31303697 Ha      -12498.54365490 eV
  | Total energy, T -> 0          :        -459.31303697 Ha      -12498.54365490 eV  <-- do not rely on this value for anything but (periodic) metals
  | Electronic free energy        :        -459.31303697 Ha      -12498.54365490 eV

  Derived energy quantities:
  | Kinetic energy                :         458.06543357 Ha       12464.59463894 eV
  | Electrostatic energy          :        -861.44954355 Ha      -23441.23475681 eV
  | Energy correction for multipole
  | error in Hartree potential    :          -0.00963140 Ha          -0.26208361 eV
  | Sum of eigenvalues per atom                           :        -376.60748807 eV
  | Total energy (T->0) per atom                          :        -694.36353638 eV  <-- do not rely on this value for anything but (periodic) metals
  | Electronic free energy per atom                       :        -694.36353638 eV

  Self-consistency convergence accuracy:
  | Change of charge density      : 0.2576E-02
  | Change of sum of eigenvalues  : 0.9186E+00 eV
  | Change of total energy        : 0.1253E-05 eV

  End self-consistency iteration #     8       :  max(cpu_time)    wall_clock(cpu1)
  | Time for this iteration                    :        2.932 s           2.931 s
  | Charge density update                      :        0.910 s           0.909 s
  | Density mixing                             :        0.017 s           0.017 s
  | Hartree multipole update                   :        0.006 s           0.006 s
  | Hartree multipole summation                :        0.475 s           0.475 s
  | Integration                                :        1.442 s           1.441 s
  | Solution of K.-S. eqns.                    :        0.081 s           0.081 s
  | Total energy evaluation                    :        0.000 s           0.001 s
------------------------------------------------------------

------------------------------------------------------------
          Begin self-consistency iteration #    9

  Date     :  20150727, Time     :  121535.120
------------------------------------------------------------
  Evaluating new KS density.
  Integration grid: deviation in total charge (<rho> - N_e) =   0.000000E+00
  Pulay mixing of updated and previous charge densities.

[...]
   Pulay + GGA                   : 0.316139E+01 0.351230E+01 0.107919E+02
   Van der Waals               : -.981165E-03 -.306407E-02 -.316205E-02
   ----------------------------------------------------------------
   Total forces(  13)            : 0.166354E+01 0.927138E+00 -.207227E+01
  atom #   14
   Hellmann-Feynman + Multipole  : -.411643E+00 -.260909E+00 0.196566E+00
   Pulay + GGA                   : 0.894880E-01 0.554800E-01 0.524536E-01
   Van der Waals               : -.436251E-02 -.229587E-02 -.844463E-04
   ----------------------------------------------------------------
   Total forces(  14)            : -.326518E+00 -.207725E+00 0.248935E+00
  atom #   15
   Hellmann-Feynman + Multipole  : -.988999E+00 -.598276E+00 0.173564E+01
   Pulay + GGA                   : -.361204E-01 -.101769E-01 0.707141E-01
   Van der Waals               : 0.925241E-03 -.392136E-02 -.513502E-02
   ----------------------------------------------------------------
   Total forces(  15)            : -.102419E+01 -.612374E+00 0.180122E+01
  atom #   16
   Hellmann-Feynman + Multipole  : -.124087E+02 -.333634E+01 0.228213E+01
   Pulay + GGA                   : 0.132281E+02 0.511826E+01 -.306615E+01
   Van der Waals               : 0.490079E-03 -.692065E-02 0.114448E-02
   ----------------------------------------------------------------
   Total forces(  16)            : 0.819804E+00 0.177500E+01 -.782873E+00
  atom #   17
   Hellmann-Feynman + Multipole  : -.115385E+00 -.274794E+00 0.129466E+00
   Pulay + GGA                   : 0.814993E-01 -.210967E-01 0.264694E-01
   Van der Waals               : -.438261E-02 -.577486E-02 -.404833E-03
   ----------------------------------------------------------------
   Total forces(  17)            : -.382684E-01 -.301666E+00 0.155530E+00
  atom #   18
   Hellmann-Feynman + Multipole  : -.822050E+00 -.150535E+01 0.680354E+00
   Pulay + GGA                   : 0.446153E-01 0.107322E+00 -.463962E-01
   Van der Waals               : 0.187106E-02 -.519778E-02 0.236539E-02
   ----------------------------------------------------------------
   Total forces(  18)            : -.775564E+00 -.140322E+01 0.636323E+00
  Timings for vdw_correction_hirshfeld (Tkatchenko-Scheffler 2009):
  | CPU time:        7.715 s, Wall clock time:        7.719 s.
  Removing unitary transformations (pure translations, rotations) from forces on atoms.
  Atomic forces before filtering:
  | Net force on center of mass :  0.555084E-02 -.212347E-02 0.397983E-02 eV/A
  | Net torque on center of mass:  -.146062E-01 0.792600E-02 -.722421E-02 eV
  Atomic forces after filtering:
  | Net force on center of mass :  -.713624E-15 0.892031E-15 -.115964E-14 eV/A
  | Net torque on center of mass:  0.302107E-14 0.132172E-14 0.113290E-14 eV
 
  Energy and forces in a compact form:
  | Total energy uncorrected      :         -0.124986462459457E+05 eV
  | Total energy corrected        :         -0.124986462459457E+05 eV  <-- do not rely on this value for anything but (periodic) metals
  | Electronic free energy        :         -0.124986462459457E+05 eV
  Total atomic forces (unitary forces cleaned) [eV/Ang]:
  |   1         -0.609144754177242E+00          0.230992547154178E+01         -0.792622204082756E+00
  |   2          0.177076593204119E+01         -0.307442502019485E+01          0.124641714090720E+01
  |   3         -0.195555594405694E+01         -0.585191613678801E+00         -0.217665890722776E+00
  |   4         -0.169511141502805E+00          0.578824230859814E+00          0.208878112455399E+01
  |   5         -0.147532527874306E+00         -0.106075467037078E+00         -0.411315134824092E-01
  |   6         -0.284875324302266E+00          0.335297629463049E+00         -0.236120424102837E+01
  |   7          0.316665774458709E+01         -0.449942656890796E-01          0.111559937809766E+01
  |   8         -0.276694149988269E+00         -0.530720642090845E+00         -0.825937381875269E+00
  |   9         -0.159597167487175E+01          0.960977459102303E+00         -0.361468929858059E+00
  |  10         -0.145155662810789E+01          0.155739514115891E+01          0.176468953558405E+01
  |  11         -0.434339755656595E+00          0.267416182483415E+00         -0.212637730510543E+01
  |  12          0.167211521147838E+01         -0.184619470114695E+01          0.523425264053965E+00
  |  13          0.166306726121018E+01          0.927242618326614E+00         -0.207223869153241E+01
  |  14         -0.327089502775768E+00         -0.207591201111031E+00          0.249133098730087E+00
  |  15         -0.102470155896773E+01         -0.612472215382783E+00          0.180113909300300E+01
  |  16          0.819285524368251E+00          0.177510598231367E+01         -0.782780125464957E+00
  |  17         -0.387715523049212E-01         -0.301520697914179E+00          0.155631316250676E+00
  |  18         -0.776147159098602E+00         -0.140299889100396E+01          0.636610331971800E+00
 
  ------------------------------------ 
  Start decomposition of the XC Energy 
  ------------------------------------ 
  Hartree-Fock part   :          0.000000000 Ha              0.000000000 eV
  ------------------------------------ 
  X Energy            :        -53.955363091 Ha          -1468.200130903 eV
  C Energy GGA        :         -1.972470957 Ha            -53.673665639 eV
  Total XC Energy     :        -55.927834048 Ha          -1521.873796542 eV
  LDA X and C from self-consistent density 
  X Energy LDA        :        -48.647219602 Ha          -1323.758197449 eV
  C Energy LDA        :         -3.963108144 Ha           -107.841659527 eV
  ------------------------------------ 
  End decomposition of the XC Energy 
  ------------------------------------ 
  Performing Hirshfeld analysis of fragment charges and moments.
  ----------------------------------------------------------------------
  | Atom     1: O
  |   Hirshfeld charge        :     -0.43991619
  |   Free atom volume        :     23.95238533
  |   Hirshfeld volume        :     25.62396231
  |   Hirshfeld dipole vector :      0.04126144       0.08482105      -0.02253460
  |   Hirshfeld dipole moment :      0.09697900
  |   Hirshfeld second moments:     -0.03125245      -0.02945145       0.02877709
  |                                 -0.02945145      -0.09825230      -0.02060037
  |                                  0.02877709      -0.02060037      -0.14056863
  ----------------------------------------------------------------------
  | Atom     2: H
  |   Hirshfeld charge        :      0.05264640
  |   Free atom volume        :     10.44207651
  |   Hirshfeld volume        :      9.05602455
  |   Hirshfeld dipole vector :     -0.01788002       0.04488658      -0.01836894
  |   Hirshfeld dipole moment :      0.05169060
  |   Hirshfeld second moments:      0.05892051       0.02543734       0.00202311
  |                                  0.02543734       0.01213087       0.01455709
  |                                  0.00202311       0.01455709       0.04755166
  ----------------------------------------------------------------------
  | Atom     3: H
  |   Hirshfeld charge        :      0.03660066
  |   Free atom volume        :     10.44207651
  |   Hirshfeld volume        :      9.24357992
  |   Hirshfeld dipole vector :      0.05100412       0.01832347       0.00597378
  |   Hirshfeld dipole moment :      0.05452390
  |   Hirshfeld second moments:      0.01046075      -0.03155020       0.00621562
  |                                 -0.03155020       0.05433881      -0.00445429
  |                                  0.00621562      -0.00445429       0.03893360
  ----------------------------------------------------------------------
  | Atom     4: O
  |   Hirshfeld charge        :     -0.20597323
  |   Free atom volume        :     23.95238533
  |   Hirshfeld volume        :     20.63477812
  |   Hirshfeld dipole vector :      0.03511563      -0.01029206      -0.01657948
  |   Hirshfeld dipole moment :      0.04017354
  |   Hirshfeld second moments:      0.03157235       0.01151432       0.02672265
  |                                  0.01151432       0.07089362       0.00596978
  |                                  0.02672265       0.00596978       0.09554384
  ----------------------------------------------------------------------
  | Atom     5: H
  |   Hirshfeld charge        :      0.11313578
  |   Free atom volume        :     10.44207651
  |   Hirshfeld volume        :      7.45272852
  |   Hirshfeld dipole vector :      0.02853138       0.03708979       0.00727528
  |   Hirshfeld dipole moment :      0.04735633
  |   Hirshfeld second moments:      0.07796403      -0.02052419      -0.00660656
  |                                 -0.02052419       0.06687250      -0.02817803
  |                                 -0.00660656      -0.02817803       0.10028956
  ----------------------------------------------------------------------
  | Atom     6: H
  |   Hirshfeld charge        :      0.15800823
  |   Free atom volume        :     10.44207651
  |   Hirshfeld volume        :      6.06893099
  |   Hirshfeld dipole vector :     -0.01627752       0.00878417      -0.11915468
  |   Hirshfeld dipole moment :      0.12058175
  |   Hirshfeld second moments:      0.11688770       0.00879183       0.00823795
  |                                  0.00879183       0.13071398       0.00283009
  |                                  0.00823795       0.00283009       0.12150168
  ----------------------------------------------------------------------
  | Atom     7: O
  |   Hirshfeld charge        :     -0.21379123
  |   Free atom volume        :     23.95238533
  |   Hirshfeld volume        :     21.17970791
  |   Hirshfeld dipole vector :     -0.02323261      -0.02806213       0.03230604
  |   Hirshfeld dipole moment :      0.04869207
  |   Hirshfeld second moments:      0.06104756      -0.02864302       0.00885387
  |                                 -0.02864302       0.05897725       0.03038591
  |                                  0.00885387       0.03038591       0.02375243
  ----------------------------------------------------------------------
  | Atom     8: H
  |   Hirshfeld charge        :      0.10541243
  |   Free atom volume        :     10.44207651
  |   Hirshfeld volume        :      7.50335756
  |   Hirshfeld dipole vector :      0.00917942       0.02406021       0.04717537
  |   Hirshfeld dipole moment :      0.05374636
  |   Hirshfeld second moments:      0.10498215      -0.00274009       0.01040194
  |                                 -0.00274009       0.07343871      -0.02550767
  |                                  0.01040194      -0.02550767       0.06029377
  ----------------------------------------------------------------------
  | Atom     9: H
  |   Hirshfeld charge        :      0.15339402
  |   Free atom volume        :     10.44207651
  |   Hirshfeld volume        :      6.19526512
  |   Hirshfeld dipole vector :      0.08781374      -0.07794326       0.01353152
  |   Hirshfeld dipole moment :      0.11819267
  |   Hirshfeld second moments:      0.11584607       0.00031194       0.00095455
  |                                  0.00031194       0.11853184       0.01411808
  |                                  0.00095455       0.01411808       0.11948812
  ----------------------------------------------------------------------
  | Atom    10: O
  |   Hirshfeld charge        :     -0.20350239
  |   Free atom volume        :     23.95238533
  |   Hirshfeld volume        :     20.58092154
  |   Hirshfeld dipole vector :      0.00751415       0.02512935       0.00373940
  |   Hirshfeld dipole moment :      0.02649396
  |   Hirshfeld second moments:      0.06280314      -0.03708630       0.00696809
  |                                 -0.03708630       0.03040882      -0.02553064
  |                                  0.00696809      -0.02553064       0.08655496
  ----------------------------------------------------------------------
  | Atom    11: H
  |   Hirshfeld charge        :      0.16983092
  |   Free atom volume        :     10.44207651
  |   Hirshfeld volume        :      5.67182595
  |   Hirshfeld dipole vector :      0.02132484      -0.01525915       0.11937316
  |   Hirshfeld dipole moment :      0.12221924
  |   Hirshfeld second moments:      0.13629378      -0.01398257      -0.00178794
  |                                 -0.01398257       0.12889496      -0.00569152
  |                                 -0.00178794      -0.00569152       0.12277658
  ----------------------------------------------------------------------
  | Atom    12: H
  |   Hirshfeld charge        :      0.17461579
  |   Free atom volume        :     10.44207651
  |   Hirshfeld volume        :      6.21207584
  |   Hirshfeld dipole vector :     -0.08385097       0.07786648      -0.01886579
  |   Hirshfeld dipole moment :      0.11597454
  |   Hirshfeld second moments:      0.12393315      -0.00101040      -0.00201737
  |                                 -0.00101040       0.10458704       0.00509059
  |                                 -0.00201737       0.00509059       0.13196495
  ----------------------------------------------------------------------
  | Atom    13: O
  |   Hirshfeld charge        :     -0.20487388
  |   Free atom volume        :     23.95238533
  |   Hirshfeld volume        :     19.97986269
  |   Hirshfeld dipole vector :     -0.00531355      -0.00515275       0.00459963
  |   Hirshfeld dipole moment :      0.00871443
  |   Hirshfeld second moments:      0.09531216       0.02458621       0.00491168
  |                                  0.02458621       0.07419082       0.00330282
  |                                  0.00491168       0.00330282       0.07500763
  ----------------------------------------------------------------------
  | Atom    14: H
  |   Hirshfeld charge        :      0.16932102
  |   Free atom volume        :     10.44207651
  |   Hirshfeld volume        :      5.63551962
  |   Hirshfeld dipole vector :      0.09582738       0.06406390       0.03260332
  |   Hirshfeld dipole moment :      0.11979168
  |   Hirshfeld second moments:      0.13012187       0.00300132      -0.00566033
  |                                  0.00300132       0.12783761      -0.00424652
  |                                 -0.00566033      -0.00424652       0.13708492
  ----------------------------------------------------------------------
  | Atom    15: H
  |   Hirshfeld charge        :      0.10878256
  |   Free atom volume        :     10.44207651
  |   Hirshfeld volume        :      7.27589015
  |   Hirshfeld dipole vector :     -0.01897530      -0.01550147       0.02914008
  |   Hirshfeld dipole moment :      0.03807232
  |   Hirshfeld second moments:      0.08061981      -0.01006096       0.03434117
  |                                 -0.01006096       0.09381348       0.01334491
  |                                  0.03434117       0.01334491       0.07924464
  ----------------------------------------------------------------------
  | Atom    16: O
  |   Hirshfeld charge        :     -0.24108307
  |   Free atom volume        :     23.95238533
  |   Hirshfeld volume        :     20.90660465
  |   Hirshfeld dipole vector :      0.02550861      -0.01883411      -0.02805486
  |   Hirshfeld dipole moment :      0.04233779
  |   Hirshfeld second moments:      0.03977936       0.00668332       0.02030634
  |                                  0.00668332       0.08008665      -0.03173417
  |                                  0.02030634      -0.03173417       0.02632015
  ----------------------------------------------------------------------
  | Atom    17: H
  |   Hirshfeld charge        :      0.11086423
  |   Free atom volume        :     10.44207651
  |   Hirshfeld volume        :      7.26527444
  |   Hirshfeld dipole vector :      0.05235333      -0.02165980       0.00533213
  |   Hirshfeld dipole moment :      0.05690738
  |   Hirshfeld second moments:      0.07240225       0.03089780      -0.01962282
  |                                  0.03089780       0.09834893       0.00384746
  |                                 -0.01962282       0.00384746       0.08602589
  ----------------------------------------------------------------------
  | Atom    18: H
  |   Hirshfeld charge        :      0.15654391
  |   Free atom volume        :     10.44207651
  |   Hirshfeld volume        :      5.92391780
  |   Hirshfeld dipole vector :      0.03634158       0.10058540      -0.05591152
  |   Hirshfeld dipole moment :      0.12068236
  |   Hirshfeld second moments:      0.12989715      -0.00478931       0.01071008
  |                                 -0.00478931       0.12387735      -0.00260616
  |                                  0.01071008      -0.00260616       0.11472593
  ----------------------------------------------------------------------


------------------------------------------------------------------------------
  Final output of selected total energy values:

  The following output summarizes some interesting total energy values
  at the end of a run (AFTER all relaxation, molecular dynamics, etc.).

  | Total energy of the DFT / Hartree-Fock s.c.f. calculation      :         -12498.646245946 eV
  | Final zero-broadening corrected energy (caution - metals only) :         -12498.646245946 eV
  | For reference only, the value of 1 Hartree used in FHI-aims is :             27.211384500 eV

  Before relying on these values, please be sure to understand exactly which
  total energy value is referred to by a given number. Different objects may
  all carry the same name 'total energy'. Definitions:

  Total energy of the DFT / Hartree-Fock s.c.f. calculation:
  | Note that this energy does not include ANY quantities calculated after the
  | s.c.f. cycle, in particular not ANY RPA, MP2, etc. many-body perturbation terms.

  Final zero-broadening corrected energy:
  | For metallic systems only, a broadening of the occupation numbers at the Fermi
  | level can be extrapolated back to zero broadening by an electron-gas inspired
  | formula. For all systems that are not real metals, this value can be
  | meaningless and should be avoided.

------------------------------------------------------------------------------

------------------------------------------------------------
          Leaving FHI-aims.
          Date     :  20150727, Time     :  121601.427

          Computational steps:
          | Number of self-consistency cycles          :           15

          Detailed time accounting                     :  max(cpu_time)    wall_clock(cpu1)
          | Total time                                 :       53.329 s          53.366 s
          | Preparation time                           :        0.173 s           0.570 s
          | Grid partitioning                          :        0.199 s           0.199 s
          | Preloading free-atom quantities on grid    :        0.013 s           0.013 s
          | Free-atom superposition energy             :        0.089 s           0.088 s
          | Total time for integrations                :       23.871 s          23.871 s
          | Total time for solution of K.-S. equations :        1.517 s           1.515 s
          | Total time for density & force components  :       17.632 s          17.626 s
          | Total time for mixing                      :        0.227 s           0.228 s
          | Total time for Hartree multipole update    :        0.092 s           0.094 s
          | Total time for Hartree multipole sum       :        8.684 s           8.687 s
          | Total time for total energy evaluation     :        0.004 s           0.022 s
          | Total time for scaled ZORA corrections     :        0.000 s           0.000 s
          | Total time for TS (2009) vdW correction    :        0.077 s           0.081 s

          Have a nice day.
------------------------------------------------------------
