  MPI-parallelism will be employed.
------------------------------------------------------------
          Invoking FHI-aims ...
          Version 081213
          Compiled on 2013/08/29 at 17:41:06 on host generoso.

          When using FHI-aims, please cite the following reference:

          Volker Blum, Ralf Gehrke, Felix Hanke, Paula Havu,
          Ville Havu, Xinguo Ren, Karsten Reuter, and Matthias Scheffler,
          'Ab Initio Molecular Simulations with Numeric Atom-Centered Orbitals: FHI-aims',
          Computer Physics Communications 180, 2175-2196 (2009)

          For any questions about FHI-aims, please visit the aimsclub website
          with its forums and wiki. Contributions to both the forums and the
          wiki are warmly encouraged - they are for you, and everyone is welcome there.

------------------------------------------------------------

  Date     :  20150727, Time     :  124152.407
  Time zero on CPU 1             :   0.379930000000000E-01  s.
  Internal wall clock time zero  :           207232912.407  s.

  Using        8 parallel tasks.
  Task        0 on host gen60 reporting.
  Task        1 on host gen60 reporting.
  Task        2 on host gen60 reporting.
  Task        3 on host gen60 reporting.
  Task        4 on host gen60 reporting.
  Task        5 on host gen60 reporting.
  Task        6 on host gen60 reporting.
  Task        7 on host gen60 reporting.

  Performing system and environment tests:
  | Environment variable OMP_NUM_THREADS correctly set to 1.
  | Checking for scalapack...
  | No scalapack compiled in.

  Obtaining array dimensions for all initial allocations:
  
  -----------------------------------------------------------------------
  Parsing control.in (first pass over file, find array dimensions only).
  The contents of control.in will be repeated verbatim below
  unless switched off by setting 'verbatim_writeout .false.' .
  in the first line of control.in .
  -----------------------------------------------------------------------
  
  #########################################################################################
  #
  #  Volker Blum, FHI 2008 : Test run input file control.in
  #
  #########################################################################################
  #
  #  Physical model
  #
    xc                 rpbe
    spin               none
    relativistic       atomic_zora scalar
    charge             0.
   vdw_correction_hirshfeld
  #
  #  SCF convergence
  #
    occupation_type    gaussian 0.01
    mixer              pulay
      n_max_pulay        10
      charge_mix_param   0.1
    sc_accuracy_rho    5E-5
    sc_accuracy_eev    5E-3
    sc_accuracy_etot   5E-6
    sc_iter_limit      3000
  #
  #  Eigenvalue solver
  #
    KS_method          lapack
      empty_states       8
      basis_threshold    0.e-5
  #
  #  Efficiency
  #
  #   all previous settings are now default, except stratmann still
  #   undecided. Continue to handle stratmann with care, if at all.
  #
  #  partition_type stratmann
    partition_type rho_r2
  #  hartree_partition_type stratmann
  #
  #  Oprions for large clusters (100's of atoms: memory saving / better scaling)
  #
  # for periodic systems:
  #
    density_update_method orbital
    packed_matrix_format none
  #  k_grid 6 6 6
  #  output k_eigenvalue 1
  #  distributed_spline_storage .true.
  #
  #  Relaxation
  #
  #  relax_geometry   bfgs 5.e-3
    sc_accuracy_forces 5.E-4
    final_forces_cleaned .true.
  #
  #  Output options
  #
  #  output mulliken
    output Hirshfeld
  #  output dipole
  
  #harmonic_length_scale 0.001
  
  ################################################################################
  #
  #  FHI-aims code project
  #  VB, Fritz-Haber Institut, 2007
  #
  #  Suggested "safe" defaults for H atom (to be pasted into control.in file)
  #  Basis constructed for a non-relativistic H2 molecule using the
  #  PW-LDA functional.
  #
  ################################################################################
    species        H
  #     global species definitions
      nucleus             1
      cut_pot             4.0  2.0  1.0
      cut_free_atom       finite 8.0
      logarithmic         0.00010000 100.00  1.0123
      basis_dep_cutoff    1d-4  # 1d-4 is safe default - please check 5d-4 if you wish!
      radial_base         24 7.0
      radial_multiplier   2
      angular_grids       specified
        division   0.2783  110
        division   0.3822  194
        division   0.5626  302
  #      division   0.5922  434
  #      division   0.6227  590
  #      division   0.7206  770
        outer_grid  302
      l_hartree           4
  ################################################################################
  #
  #  Definition of "minimal" basis
  #
  ################################################################################
  #     valence basis states
      valence      1  s   1.
  #     ion occupancy
      ion_occ      1  s   0.5
  ################################################################################
  #
  #  Suggested additional basis functions. For production calculations,
  #  uncomment them one after another (the most important basis functions are
  #  listed first).
  #
  ################################################################################
  #  "First tier" - improvements: -1014.90 meV to -62.69 meV
       hydro 2 s 2.1
       hydro 2 p 3.5
  #  "Second tier" - improvements: -12.89 meV to -1.83 meV
       hydro 1 s 0.85
       hydro 2 p 3.7
       hydro 2 s 1.2
       hydro 3 d 7
  #  "Third tier" - improvements: -0.25 meV to -0.12 meV
  #     hydro 4 f 11.2
  #     hydro 3 p 4.8
  #     hydro 4 d 9
  #     hydro 3 s 3.2
  
  ################################################################################
  #
  #  FHI-aims code project
  #  VB, Fritz-Haber Institut, 2007
  #
  #  Suggested "safe" defaults for O atom (to be pasted into control.in file)
  #  All values have been tested for a non-relativistic, non-spinpolarized O2
  #  molecule using the PW-LDA functional. Validity for PBE is expected.
  #
  #  Constructed for dimers: 1.0 A, 1.208 A, 1.5 A, 2.0 A, 3.0 A
  #
  ################################################################################
    species        O
  #     global species definitions
      nucleus             8
      mass                15.9994
      l_hartree           4
      cut_pot             4.0  2.0  1.0
      cut_free_atom       finite 8.0
      basis_dep_cutoff    1d-4  # 1d-4 is safe default - please check 5d-4 if you wish!
      logarithmic         0.00010000 100.00  1.0123
      radial_base         36 7.0
      radial_multiplier   2
       angular_grids specified
        division   0.4087  110
        division   0.5181  194
        division   0.6184  302
  #      division   0.7315  434
  #      division   0.7934  590
  #      division   0.9656  770
  #      division   1.4041  974
  #      outer_grid 974
        outer_grid 302
  ################################################################################
  #
  #  Definition of "minimal" basis
  #
  ################################################################################
  #     valence basis states
      valence      2  s   2.
      valence      2  p   4.
  #     ion occupancy
      ion_occ      2  s   1.
      ion_occ      2  p   3.
  ################################################################################
  #
  #  Suggested additional basis functions. For production calculations,
  #  uncomment them one after another (the most important basis functions are
  #  listed first).
  #
  ################################################################################
  #  "First tier" - improvements: -699.05 meV to -159.38 meV
       hydro 2 p 1.8
       hydro 3 d 7.6
       hydro 3 s 6.4
  #  "Second tier" - improvements: -49.91 meV to -5.39 meV
       hydro 4 f 11.6
       hydro 3 p 6.2
       hydro 3 d 5.6
       hydro 5 g 17.6
       hydro 1 s 0.75
  #  "Third tier" - improvements: -2.83 meV to -0.50 meV
  #     ionic 2 p auto
  #     hydro 4 f 10.8
  #     hydro 4 d 4.7
  #     hydro 2 s 6.8
  #  "Fourth tier" - improvements: -0.40 meV to -0.12 meV
  #     hydro 3 p 5
  #     hydro 3 s 3.3
  #     hydro 5 g 15.6
  #     hydro 4 f 17.6
  #     hydro 4 d 14
  # Further basis functions - -0.08 meV and below
  #     hydro 3 s 2.1
  #     hydro 4 d 11.6
  #     hydro 3 p 16
  #     hydro 2 s 17.2
  
  
  -----------------------------------------------------------------------
  Completed first pass over input file control.in .
  -----------------------------------------------------------------------
  
  
  -----------------------------------------------------------------------
  Parsing geometry.in (first pass over file, find array dimensions only).
  The contents of geometry.in will be repeated verbatim below
  unless switched off by setting 'verbatim_writeout .false.' .
  in the first line of geometry.in .
  -----------------------------------------------------------------------
  
  atom      -4.053030000      0.065001000     -1.525160000  O
  atom      -4.566710000      0.974813000     -1.912820000  H
  atom      -3.067820000      0.330172000     -1.477310000  H
  atom      -4.066610000      4.258280000     -0.900064000  O
  atom      -3.224110000      3.876870000     -0.569443000  H
  atom      -3.737450000      5.116530000     -1.322720000  H
  
  -----------------------------------------------------------------------
  Completed first pass over input file geometry.in .
  -----------------------------------------------------------------------
  
 
  Basic array size parameters: 
  | Number of species                 :        2
  | Number of atoms                   :        6
  | Max. basis fn. angular momentum   :        4
  | Max. atomic/ionic basis occupied n:        2
  | Max. number of basis fn. types    :        2
  | Max. radial fns per species/type  :        8
  | Max. logarithmic grid size        :     1301
  | Max. radial integration grid size :       73
  | Max. angular integration grid size:      302
  | Max. angular grid division number :        8
  | Radial grid for Hartree potential :     1301
  | Number of spin channels           :        1

------------------------------------------------------------
          Reading file control.in.
------------------------------------------------------------
  XC: Using RPBE gradient-corrected functionals.
  Spin treatment: No spin polarisation.
  Scalar relativistic treatment of kinetic energy: on-site free-atom approximation to ZORA.
  Charge =   0.000000E+00: Neutral system requested explicitly.
  Using non-empirical van der Waals correction (Hirshfeld partitioning):
  Occupation type: Gaussian broadening, width =   0.100000E-01 eV.
  Using pulay charge density mixing.
  Pulay mixing - number of memorized iterations:   10
  Charge density mixing - mixing parameter:     0.1000
  Convergence accuracy of self-consistent charge density: 0.5000E-04
  Convergence accuracy of sum of eigenvalues: 0.5000E-02
  Convergence accuracy of total energy: 0.5000E-05
  Maximum number of s.-c. iterations  :  3000
  Kohn-Sham eigenvalues and eigenfunctions calculated by lapack diagonalisation (D&C).
  Number of empty states per atom:        8
  Threshold for basis singularities: 0.0000E+00
  Partition function in integrals calculations: rho / r^2
 Using packed matrix format           0
  Convergence accuracy of forces: 0.5000E-03
  Cleaning forces before final output.
  Hirshfeld charge analysis will be performed.
 
  Reading configuration options for species H                   .
  | Found nuclear charge :   1.0000
  | Found cutoff potl. onset [A], width [A], scale factor :    4.00000    2.00000    1.00000
  | Found cutoff specification for free atom: Cutoff potential begins at    8.00000 A.
  | Found logarithmic grid data [bohr] : 0.1000E-03 0.1000E+03 0.1012E+01
  | Threshold for basis-dependent cutoff potential is   0.100000E-03
  | Found data for basic radial integration grid :    24 points, outermost radius =    7.000 A
  | Found multiplier for basic radial grid :   2
  | Found angular grid specification: user-specified.
  | Specified grid contains     4 separate shells.
  | Check grid settings after all constraints further below.
  | Found l_max for Hartree potential  :   4
  | Found free-atom valence shell :  1 s   1.000
  | No ionic wave fns used. Skipping ion_occ.
  | Found hydrogenic basis function :  2 s   2.100
  | Found hydrogenic basis function :  2 p   3.500
  | Found hydrogenic basis function :  1 s   0.850
  | Found hydrogenic basis function :  2 p   3.700
  | Found hydrogenic basis function :  2 s   1.200
  | Found hydrogenic basis function :  3 d   7.000
  Species H                   : Missing cutoff potential type.
  Defaulting to exp(1/x)/(1-x)^2 type cutoff potential.
  Species H : On-site basis accuracy parameter (for Gram-Schmidt orthonormalisation) not specified.
  Using default value basis_acc =  0.1000000E-03.
  Species H                   : Using default innermost maximum threshold i_radial=  2 for radial functions.
  Species H                   : Basic radial grid will be enhanced according to radial_multiplier =   2, to contain    49 grid points.
 
  Reading configuration options for species O                   .
  | Found nuclear charge :   8.0000
  | Found atomic mass :    15.9994000000000      amu
  | Found l_max for Hartree potential  :   4
  | Found cutoff potl. onset [A], width [A], scale factor :    4.00000    2.00000    1.00000
  | Found cutoff specification for free atom: Cutoff potential begins at    8.00000 A.
  | Threshold for basis-dependent cutoff potential is   0.100000E-03
  | Found logarithmic grid data [bohr] : 0.1000E-03 0.1000E+03 0.1012E+01
  | Found data for basic radial integration grid :    36 points, outermost radius =    7.000 A
  | Found multiplier for basic radial grid :   2
  | Found angular grid specification: user-specified.
  | Specified grid contains     4 separate shells.
  | Check grid settings after all constraints further below.
  | Found free-atom valence shell :  2 s   2.000
  | Found free-atom valence shell :  2 p   4.000
  | No ionic wave fns used. Skipping ion_occ.
  | No ionic wave fns used. Skipping ion_occ.
  | Found hydrogenic basis function :  2 p   1.800
  | Found hydrogenic basis function :  3 d   7.600
  | Found hydrogenic basis function :  3 s   6.400
  | Found hydrogenic basis function :  4 f  11.600
  | Found hydrogenic basis function :  3 p   6.200
  | Found hydrogenic basis function :  3 d   5.600
  | Found hydrogenic basis function :  5 g  17.600
  | Found hydrogenic basis function :  1 s   0.750
  Species O                   : Missing cutoff potential type.
  Defaulting to exp(1/x)/(1-x)^2 type cutoff potential.
  Species O : On-site basis accuracy parameter (for Gram-Schmidt orthonormalisation) not specified.
  Using default value basis_acc =  0.1000000E-03.
  Species O                   : Using default innermost maximum threshold i_radial=  2 for radial functions.
  Species O                   : Basic radial grid will be enhanced according to radial_multiplier =   2, to contain    73 grid points.
 
  Finished reading input file 'control.in'. Consistency checks are next.
 
  Target number of points in a grid batch is not set. Defaulting to  100
  Method for grid partitioning is not set. Defaulting to parallel hash+maxmin partitioning.
  Batch size limit is not set. Defaulting to    200
  By default, will store active basis functions for each batch.
  If in need of memory, prune_basis_once .false. can be used to disable this option.
  communication_type for Hartree potential was not specified.
  Defaulting to calc_hartree .
  Pulay mixer: Number of initial linear mixing iterations not set.
  Defaulting to    0 iterations.
  Work space size for distributed Hartree potential not set.
  Defaulting to   0.200000E+03 MB.
  Algorithm-dependent basis array size parameters:
  | n_max_pulay                         :       10
  Geometry relaxation not requested: no relaxation will be performed.
  Handling of forces: Unphysical translation and rotation will be removed from forces.
  No accuracy limit for integral partition fn. given. Defaulting to 0.1000E-14.
  No threshold value for u(r) in integrations given. Defaulting to 0.1000E-05.
  No accuracy for occupation numbers given. Defaulting to 0.1000E-07.
  No threshold value for occupation numbers given. Defaulting to 0.0000E+00.
  No accuracy for fermi level given. Defaulting to 0.1000E-19.
  Maximum # of iterations to find E_F not set. Defaulting to  200.
  Will not use alltoall communication since running on < 1024 CPUs.
  Partitioning for Hartree potential was not defined. Using partition_type for integrals.
  | Reporting present value of keyword multip_moments_threshold  :       0.10000000E-09
  | This value may affect high angular momentum components of the Hartree potential in periodic systems.
  No q(lm)/r^(l+1) cutoff set for long-range Hartree potential.
  | Using default value of  0.100000E-09 .
  | Verify using the multipole_threshold keyword.
  Defaulting to new monopole extrapolation.
  Density update method: Loop over occupied states selected for charge density update.
------------------------------------------------------------


------------------------------------------------------------
          Reading geometry description geometry.in.
------------------------------------------------------------
  Input structure read successfully.
  The structure contains        6 atoms,  and a total of         20.000 electrons.

  Input geometry:
  | No unit cell requested.
  | Atomic structure:
  |       Atom                x [A]            y [A]            z [A]
  |    1: Species O             -4.053030         0.065001        -1.525160
  |    2: Species H             -4.566710         0.974813        -1.912820
  |    3: Species H             -3.067820         0.330172        -1.477310
  |    4: Species O             -4.066610         4.258280        -0.900064
  |    5: Species H             -3.224110         3.876870        -0.569443
  |    6: Species H             -3.737450         5.116530        -1.322720
  |

  | The smallest distance between any two atoms is         0.98213547 AA.
  |
  | The first atom of this pair is atom number                      4 .
  | The second atom of this pair is atom number                     5 .

  Structure-dependent array size parameters: 
  | Maximum number of distinct radial functions  :       18
  | Maximum number of basis functions            :      138
  | Number of Kohn-Sham states (occupied + empty):       34
------------------------------------------------------------

------------------------------------------------------------
          Preparing all fixed parts of the calculation.
------------------------------------------------------------
  Determining machine precision:
    2.225073858507201E-308
  Setting up grids for atomic and cluster calculations.

  Creating wave function, potential, and density for free atoms.

  Species: H

  List of occupied orbitals and eigenvalues:
    n    l              occ      energy [Ha]    energy [eV]
    1    0           1.0000        -0.241408        -6.5691


  Species: O

  List of occupied orbitals and eigenvalues:
    n    l              occ      energy [Ha]    energy [eV]
    1    0           2.0000       -18.944147      -515.4965
    2    0           2.0000        -0.883529       -24.0421
    2    1           4.0000        -0.330176        -8.9845

  Creating fixed part of basis set: Ionic, confined, hydrogenic.
 
  H                    hydrogenic:
 
  List of hydrogenic basis orbitals: 
    n    l      effective z      eigenvalue [eV]  inner max. [A]     outer max. [A]     outer radius [A]   
    2    0         2.100000       -14.9965           0.193241           1.317192           5.372934
    2    1         3.500000       -41.6672           0.602363           0.602363           4.056010
    1    0         0.850000        -9.8292           0.624864           0.624864           5.372934
    2    1         3.700000       -46.5653           0.573616           0.573616           3.909951
    2    0         1.200000        -4.5995           0.334977           2.228160           5.505921
    3    2         7.000000       -74.0753           0.680692           0.680692           3.769152
 
 
  O                    hydrogenic:
 
  List of hydrogenic basis orbitals: 
    n    l      effective z      eigenvalue [eV]  inner max. [A]     outer max. [A]     outer radius [A]   
    2    1         1.800000       -11.0118           1.178546           1.178546           5.432516
    3    2         7.600000       -87.3182           0.624117           0.624117           3.541422
    3    0         6.400000       -61.9209           0.061166           1.081887           4.306510
    4    3        11.600000      -114.4238           0.731621           0.731621           3.584982
    3    1         6.200000       -58.1113           0.255677           1.030255           4.306510
    3    2         5.600000       -47.4081           0.847222           0.847222           4.413102
    5    4        17.600000      -168.5799           0.749730           0.749730           3.372413
    1    0         0.750000        -7.6499           0.705275           0.705275           5.366508
 

  Adding cutoff potential to free-atom effective potential.
  Creating atomic-like basis functions for current effective potential.

  Species H                   :

  List of atomic basis orbitals and eigenvalues:
    n    l      energy [Ha]    energy [eV]    outer radius [A]
    1    0        -0.241374        -6.5681       5.372934


  Species O                   :

  List of atomic basis orbitals and eigenvalues:
    n    l      energy [Ha]    energy [eV]    outer radius [A]
    1    0       -18.944147      -515.4965       1.415745
    2    0        -0.883529       -24.0421       5.048305
    2    1        -0.330173        -8.9845       5.301302

  Assembling full basis from fixed parts.
  | Species H :   atomic orbital   1 s accepted.
  | Species H :    hydro orbital   2 s accepted.
  | Species H :    hydro orbital   1 s accepted.
  | Species H :    hydro orbital   2 s accepted.
  | Species H :    hydro orbital   2 p accepted.
  | Species H :    hydro orbital   2 p accepted.
  | Species H :    hydro orbital   3 d accepted.
  | Species O :   atomic orbital   1 s accepted.
  | Species O :    hydro orbital   3 s accepted.
  | Species O :   atomic orbital   2 s accepted.
  | Species O :    hydro orbital   1 s accepted.
  | Species O :    hydro orbital   3 p accepted.
  | Species O :   atomic orbital   2 p accepted.
  | Species O :    hydro orbital   2 p accepted.
  | Species O :    hydro orbital   3 d accepted.
  | Species O :    hydro orbital   3 d accepted.
  | Species O :    hydro orbital   4 f accepted.
  | Species O :    hydro orbital   5 g accepted.
 
  Basis size parameters after reduction:
  | Total number of radial functions:       18
  | Total number of basis functions :      138
 
  Testing on-site integration grid accuracy.
  |  Species  Function  <phi|h_atom|phi> (log., in eV)  <phi|h_atom|phi> (rad., in eV)
           1        1                 -6.5683835025                 -6.5684759159
           1        2                 13.3711789951                 13.3708738703
           1        3                 23.6590910787                 23.6532055418
           1        4                 16.2963827186                 16.1870710655 ***
           1        5                 28.7627214838                 28.7627215090
           1        6                 59.5965249172                 59.5965950857
           1        7                 60.2220506392                 60.2220503827
           2        8               -515.4964576505               -515.4964530710
           2        9                 15.3030791347                 15.3030722972
           2       10                -21.7296094581                -21.7296135470
           2       11                 14.2969371730                 14.2969701621
           2       12                 21.0679693190                 21.0679697493
           2       13                 -2.3833606469                 -2.3833613176
           2       14                 13.7067136422                 13.7066766629
           2       15                 45.8013116808                 45.8013116965
           2       16                 52.2309815402                 52.2309831494
           2       17                 85.4120732416                 85.4120732763
           2       18                142.1019167745                142.1019167817
 * Note: Onsite integrals marked "***" above are less accurate than
 * onsite_accuracy_threshold =    0.03000 eV. Usually, this is harmless.
 * When in doubt, tighten the "radial" and/or "radial_multiplier" flags to check.

  Preparing densities etc. for the partition functions (integrals / Hartree potential).

  Preparations completed.
  max(cpu_time)          :      0.169 s.
  Wall clock time (cpu1) :      0.599 s.
------------------------------------------------------------

------------------------------------------------------------
          Begin self-consistency loop: Initialization.

          Date     :  20150727, Time     :  124153.084
------------------------------------------------------------

  Initializing index lists of integration centers etc. from given atomic structure:
  | Number of centers in hartree potential         :         6
  | Number of centers in hartree multipole         :         6
  | Number of centers in electron density summation:         6
  | Number of centers in basis integrals           :         6
  | Number of centers in integrals                 :         6
  Partitioning the integration grid into batches with parallel hashing+maxmin method.
  | Number of batches:      827
  | Maximal batch size:     200
  | Minimal batch size:      49
  | Average batch size:      95.144
  | Standard deviation of batch sizes:      27.796

  Integration load balanced across     8 MPI tasks.
  Work distribution over tasks is as follows:
  Task     0 has       9819 integration points.
  Task     1 has       9866 integration points.
  Task     2 has       9782 integration points.
  Task     3 has       9877 integration points.
  Task     4 has       9831 integration points.
  Task     5 has       9833 integration points.
  Task     6 has       9812 integration points.
  Task     7 has       9864 integration points.
  Initializing partition tables, free-atom densities, potentials, etc. across the integration grid (initialize_grid_storage).
  | Net number of integration points:    78684
  | of which are non-zero points    :    78201
  Obtaining max. number of non-zero basis functions in each batch (get_n_compute_maxes).
  | Maximal number of non-zero basis functions:      137 in task     0
  | Maximal number of non-zero basis functions:      138 in task     1
  | Maximal number of non-zero basis functions:      137 in task     2
  | Maximal number of non-zero basis functions:      137 in task     3
  | Maximal number of non-zero basis functions:      137 in task     4
  | Maximal number of non-zero basis functions:      137 in task     5
  | Maximal number of non-zero basis functions:      137 in task     6
  | Maximal number of non-zero basis functions:      137 in task     7
  Integrating Hamiltonian matrix: batch-based integration.
  Time summed over all CPUs for integration: real work        0.976 s, elapsed        0.997 s
  Integrating overlap matrix.
  Time summed over all CPUs for integration: real work        0.485 s, elapsed        0.495 s

  Updating Kohn-Sham eigenvalues, eigenvectors, occupation numbers, and Fermi level.
  Solving generalized eigenproblem
  Updating Kohn-Sham eigenvalues and eigenfunctions.
  Transforming overlap matrix and checking for singularities.
  Overlap matrix is nonsingular:
  | Lowest eigenvalue:  0.532219E-03
  Solving real generalised eigenvalue problem by standard LAPACK (fast)
  Determining occupation numbers for Kohn-Sham eigenstates.
  | Chemical potential (Fermi level) in eV                 : -.94460982E+01
  | Error in electron count due to remaining E_F inaccuracy: 0.00000000E+00
  | Maximum occupation number of highest empty state:  0.00E+00

  Writing Kohn-Sham eigenvalues.

  State    Occupation    Eigenvalue [Ha]    Eigenvalue [eV]
      1       2.00000         -19.039998         -518.10472
      2       2.00000         -19.019186         -517.53837
      3       2.00000          -1.082984          -29.46951
      4       2.00000          -1.042745          -28.37454
      5       2.00000          -0.603103          -16.41128
      6       2.00000          -0.569530          -15.49770
      7       2.00000          -0.504786          -13.73592
      8       2.00000          -0.478889          -13.03124
      9       2.00000          -0.426815          -11.61424
     10       2.00000          -0.409160          -11.13380
     11       0.00000          -0.091766           -2.49707
     12       0.00000          -0.061292           -1.66785
     13       0.00000          -0.025154           -0.68447
     14       0.00000          -0.000484           -0.01317
     15       0.00000           0.074969            2.04001
     16       0.00000           0.092260            2.51053
     17       0.00000           0.093378            2.54096
     18       0.00000           0.100830            2.74374
     19       0.00000           0.117851            3.20690
     20       0.00000           0.124853            3.39742
     21       0.00000           0.138307            3.76352
     22       0.00000           0.198206            5.39345
     23       0.00000           0.225471            6.13536
     24       0.00000           0.251297            6.83814
     25       0.00000           0.317955            8.65199
     26       0.00000           0.336108            9.14595
     27       0.00000           0.375997           10.23141
     28       0.00000           0.385078           10.47849
     29       0.00000           0.413585           11.25423
     30       0.00000           0.415911           11.31750
     31       0.00000           0.437492           11.90477
     32       0.00000           0.455925           12.40636
     33       0.00000           0.485512           13.21146
     34       0.00000           0.523590           14.24761

  Highest occupied state (VBM) at    -11.13379675 eV
  | Occupation number:      2.00000000

  Lowest unoccupied state (CBM) at    -2.49707379 eV
  | Occupation number:      0.00000000

  Overall HOMO-LUMO gap:      8.63672296 eV.
  Calculating total energy contributions from superposition of free atom densities.

  Total energy components:
  | Sum of eigenvalues            :         -86.35439374 Ha       -2349.82261139 eV
  | XC energy correction          :         -18.16072344 Ha        -494.17842834 eV
  | XC potential correction       :          23.19537248 Ha         631.17819913 eV
  | Free-atom electrostatic energy:         -71.89977414 Ha       -1956.49239971 eV
  | Hartree energy correction     :           0.00000000 Ha           0.00000000 eV
  | van der Waals energy corr.    :           0.00000000 Ha           0.00000000 eV
  | Entropy correction            :           0.00000000 Ha           0.00000000 eV
  | ---------------------------
  | Total energy                  :        -153.21951885 Ha       -4169.31524031 eV
  | Total energy, T -> 0          :        -153.21951885 Ha       -4169.31524031 eV  <-- do not rely on this value for anything but (periodic) metals
  | Electronic free energy        :        -153.21951885 Ha       -4169.31524031 eV

  Derived energy quantities:
  | Kinetic energy                :         151.54391604 Ha        4123.71976792 eV
  | Electrostatic energy          :        -286.60271145 Ha       -7798.85657989 eV
  | Energy correction for multipole
  | error in Hartree potential    :           0.00000000 Ha           0.00000000 eV
  | Sum of eigenvalues per atom                           :        -391.63710190 eV
  | Total energy (T->0) per atom                          :        -694.88587338 eV  <-- do not rely on this value for anything but (periodic) metals
  | Electronic free energy per atom                       :        -694.88587338 eV
  Initialize hartree_potential_storage
  Max. number of atoms included in rho_multipole:            6

  End scf initialization - timings             :  max(cpu_time)    wall_clock(cpu1)
  | Time for scf. initialization               :        0.317 s           0.317 s
  | Boundary condition initialization          :        0.000 s           0.000 s
  | Integration                                :        0.188 s           0.188 s
  | Solution of K.-S. eqns.                    :        0.028 s           0.028 s
  | Grid partitioning                          :        0.048 s           0.048 s
  | Preloading free-atom quantities on grid    :        0.013 s           0.013 s
  | Free-atom superposition energy             :        0.016 s           0.016 s
  | Total energy evaluation                    :        0.000 s           0.000 s
------------------------------------------------------------

------------------------------------------------------------
          Begin self-consistency iteration #    1

  Date     :  20150727, Time     :  124153.402
------------------------------------------------------------
  Evaluating new KS density.
  Integration grid: deviation in total charge (<rho> - N_e) =   7.105427E-15
  Pulay mixing of updated and previous charge densities.

  Evaluating partitioned Hartree potential by multipole expansion.
  | Analytical far-field extrapolation by fixed multipoles:
  | Hartree multipole sum: apparent total charge =  -0.831356E-06
  Summing up the Hartree potential.
  Time summed over all CPUs for potential: real work        0.430 s, elapsed        0.432 s
  | RMS charge density error from multipole expansion :   0.928682E-03

  Integrating Hamiltonian matrix: batch-based integration.
  Time summed over all CPUs for integration: real work        0.972 s, elapsed        0.990 s

  Updating Kohn-Sham eigenvalues, eigenvectors, occupation numbers, and Fermi level.
  Solving generalized eigenproblem
  Updating Kohn-Sham eigenvalues and eigenfunctions.
  Solving real generalised eigenvalue problem by standard LAPACK (fast)
  Determining occupation numbers for Kohn-Sham eigenstates.
  | Chemical potential (Fermi level) in eV                 : -.91044987E+01
  | Error in electron count due to remaining E_F inaccuracy: 0.00000000E+00
  | Maximum occupation number of highest empty state:  0.00E+00

  Writing Kohn-Sham eigenvalues.

  State    Occupation    Eigenvalue [Ha]    Eigenvalue [eV]
      1       2.00000         -18.965660         -516.08186
      2       2.00000         -18.946125         -515.55028
      3       2.00000          -1.047147          -28.49432
      4       2.00000          -1.005753          -27.36792
      5       2.00000          -0.572828          -15.58745
      6       2.00000          -0.539259          -14.67399
      7       2.00000          -0.468791          -12.75645
      8       2.00000          -0.442767          -12.04830
      9       2.00000          -0.388885          -10.58211
     10       2.00000          -0.370200          -10.07367
     11       0.00000          -0.084337           -2.29493
     12       0.00000          -0.054382           -1.47981
     13       0.00000          -0.017739           -0.48271
     14       0.00000           0.006437            0.17515
     15       0.00000           0.082171            2.23598
     16       0.00000           0.099055            2.69544
     17       0.00000           0.102072            2.77751
     18       0.00000           0.108013            2.93920
     19       0.00000           0.124206            3.37981
     20       0.00000           0.130626            3.55452
     21       0.00000           0.146005            3.97299
     22       0.00000           0.205045            5.57955
     23       0.00000           0.232359            6.32280
     24       0.00000           0.258434            7.03236
     25       0.00000           0.324796            8.83816
     26       0.00000           0.341764            9.29987
     27       0.00000           0.381318           10.37620
     28       0.00000           0.389931           10.61056
     29       0.00000           0.421649           11.47364
     30       0.00000           0.425032           11.56572
     31       0.00000           0.446403           12.14724
     32       0.00000           0.464368           12.63611
     33       0.00000           0.495640           13.48704
     34       0.00000           0.533266           14.51090

  Highest occupied state (VBM) at    -10.07366515 eV
  | Occupation number:      2.00000000

  Lowest unoccupied state (CBM) at    -2.29492514 eV
  | Occupation number:      0.00000000

  Overall HOMO-LUMO gap:      7.77874001 eV.

  Total energy components:
  | Sum of eigenvalues            :         -85.49482937 Ha       -2326.43267466 eV
  | XC energy correction          :         -18.25695675 Ha        -496.79706983 eV
  | XC potential correction       :          23.32187421 Ha         634.62048631 eV
  | Free-atom electrostatic energy:         -71.89977414 Ha       -1956.49239971 eV
  | Hartree energy correction     :          -0.83104820 Ha         -22.61397205 eV
  | van der Waals energy corr.    :           0.00000000 Ha           0.00000000 eV
  | Entropy correction            :           0.00000000 Ha           0.00000000 eV
  | ---------------------------
  | Total energy                  :        -153.16073425 Ha       -4167.71562994 eV
  | Total energy, T -> 0          :        -153.16073425 Ha       -4167.71562994 eV  <-- do not rely on this value for anything but (periodic) metals
  | Electronic free energy        :        -153.16073425 Ha       -4167.71562994 eV

  Derived energy quantities:
  | Kinetic energy                :         152.10274501 Ha        4138.92627790 eV
  | Electrostatic energy          :        -287.00652251 Ha       -7809.84483801 eV
  | Energy correction for multipole
  | error in Hartree potential    :          -0.00012827 Ha          -0.00349041 eV
  | Sum of eigenvalues per atom                           :        -387.73877911 eV
  | Total energy (T->0) per atom                          :        -694.61927166 eV  <-- do not rely on this value for anything but (periodic) metals
  | Electronic free energy per atom                       :        -694.61927166 eV

  Self-consistency convergence accuracy:
  | Change of charge density      : 0.4150E+00
  | Change of sum of eigenvalues  : 0.2339E+02 eV
  | Change of total energy        : 0.1600E+01 eV

  End self-consistency iteration #     1       :  max(cpu_time)    wall_clock(cpu1)
  | Time for this iteration                    :        0.278 s           0.277 s
  | Charge density update                      :        0.088 s           0.088 s
  | Density mixing                             :        0.001 s           0.001 s
  | Hartree multipole update                   :        0.002 s           0.002 s
  | Hartree multipole summation                :        0.055 s           0.055 s
  | Integration                                :        0.124 s           0.124 s
  | Solution of K.-S. eqns.                    :        0.007 s           0.007 s
  | Total energy evaluation                    :        0.000 s           0.000 s
------------------------------------------------------------

------------------------------------------------------------
          Begin self-consistency iteration #    2

  Date     :  20150727, Time     :  124153.680
------------------------------------------------------------
  Evaluating new KS density.
  Integration grid: deviation in total charge (<rho> - N_e) =   1.065814E-14
  Pulay mixing of updated and previous charge densities.

  Evaluating partitioned Hartree potential by multipole expansion.
  | Analytical far-field extrapolation by fixed multipoles:
  | Hartree multipole sum: apparent total charge =  -0.229148E-05
  Summing up the Hartree potential.
  Time summed over all CPUs for potential: real work        0.430 s, elapsed        0.432 s
  | RMS charge density error from multipole expansion :   0.355500E-02

  Integrating Hamiltonian matrix: batch-based integration.
  Time summed over all CPUs for integration: real work        0.972 s, elapsed        0.992 s

  Updating Kohn-Sham eigenvalues, eigenvectors, occupation numbers, and Fermi level.
  Solving generalized eigenproblem
  Updating Kohn-Sham eigenvalues and eigenfunctions.
  Solving real generalised eigenvalue problem by standard LAPACK (fast)
  Determining occupation numbers for Kohn-Sham eigenstates.
  | Chemical potential (Fermi level) in eV                 : -.55585677E+01
  | Error in electron count due to remaining E_F inaccuracy: 0.00000000E+00
  | Maximum occupation number of highest empty state:  0.00E+00

  Highest occupied state (VBM) at     -7.79588826 eV
  | Occupation number:      2.00000000

  Lowest unoccupied state (CBM) at    -1.85173668 eV
  | Occupation number:      0.00000000

  Overall HOMO-LUMO gap:      5.94415158 eV.

  Total energy components:
  | Sum of eigenvalues            :         -83.65172017 Ha       -2276.27912171 eV
  | XC energy correction          :         -18.47333256 Ha        -502.68495541 eV
  | XC potential correction       :          23.60613553 Ha         642.35563046 eV
  | Free-atom electrostatic energy:         -71.89977414 Ha       -1956.49239971 eV
  | Hartree energy correction     :          -2.67987285 Ha         -72.92305055 eV
  | van der Waals energy corr.    :           0.00000000 Ha           0.00000000 eV
  | Entropy correction            :           0.00000000 Ha           0.00000000 eV
  | ---------------------------
  | Total energy                  :        -153.09856420 Ha       -4166.02389692 eV
  | Total energy, T -> 0          :        -153.09856420 Ha       -4166.02389692 eV  <-- do not rely on this value for anything but (periodic) metals
  | Electronic free energy        :        -153.09856420 Ha       -4166.02389692 eV

  Derived energy quantities:
  | Kinetic energy                :         153.11566043 Ha        4166.48910888 eV
  | Electrostatic energy          :        -287.74089207 Ha       -7829.82805039 eV
  | Energy correction for multipole
  | error in Hartree potential    :          -0.00072054 Ha          -0.01960689 eV
  | Sum of eigenvalues per atom                           :        -379.37985362 eV
  | Total energy (T->0) per atom                          :        -694.33731615 eV  <-- do not rely on this value for anything but (periodic) metals
  | Electronic free energy per atom                       :        -694.33731615 eV

  Self-consistency convergence accuracy:
  | Change of charge density      : 0.3109E+00
  | Change of sum of eigenvalues  : 0.5015E+02 eV
  | Change of total energy        : 0.1692E+01 eV

  End self-consistency iteration #     2       :  max(cpu_time)    wall_clock(cpu1)
  | Time for this iteration                    :        0.277 s           0.277 s
  | Charge density update                      :        0.086 s           0.086 s
  | Density mixing                             :        0.002 s           0.002 s
  | Hartree multipole update                   :        0.003 s           0.003 s
  | Hartree multipole summation                :        0.054 s           0.054 s
  | Integration                                :        0.125 s           0.125 s
  | Solution of K.-S. eqns.                    :        0.006 s           0.006 s
  | Total energy evaluation                    :        0.000 s           0.001 s
------------------------------------------------------------

------------------------------------------------------------
          Begin self-consistency iteration #    3

  Date     :  20150727, Time     :  124153.957
------------------------------------------------------------
  Evaluating new KS density.
  Integration grid: deviation in total charge (<rho> - N_e) =  -3.552714E-15
  Pulay mixing of updated and previous charge densities.

  Evaluating partitioned Hartree potential by multipole expansion.
  | Analytical far-field extrapolation by fixed multipoles:
  | Hartree multipole sum: apparent total charge =  -0.228035E-05
  Summing up the Hartree potential.
  Time summed over all CPUs for potential: real work        0.430 s, elapsed        0.432 s
  | RMS charge density error from multipole expansion :   0.782463E-02

  Integrating Hamiltonian matrix: batch-based integration.
  Time summed over all CPUs for integration: real work        0.969 s, elapsed        0.991 s

  Updating Kohn-Sham eigenvalues, eigenvectors, occupation numbers, and Fermi level.
  Solving generalized eigenproblem
  Updating Kohn-Sham eigenvalues and eigenfunctions.
  Solving real generalised eigenvalue problem by standard LAPACK (fast)
  Determining occupation numbers for Kohn-Sham eigenstates.
  | Chemical potential (Fermi level) in eV                 : -.48882380E+01
  | Error in electron count due to remaining E_F inaccuracy: 0.00000000E+00
  | Maximum occupation number of highest empty state:  0.00E+00

  Highest occupied state (VBM) at     -7.77307119 eV
  | Occupation number:      2.00000000

  Lowest unoccupied state (CBM) at    -1.72639403 eV
  | Occupation number:      0.00000000

  Overall HOMO-LUMO gap:      6.04667716 eV.

  Total energy components:
  | Sum of eigenvalues            :         -83.77250689 Ha       -2279.56589538 eV
  | XC energy correction          :         -18.46379736 Ha        -502.42548933 eV
  | XC potential correction       :          23.59220296 Ha         641.97650597 eV
  | Free-atom electrostatic energy:         -71.89977414 Ha       -1956.49239971 eV
  | Hartree energy correction     :          -2.55219839 Ha         -69.44885165 eV
  | van der Waals energy corr.    :           0.00000000 Ha           0.00000000 eV
  | Entropy correction            :           0.00000000 Ha           0.00000000 eV
  | ---------------------------
  | Total energy                  :        -153.09607382 Ha       -4165.95613009 eV
  | Total energy, T -> 0          :        -153.09607382 Ha       -4165.95613009 eV  <-- do not rely on this value for anything but (periodic) metals
  | Electronic free energy        :        -153.09607382 Ha       -4165.95613009 eV

  Derived energy quantities:
  | Kinetic energy                :         152.26212737 Ha        4143.26329273 eV
  | Electrostatic energy          :        -286.89440383 Ha       -7806.79393350 eV
  | Energy correction for multipole
  | error in Hartree potential    :          -0.00266697 Ha          -0.07257182 eV
  | Sum of eigenvalues per atom                           :        -379.92764923 eV
  | Total energy (T->0) per atom                          :        -694.32602168 eV  <-- do not rely on this value for anything but (periodic) metals
  | Electronic free energy per atom                       :        -694.32602168 eV

  Self-consistency convergence accuracy:
  | Change of charge density      : 0.1673E+00
  | Change of sum of eigenvalues  : -.3287E+01 eV
  | Change of total energy        : 0.6777E-01 eV

  End self-consistency iteration #     3       :  max(cpu_time)    wall_clock(cpu1)
  | Time for this iteration                    :        0.278 s           0.278 s
  | Charge density update                      :        0.087 s           0.087 s
  | Density mixing                             :        0.002 s           0.002 s
  | Hartree multipole update                   :        0.002 s           0.003 s
  | Hartree multipole summation                :        0.054 s           0.054 s
  | Integration                                :        0.125 s           0.125 s
  | Solution of K.-S. eqns.                    :        0.006 s           0.006 s
  | Total energy evaluation                    :        0.000 s           0.001 s
------------------------------------------------------------

------------------------------------------------------------
          Begin self-consistency iteration #    4

  Date     :  20150727, Time     :  124154.235
------------------------------------------------------------
  Evaluating new KS density.
  Integration grid: deviation in total charge (<rho> - N_e) =   7.105427E-15
  Pulay mixing of updated and previous charge densities.

  Evaluating partitioned Hartree potential by multipole expansion.
  | Analytical far-field extrapolation by fixed multipoles:
  | Hartree multipole sum: apparent total charge =  -0.279471E-05
  Summing up the Hartree potential.
  Time summed over all CPUs for potential: real work        0.430 s, elapsed        0.432 s
  | RMS charge density error from multipole expansion :   0.100958E-01

  Integrating Hamiltonian matrix: batch-based integration.
  Time summed over all CPUs for integration: real work        0.971 s, elapsed        0.994 s

  Updating Kohn-Sham eigenvalues, eigenvectors, occupation numbers, and Fermi level.
  Solving generalized eigenproblem
  Updating Kohn-Sham eigenvalues and eigenfunctions.
  Solving real generalised eigenvalue problem by standard LAPACK (fast)
  Determining occupation numbers for Kohn-Sham eigenstates.
  | Chemical potential (Fermi level) in eV                 : -.34815833E+01
  | Error in electron count due to remaining E_F inaccuracy: 0.00000000E+00
  | Maximum occupation number of highest empty state:  0.00E+00

  Highest occupied state (VBM) at     -6.88096292 eV
  | Occupation number:      2.00000000

  Lowest unoccupied state (CBM) at    -1.52119887 eV
  | Occupation number:      0.00000000

  Overall HOMO-LUMO gap:      5.35976406 eV.

  Total energy components:
  | Sum of eigenvalues            :         -83.11861777 Ha       -2261.77266727 eV
  | XC energy correction          :         -18.55046145 Ha        -504.78373914 eV
  | XC potential correction       :          23.70586059 Ha         645.06928738 eV
  | Free-atom electrostatic energy:         -71.89977414 Ha       -1956.49239971 eV
  | Hartree energy correction     :          -3.22810812 Ha         -87.84129123 eV
  | van der Waals energy corr.    :           0.00000000 Ha           0.00000000 eV
  | Entropy correction            :           0.00000000 Ha           0.00000000 eV
  | ---------------------------
  | Total energy                  :        -153.09110089 Ha       -4165.82080997 eV
  | Total energy, T -> 0          :        -153.09110089 Ha       -4165.82080997 eV  <-- do not rely on this value for anything but (periodic) metals
  | Electronic free energy        :        -153.09110089 Ha       -4165.82080997 eV

  Derived energy quantities:
  | Kinetic energy                :         152.37307634 Ha        4146.28236781 eV
  | Electrostatic energy          :        -286.91371579 Ha       -7807.31943865 eV
  | Energy correction for multipole
  | error in Hartree potential    :          -0.00347656 Ha          -0.09460210 eV
  | Sum of eigenvalues per atom                           :        -376.96211121 eV
  | Total energy (T->0) per atom                          :        -694.30346833 eV  <-- do not rely on this value for anything but (periodic) metals
  | Electronic free energy per atom                       :        -694.30346833 eV

  Self-consistency convergence accuracy:
  | Change of charge density      : 0.8896E-01
  | Change of sum of eigenvalues  : 0.1779E+02 eV
  | Change of total energy        : 0.1353E+00 eV

  End self-consistency iteration #     4       :  max(cpu_time)    wall_clock(cpu1)
  | Time for this iteration                    :        0.278 s           0.278 s
  | Charge density update                      :        0.086 s           0.086 s
  | Density mixing                             :        0.003 s           0.004 s
  | Hartree multipole update                   :        0.002 s           0.002 s
  | Hartree multipole summation                :        0.055 s           0.054 s
  | Integration                                :        0.124 s           0.125 s
  | Solution of K.-S. eqns.                    :        0.007 s           0.007 s
  | Total energy evaluation                    :        0.000 s           0.000 s
------------------------------------------------------------

------------------------------------------------------------
          Begin self-consistency iteration #    5

  Date     :  20150727, Time     :  124154.513
------------------------------------------------------------
  Evaluating new KS density.
  Integration grid: deviation in total charge (<rho> - N_e) =   1.065814E-14
  Pulay mixing of updated and previous charge densities.

  Evaluating partitioned Hartree potential by multipole expansion.
  | Analytical far-field extrapolation by fixed multipoles:
  | Hartree multipole sum: apparent total charge =  -0.273181E-05
  Summing up the Hartree potential.
  Time summed over all CPUs for potential: real work        0.430 s, elapsed        0.433 s
  | RMS charge density error from multipole expansion :   0.101781E-01

  Integrating Hamiltonian matrix: batch-based integration.
  Time summed over all CPUs for integration: real work        0.968 s, elapsed        0.989 s

  Updating Kohn-Sham eigenvalues, eigenvectors, occupation numbers, and Fermi level.
  Solving generalized eigenproblem
  Updating Kohn-Sham eigenvalues and eigenfunctions.
  Solving real generalised eigenvalue problem by standard LAPACK (fast)
  Determining occupation numbers for Kohn-Sham eigenstates.
  | Chemical potential (Fermi level) in eV                 : -.34976501E+01
  | Error in electron count due to remaining E_F inaccuracy: 0.00000000E+00
  | Maximum occupation number of highest empty state:  0.00E+00

  Highest occupied state (VBM) at     -6.81595562 eV
  | Occupation number:      2.00000000

  Lowest unoccupied state (CBM) at    -1.52967650 eV
  | Occupation number:      0.00000000

  Overall HOMO-LUMO gap:      5.28627912 eV.

  Total energy components:
  | Sum of eigenvalues            :         -83.14677497 Ha       -2262.53886374 eV
  | XC energy correction          :         -18.54683403 Ha        -504.68503215 eV
  | XC potential correction       :          23.70096584 Ha         644.93609443 eV
  | Free-atom electrostatic energy:         -71.89977414 Ha       -1956.49239971 eV
  | Hartree energy correction     :          -3.19856020 Ha         -87.03725147 eV
  | van der Waals energy corr.    :           0.00000000 Ha           0.00000000 eV
  | Entropy correction            :           0.00000000 Ha           0.00000000 eV
  | ---------------------------
  | Total energy                  :        -153.09097751 Ha       -4165.81745263 eV
  | Total energy, T -> 0          :        -153.09097751 Ha       -4165.81745263 eV  <-- do not rely on this value for anything but (periodic) metals
  | Electronic free energy        :        -153.09097751 Ha       -4165.81745263 eV

  Derived energy quantities:
  | Kinetic energy                :         152.37656707 Ha        4146.37735527 eV
  | Electrostatic energy          :        -286.92071055 Ha       -7807.50977575 eV
  | Energy correction for multipole
  | error in Hartree potential    :          -0.00343419 Ha          -0.09344908 eV
  | Sum of eigenvalues per atom                           :        -377.08981062 eV
  | Total energy (T->0) per atom                          :        -694.30290877 eV  <-- do not rely on this value for anything but (periodic) metals
  | Electronic free energy per atom                       :        -694.30290877 eV

  Self-consistency convergence accuracy:
  | Change of charge density      : 0.1662E-01
  | Change of sum of eigenvalues  : -.7662E+00 eV
  | Change of total energy        : 0.3357E-02 eV

  End self-consistency iteration #     5       :  max(cpu_time)    wall_clock(cpu1)
  | Time for this iteration                    :        0.278 s           0.278 s
  | Charge density update                      :        0.085 s           0.086 s
  | Density mixing                             :        0.003 s           0.004 s
  | Hartree multipole update                   :        0.003 s           0.002 s
  | Hartree multipole summation                :        0.054 s           0.055 s
  | Integration                                :        0.124 s           0.124 s
  | Solution of K.-S. eqns.                    :        0.007 s           0.007 s
  | Total energy evaluation                    :        0.000 s           0.000 s
------------------------------------------------------------

------------------------------------------------------------
          Begin self-consistency iteration #    6

  Date     :  20150727, Time     :  124154.791
------------------------------------------------------------
  Evaluating new KS density.
  Integration grid: deviation in total charge (<rho> - N_e) =   0.000000E+00
  Pulay mixing of updated and previous charge densities.

  Evaluating partitioned Hartree potential by multipole expansion.
  | Analytical far-field extrapolation by fixed multipoles:
  | Hartree multipole sum: apparent total charge =  -0.276820E-05
  Summing up the Hartree potential.
  Time summed over all CPUs for potential: real work        0.430 s, elapsed        0.432 s
  | RMS charge density error from multipole expansion :   0.104007E-01

  Integrating Hamiltonian matrix: batch-based integration.
  Time summed over all CPUs for integration: real work        0.969 s, elapsed        0.990 s

  Updating Kohn-Sham eigenvalues, eigenvectors, occupation numbers, and Fermi level.
  Solving generalized eigenproblem
  Updating Kohn-Sham eigenvalues and eigenfunctions.
  Solving real generalised eigenvalue problem by standard LAPACK (fast)
  Determining occupation numbers for Kohn-Sham eigenstates.
  | Chemical potential (Fermi level) in eV                 : -.34685286E+01
  | Error in electron count due to remaining E_F inaccuracy: 0.00000000E+00
  | Maximum occupation number of highest empty state:  0.00E+00

  Highest occupied state (VBM) at     -6.76094850 eV
  | Occupation number:      2.00000000

  Lowest unoccupied state (CBM) at    -1.51128837 eV
  | Occupation number:      0.00000000

  Overall HOMO-LUMO gap:      5.24966013 eV.

  Total energy components:
  | Sum of eigenvalues            :         -83.10139348 Ha       -2261.30397046 eV
  | XC energy correction          :         -18.55314854 Ha        -504.85685861 eV
  | XC potential correction       :          23.70922061 Ha         645.16071833 eV
  | Free-atom electrostatic energy:         -71.89977414 Ha       -1956.49239971 eV
  | Hartree energy correction     :          -3.24594127 Ha         -88.32655596 eV
  | van der Waals energy corr.    :           0.00000000 Ha           0.00000000 eV
  | Entropy correction            :           0.00000000 Ha           0.00000000 eV
  | ---------------------------
  | Total energy                  :        -153.09103682 Ha       -4165.81906640 eV
  | Total energy, T -> 0          :        -153.09103682 Ha       -4165.81906640 eV  <-- do not rely on this value for anything but (periodic) metals
  | Electronic free energy        :        -153.09103682 Ha       -4165.81906640 eV

  Derived energy quantities:
  | Kinetic energy                :         152.38024351 Ha        4146.47739649 eV
  | Electrostatic energy          :        -286.91813179 Ha       -7807.43960429 eV
  | Energy correction for multipole
  | error in Hartree potential    :          -0.00350327 Ha          -0.09532881 eV
  | Sum of eigenvalues per atom                           :        -376.88399508 eV
  | Total energy (T->0) per atom                          :        -694.30317773 eV  <-- do not rely on this value for anything but (periodic) metals
  | Electronic free energy per atom                       :        -694.30317773 eV

  Self-consistency convergence accuracy:
  | Change of charge density      : 0.5135E-02
  | Change of sum of eigenvalues  : 0.1235E+01 eV
  | Change of total energy        : -.1614E-02 eV

  End self-consistency iteration #     6       :  max(cpu_time)    wall_clock(cpu1)
  | Time for this iteration                    :        0.278 s           0.279 s
  | Charge density update                      :        0.085 s           0.086 s
  | Density mixing                             :        0.004 s           0.005 s
  | Hartree multipole update                   :        0.002 s           0.002 s
  | Hartree multipole summation                :        0.055 s           0.054 s
  | Integration                                :        0.124 s           0.125 s
  | Solution of K.-S. eqns.                    :        0.007 s           0.006 s
  | Total energy evaluation                    :        0.000 s           0.001 s
------------------------------------------------------------

------------------------------------------------------------
          Begin self-consistency iteration #    7

  Date     :  20150727, Time     :  124155.070
------------------------------------------------------------
  Evaluating new KS density.
  Integration grid: deviation in total charge (<rho> - N_e) =   0.000000E+00
  Pulay mixing of updated and previous charge densities.

  Evaluating partitioned Hartree potential by multipole expansion.
  | Analytical far-field extrapolation by fixed multipoles:
  | Hartree multipole sum: apparent total charge =  -0.266599E-05
  Summing up the Hartree potential.
  Time summed over all CPUs for potential: real work        0.430 s, elapsed        0.432 s
  | RMS charge density error from multipole expansion :   0.103668E-01

  Integrating Hamiltonian matrix: batch-based integration.
  Time summed over all CPUs for integration: real work        0.966 s, elapsed        0.988 s

  Updating Kohn-Sham eigenvalues, eigenvectors, occupation numbers, and Fermi level.
  Solving generalized eigenproblem
  Updating Kohn-Sham eigenvalues and eigenfunctions.
  Solving real generalised eigenvalue problem by standard LAPACK (fast)
  Determining occupation numbers for Kohn-Sham eigenstates.
  | Chemical potential (Fermi level) in eV                 : -.35105478E+01
  | Error in electron count due to remaining E_F inaccuracy: 0.00000000E+00
  | Maximum occupation number of highest empty state:  0.00E+00

  Highest occupied state (VBM) at     -6.84596876 eV
  | Occupation number:      2.00000000

  Lowest unoccupied state (CBM) at    -1.53546235 eV
  | Occupation number:      0.00000000

  Overall HOMO-LUMO gap:      5.31050641 eV.

  Total energy components:
  | Sum of eigenvalues            :         -83.16244032 Ha       -2262.96513954 eV
  | XC energy correction          :         -18.54468325 Ha        -504.62650624 eV
  | XC potential correction       :          23.69791517 Ha         644.85308165 eV
  | Free-atom electrostatic energy:         -71.89977414 Ha       -1956.49239971 eV
  | Hartree energy correction     :          -3.18199061 Ha         -86.58637004 eV
  | van der Waals energy corr.    :           0.00000000 Ha           0.00000000 eV
  | Entropy correction            :           0.00000000 Ha           0.00000000 eV
  | ---------------------------
  | Total energy                  :        -153.09097315 Ha       -4165.81733387 eV
  | Total energy, T -> 0          :        -153.09097315 Ha       -4165.81733387 eV  <-- do not rely on this value for anything but (periodic) metals
  | Electronic free energy        :        -153.09097315 Ha       -4165.81733387 eV

  Derived energy quantities:
  | Kinetic energy                :         152.40317919 Ha        4147.10150795 eV
  | Electrostatic energy          :        -286.94946909 Ha       -7808.29233559 eV
  | Energy correction for multipole
  | error in Hartree potential    :          -0.00336682 Ha          -0.09161592 eV
  | Sum of eigenvalues per atom                           :        -377.16085659 eV
  | Total energy (T->0) per atom                          :        -694.30288898 eV  <-- do not rely on this value for anything but (periodic) metals
  | Electronic free energy per atom                       :        -694.30288898 eV

  Self-consistency convergence accuracy:
  | Change of charge density      : 0.7856E-02
  | Change of sum of eigenvalues  : -.1661E+01 eV
  | Change of total energy        : 0.1733E-02 eV

  End self-consistency iteration #     7       :  max(cpu_time)    wall_clock(cpu1)
  | Time for this iteration                    :        0.279 s           0.278 s
  | Charge density update                      :        0.086 s           0.086 s
  | Density mixing                             :        0.005 s           0.004 s
  | Hartree multipole update                   :        0.002 s           0.003 s
  | Hartree multipole summation                :        0.055 s           0.054 s
  | Integration                                :        0.124 s           0.124 s
  | Solution of K.-S. eqns.                    :        0.006 s           0.007 s
  | Total energy evaluation                    :        0.001 s           0.000 s
------------------------------------------------------------

------------------------------------------------------------
          Begin self-consistency iteration #    8

  Date     :  20150727, Time     :  124155.348
------------------------------------------------------------
  Evaluating new KS density.
  Integration grid: deviation in total charge (<rho> - N_e) =   1.776357E-14
  Pulay mixing of updated and previous charge densities.

  Evaluating partitioned Hartree potential by multipole expansion.
  | Analytical far-field extrapolation by fixed multipoles:
  | Hartree multipole sum: apparent total charge =  -0.266531E-05
  Summing up the Hartree potential.
  Time summed over all CPUs for potential: real work        0.430 s, elapsed        0.432 s
  | RMS charge density error from multipole expansion :   0.103719E-01

  Integrating Hamiltonian matrix: batch-based integration.
  Time summed over all CPUs for integration: real work        0.966 s, elapsed        0.988 s

  Updating Kohn-Sham eigenvalues, eigenvectors, occupation numbers, and Fermi level.
  Solving generalized eigenproblem
  Updating Kohn-Sham eigenvalues and eigenfunctions.
  Solving real generalised eigenvalue problem by standard LAPACK (fast)
  Determining occupation numbers for Kohn-Sham eigenstates.
  | Chemical potential (Fermi level) in eV                 : -.35104831E+01
  | Error in electron count due to remaining E_F inaccuracy: 0.00000000E+00
  | Maximum occupation number of highest empty state:  0.00E+00

  Highest occupied state (VBM) at     -6.84445537 eV
  | Occupation number:      2.00000000

  Lowest unoccupied state (CBM) at    -1.53526724 eV
  | Occupation number:      0.00000000

  Overall HOMO-LUMO gap:      5.30918813 eV.

  Total energy components:
  | Sum of eigenvalues            :         -83.16237135 Ha       -2262.96326276 eV
  | XC energy correction          :         -18.54472057 Ha        -504.62752200 eV
  | XC potential correction       :          23.69796145 Ha         644.85434096 eV
  | Free-atom electrostatic energy:         -71.89977414 Ha       -1956.49239971 eV
  | Hartree energy correction     :          -3.18206860 Ha         -86.58849211 eV
  | van der Waals energy corr.    :           0.00000000 Ha           0.00000000 eV
  | Entropy correction            :           0.00000000 Ha           0.00000000 eV
  | ---------------------------
  | Total energy                  :        -153.09097321 Ha       -4165.81733562 eV
  | Total energy, T -> 0          :        -153.09097321 Ha       -4165.81733562 eV  <-- do not rely on this value for anything but (periodic) metals
  | Electronic free energy        :        -153.09097321 Ha       -4165.81733562 eV

  Derived energy quantities:
  | Kinetic energy                :         152.40296223 Ha        4147.09560408 eV
  | Electrostatic energy          :        -286.94921487 Ha       -7808.28541770 eV
  | Energy correction for multipole
  | error in Hartree potential    :          -0.00336721 Ha          -0.09162657 eV
  | Sum of eigenvalues per atom                           :        -377.16054379 eV
  | Total energy (T->0) per atom                          :        -694.30288927 eV  <-- do not rely on this value for anything but (periodic) metals
  | Electronic free energy per atom                       :        -694.30288927 eV

  Self-consistency convergence accuracy:
  | Change of charge density      : 0.5189E-03
  | Change of sum of eigenvalues  : 0.1877E-02 eV
  | Change of total energy        : -.1746E-05 eV

  End self-consistency iteration #     8       :  max(cpu_time)    wall_clock(cpu1)
  | Time for this iteration                    :        0.279 s           0.280 s
  | Charge density update                      :        0.086 s           0.086 s
  | Density mixing                             :        0.005 s           0.006 s
  | Hartree multipole update                   :        0.002 s           0.002 s
  | Hartree multipole summation                :        0.055 s           0.054 s
  | Integration                                :        0.124 s           0.123 s
  | Solution of K.-S. eqns.                    :        0.006 s           0.007 s
  | Total energy evaluation                    :        0.000 s           0.000 s
------------------------------------------------------------

------------------------------------------------------------
          Begin self-consistency iteration #    9

  Date     :  20150727, Time     :  124155.628
------------------------------------------------------------
  Evaluating new KS density.
  Integration grid: deviation in total charge (<rho> - N_e) =   0.000000E+00
  Pulay mixing of updated and previous charge densities.

  Evaluating partitioned Hartree potential by multipole expansion.
  | Analytical far-field extrapolation by fixed multipoles:
  | Hartree multipole sum: apparent total charge =  -0.266036E-05
  Summing up the Hartree potential.
  Time summed over all CPUs for potential: real work        0.430 s, elapsed        0.432 s
  | RMS charge density error from multipole expansion :   0.103706E-01

  Integrating Hamiltonian matrix: batch-based integration.
  Time summed over all CPUs for integration: real work        0.966 s, elapsed        0.987 s

  Updating Kohn-Sham eigenvalues, eigenvectors, occupation numbers, and Fermi level.
  Solving generalized eigenproblem
  Updating Kohn-Sham eigenvalues and eigenfunctions.
  Solving real generalised eigenvalue problem by standard LAPACK (fast)
  Determining occupation numbers for Kohn-Sham eigenstates.
  | Chemical potential (Fermi level) in eV                 : -.35113986E+01
  | Error in electron count due to remaining E_F inaccuracy: 0.00000000E+00
  | Maximum occupation number of highest empty state:  0.00E+00

  Highest occupied state (VBM) at     -6.84829599 eV
  | Occupation number:      2.00000000

  Lowest unoccupied state (CBM) at    -1.53577598 eV
  | Occupation number:      0.00000000

  Overall HOMO-LUMO gap:      5.31252001 eV.

  Total energy components:
  | Sum of eigenvalues            :         -83.16364017 Ha       -2262.99778901 eV
  | XC energy correction          :         -18.54460020 Ha        -504.62424646 eV
  | XC potential correction       :          23.69779624 Ha         644.84984516 eV
  | Free-atom electrostatic energy:         -71.89977414 Ha       -1956.49239971 eV
  | Hartree energy correction     :          -3.18075456 Ha         -86.55273524 eV
  | van der Waals energy corr.    :           0.00000000 Ha           0.00000000 eV
  | Entropy correction            :           0.00000000 Ha           0.00000000 eV
  | ---------------------------
  | Total energy                  :        -153.09097283 Ha       -4165.81732525 eV
  | Total energy, T -> 0          :        -153.09097283 Ha       -4165.81732525 eV  <-- do not rely on this value for anything but (periodic) metals
  | Electronic free energy        :        -153.09097283 Ha       -4165.81732525 eV

  Derived energy quantities:
  | Kinetic energy                :         152.40450070 Ha        4147.13746809 eV
  | Electrostatic energy          :        -286.95087333 Ha       -7808.33054689 eV
  | Energy correction for multipole
  | error in Hartree potential    :          -0.00335986 Ha          -0.09142648 eV
  | Sum of eigenvalues per atom                           :        -377.16629817 eV
  | Total energy (T->0) per atom                          :        -694.30288754 eV  <-- do not rely on this value for anything but (periodic) metals
  | Electronic free energy per atom                       :        -694.30288754 eV

  Self-consistency convergence accuracy:
  | Change of charge density      : 0.4318E-03
  | Change of sum of eigenvalues  : -.3453E-01 eV
  | Change of total energy        : 0.1036E-04 eV

  End self-consistency iteration #     9       :  max(cpu_time)    wall_clock(cpu1)
  | Time for this iteration                    :        0.280 s           0.280 s
  | Charge density update                      :        0.086 s           0.086 s
  | Density mixing                             :        0.006 s           0.006 s
  | Hartree multipole update                   :        0.002 s           0.002 s
  | Hartree multipole summation                :        0.054 s           0.055 s
  | Integration                                :        0.124 s           0.123 s
  | Solution of K.-S. eqns.                    :        0.007 s           0.007 s
  | Total energy evaluation                    :        0.000 s           0.001 s
------------------------------------------------------------

------------------------------------------------------------
          Begin self-consistency iteration #   10

  Date     :  20150727, Time     :  124155.908
------------------------------------------------------------
  Evaluating new KS density.
  Integration grid: deviation in total charge (<rho> - N_e) =  -1.421085E-14
  Pulay mixing of updated and previous charge densities.

  Evaluating partitioned Hartree potential by multipole expansion.
  | Analytical far-field extrapolation by fixed multipoles:
  | Hartree multipole sum: apparent total charge =  -0.265947E-05
  Summing up the Hartree potential.
  Time summed over all CPUs for potential: real work        0.430 s, elapsed        0.432 s
  | RMS charge density error from multipole expansion :   0.103705E-01

  Integrating Hamiltonian matrix: batch-based integration.
  Time summed over all CPUs for integration: real work        0.967 s, elapsed        0.992 s

  Updating Kohn-Sham eigenvalues, eigenvectors, occupation numbers, and Fermi level.
  Solving generalized eigenproblem
  Updating Kohn-Sham eigenvalues and eigenfunctions.
  Solving real generalised eigenvalue problem by standard LAPACK (fast)
  Determining occupation numbers for Kohn-Sham eigenstates.
  | Chemical potential (Fermi level) in eV                 : -.35115021E+01
  | Error in electron count due to remaining E_F inaccuracy: 0.00000000E+00
  | Maximum occupation number of highest empty state:  0.00E+00

  Highest occupied state (VBM) at     -6.84872335 eV
  | Occupation number:      2.00000000

  Lowest unoccupied state (CBM) at    -1.53581809 eV
  | Occupation number:      0.00000000

  Overall HOMO-LUMO gap:      5.31290527 eV.

  Total energy components:
  | Sum of eigenvalues            :         -83.16394598 Ha       -2263.00611071 eV
  | XC energy correction          :         -18.54456422 Ha        -504.62326729 eV
  | XC potential correction       :          23.69774835 Ha         644.84854201 eV
  | Free-atom electrostatic energy:         -71.89977414 Ha       -1956.49239971 eV
  | Hartree energy correction     :          -3.18043681 Ha         -86.54408885 eV
  | van der Waals energy corr.    :           0.00000000 Ha           0.00000000 eV
  | Entropy correction            :           0.00000000 Ha           0.00000000 eV
  | ---------------------------
  | Total energy                  :        -153.09097281 Ha       -4165.81732454 eV
  | Total energy, T -> 0          :        -153.09097281 Ha       -4165.81732454 eV  <-- do not rely on this value for anything but (periodic) metals
  | Electronic free energy        :        -153.09097281 Ha       -4165.81732454 eV

  Derived energy quantities:
  | Kinetic energy                :         152.40439370 Ha        4147.13455649 eV
  | Electrostatic energy          :        -286.95080229 Ha       -7808.32861375 eV
  | Energy correction for multipole
  | error in Hartree potential    :          -0.00335889 Ha          -0.09140000 eV
  | Sum of eigenvalues per atom                           :        -377.16768512 eV
  | Total energy (T->0) per atom                          :        -694.30288742 eV  <-- do not rely on this value for anything but (periodic) metals
  | Electronic free energy per atom                       :        -694.30288742 eV

  Self-consistency convergence accuracy:
  | Change of charge density      : 0.6981E-04
  | Change of sum of eigenvalues  : -.8322E-02 eV
  | Change of total energy        : 0.7109E-06 eV

  End self-consistency iteration #    10       :  max(cpu_time)    wall_clock(cpu1)
  | Time for this iteration                    :        0.281 s           0.281 s
  | Charge density update                      :        0.086 s           0.086 s
  | Density mixing                             :        0.006 s           0.007 s
  | Hartree multipole update                   :        0.002 s           0.002 s
  | Hartree multipole summation                :        0.055 s           0.054 s
  | Integration                                :        0.124 s           0.125 s
  | Solution of K.-S. eqns.                    :        0.007 s           0.007 s
  | Total energy evaluation                    :        0.000 s           0.000 s
------------------------------------------------------------

------------------------------------------------------------
          Begin self-consistency iteration #   11

  Date     :  20150727, Time     :  124156.189
------------------------------------------------------------
  Evaluating new KS density.
  Integration grid: deviation in total charge (<rho> - N_e) =  -3.552714E-15
  Pulay mixing of updated and previous charge densities.

  Evaluating partitioned Hartree potential by multipole expansion.
  | Analytical far-field extrapolation by fixed multipoles:
  | Hartree multipole sum: apparent total charge =  -0.265968E-05
  Summing up the Hartree potential.
  Time summed over all CPUs for potential: real work        0.430 s, elapsed        0.432 s
  | RMS charge density error from multipole expansion :   0.103704E-01

  Integrating Hamiltonian matrix: batch-based integration.
  Time summed over all CPUs for integration: real work        0.969 s, elapsed        0.992 s

  Updating Kohn-Sham eigenvalues, eigenvectors, occupation numbers, and Fermi level.
  Solving generalized eigenproblem
  Updating Kohn-Sham eigenvalues and eigenfunctions.
  Solving real generalised eigenvalue problem by standard LAPACK (fast)
  Determining occupation numbers for Kohn-Sham eigenstates.
  | Chemical potential (Fermi level) in eV                 : -.35114306E+01
  | Error in electron count due to remaining E_F inaccuracy: 0.00000000E+00
  | Maximum occupation number of highest empty state:  0.00E+00

  Highest occupied state (VBM) at     -6.84845908 eV
  | Occupation number:      2.00000000

  Lowest unoccupied state (CBM) at    -1.53577854 eV
  | Occupation number:      0.00000000

  Overall HOMO-LUMO gap:      5.31268054 eV.

[...]
      6       2.00000          -0.444138          -12.08561
      7       2.00000          -0.355105           -9.66290
      8       2.00000          -0.331374           -9.01716
      9       2.00000          -0.270846           -7.37008
     10       2.00000          -0.251674           -6.84840
     11       0.00000          -0.056438           -1.53577
     12       0.00000          -0.024574           -0.66869
     13       0.00000           0.010562            0.28741
     14       0.00000           0.034391            0.93581
     15       0.00000           0.117945            3.20944
     16       0.00000           0.131342            3.57399
     17       0.00000           0.138334            3.76426
     18       0.00000           0.140532            3.82406
     19       0.00000           0.153801            4.18513
     20       0.00000           0.162756            4.42882
     21       0.00000           0.180135            4.90171
     22       0.00000           0.235359            6.40445
     23       0.00000           0.262212            7.13514
     24       0.00000           0.289416            7.87541
     25       0.00000           0.359092            9.77138
     26       0.00000           0.373145           10.15380
     27       0.00000           0.410876           11.18051
     28       0.00000           0.418597           11.39061
     29       0.00000           0.460572           12.53281
     30       0.00000           0.468351           12.74447
     31       0.00000           0.491124           13.36417
     32       0.00000           0.506475           13.78188
     33       0.00000           0.543669           14.79399
     34       0.00000           0.579769           15.77633

  Highest occupied state (VBM) at     -6.84840087 eV
  | Occupation number:      2.00000000

  Lowest unoccupied state (CBM) at    -1.53576719 eV
  | Occupation number:      0.00000000

  Overall HOMO-LUMO gap:      5.31263368 eV.

  Self-consistency cycle converged.

  End self-consistency iteration #    13       :  max(cpu_time)    wall_clock(cpu1)
  | Time for this iteration                    :        0.701 s           0.701 s
  | Charge density & force component update    :        0.417 s           0.418 s
  | Density mixing                             :        0.007 s           0.007 s
  | Hartree multipole update                   :        0.003 s           0.002 s
  | Hartree multipole summation                :        0.142 s           0.142 s
  | Integration                                :        0.124 s           0.124 s
  | Solution of K.-S. eqns.                    :        0.007 s           0.007 s
  | Total energy evaluation                    :        0.000 s           0.001 s
------------------------------------------------------------
  Obtaining max. number of non-zero basis functions in each batch .
  Evaluating KS electron density on previously omitted grid points.
  Evaluating non-empirical van der Waals correction (Tkatchenko/Scheffler 2009).
  Performing Hirshfeld analysis of fragment charges and moments.
  ----------------------------------------------------------------------
  | Atom     1: O
  |   Hirshfeld charge        :     -0.29264772
  |   Free atom volume        :     23.95238533
  |   Hirshfeld volume        :     22.72162932
  |   Hirshfeld dipole vector :      0.02639140       0.04490270      -0.01084464
  |   Hirshfeld dipole moment :      0.05320118
  |   Hirshfeld second moments:      0.05201069      -0.02441484       0.02722874
  |                                 -0.02441484      -0.00970744      -0.02788431
  |                                  0.02722874      -0.02788431      -0.06671044
  ----------------------------------------------------------------------
  | Atom     2: H
  |   Hirshfeld charge        :      0.15047584
  |   Free atom volume        :     10.44207651
  |   Hirshfeld volume        :      6.91146921
  |   Hirshfeld dipole vector :     -0.06521865       0.08735111      -0.04277862
  |   Hirshfeld dipole moment :      0.11710550
  |   Hirshfeld second moments:      0.12942728       0.00608788       0.00437342
  |                                  0.00608788       0.07832897      -0.00296091
  |                                  0.00437342      -0.00296091       0.09304758
  ----------------------------------------------------------------------
  | Atom     3: H
  |   Hirshfeld charge        :      0.13575323
  |   Free atom volume        :     10.44207651
  |   Hirshfeld volume        :      6.58594097
  |   Hirshfeld dipole vector :      0.12339796       0.02314307       0.01004602
  |   Hirshfeld dipole moment :      0.12595071
  |   Hirshfeld second moments:      0.11078595      -0.01094246       0.00682455
  |                                 -0.01094246       0.11265588      -0.00989711
  |                                  0.00682455      -0.00989711       0.09449541
  ----------------------------------------------------------------------
  | Atom     4: O
  |   Hirshfeld charge        :     -0.28514087
  |   Free atom volume        :     23.95238533
  |   Hirshfeld volume        :     21.86157552
  |   Hirshfeld dipole vector :      0.04807334       0.01620628      -0.00214025
  |   Hirshfeld dipole moment :      0.05077667
  |   Hirshfeld second moments:      0.01549091      -0.01468101       0.02106604
  |                                 -0.01468101       0.04862120      -0.05169783
  |                                  0.02106604      -0.05169783      -0.01749915
  ----------------------------------------------------------------------
  | Atom     5: H
  |   Hirshfeld charge        :      0.14253941
  |   Free atom volume        :     10.44207651
  |   Hirshfeld volume        :      6.25601856
  |   Hirshfeld dipole vector :      0.10461740      -0.04924118       0.04287697
  |   Hirshfeld dipole moment :      0.12332043
  |   Hirshfeld second moments:      0.11006722       0.00567451       0.00087331
  |                                  0.00567451       0.12404804      -0.01373831
  |                                  0.00087331      -0.01373831       0.10812528
  ----------------------------------------------------------------------
  | Atom     6: H
  |   Hirshfeld charge        :      0.14899812
  |   Free atom volume        :     10.44207651
  |   Hirshfeld volume        :      6.11775930
  |   Hirshfeld dipole vector :      0.03745315       0.10700864      -0.05248277
  |   Hirshfeld dipole moment :      0.12493210
  |   Hirshfeld second moments:      0.12685673      -0.01106424       0.01077912
  |                                 -0.01106424       0.11663516      -0.00934004
  |                                  0.01077912      -0.00934004       0.10700812
  ----------------------------------------------------------------------


  Total energy components:
  | Sum of eigenvalues            :         -83.16373127 Ha       -2263.00026792 eV
  | XC energy correction          :         -18.54458827 Ha        -504.62392191 eV
  | XC potential correction       :          23.69778059 Ha         644.84941956 eV
  | Free-atom electrostatic energy:         -71.89977414 Ha       -1956.49239971 eV
  | Hartree energy correction     :          -3.18065971 Ha         -86.55015441 eV
  | van der Waals energy corr.    :          -0.00025178 Ha          -0.00685122 eV
  | Entropy correction            :           0.00000000 Ha           0.00000000 eV
  | ---------------------------
  | Total energy                  :        -153.09122458 Ha       -4165.82417561 eV
  | Total energy, T -> 0          :        -153.09122458 Ha       -4165.82417561 eV  <-- do not rely on this value for anything but (periodic) metals
  | Electronic free energy        :        -153.09122458 Ha       -4165.82417561 eV

  Derived energy quantities:
  | Kinetic energy                :         152.40443197 Ha        4147.13559776 eV
  | Electrostatic energy          :        -286.95081650 Ha       -7808.32900024 eV
  | Energy correction for multipole
  | error in Hartree potential    :          -0.00335910 Ha          -0.09140564 eV
  | Sum of eigenvalues per atom                           :        -377.16671132 eV
  | Total energy (T->0) per atom                          :        -694.30402927 eV  <-- do not rely on this value for anything but (periodic) metals
  | Electronic free energy per atom                       :        -694.30402927 eV

  atomic forces [eV/Ang]:
  -----------------------
  atom #    1
   Hellmann-Feynman + Multipole  : -.737085E+01 -.120965E+02 0.315217E+01
   Pulay + GGA                   : 0.717593E+01 0.157841E+02 -.447077E+01
   Van der Waals               : 0.248608E-03 0.324126E-02 0.573909E-03
   ----------------------------------------------------------------
   Total forces(   1)            : -.194672E+00 0.369091E+01 -.131803E+01
  atom #    2
   Hellmann-Feynman + Multipole  : 0.229321E+01 -.349564E+01 0.158323E+01
   Pulay + GGA                   : -.431408E-01 0.103868E+00 -.524219E-01
   Van der Waals               : 0.913392E-03 0.389000E-02 0.129998E-02
   ----------------------------------------------------------------
   Total forces(   2)            : 0.225098E+01 -.338788E+01 0.153211E+01
  atom #    3
   Hellmann-Feynman + Multipole  : -.219841E+01 -.317549E+00 -.221724E+00
   Pulay + GGA                   : 0.145587E+00 0.522140E-01 0.170694E-01
   Van der Waals               : -.245031E-03 0.205718E-02 0.413658E-03
   ----------------------------------------------------------------
   Total forces(   3)            : -.205307E+01 -.263278E+00 -.204241E+00
  atom #    4
   Hellmann-Feynman + Multipole  : -.145905E+02 -.480577E+01 0.978512E+00
   Pulay + GGA                   : 0.157545E+02 0.609396E+01 -.156803E+01
   Van der Waals               : -.933736E-04 -.520478E-02 -.113855E-02
   ----------------------------------------------------------------
   Total forces(   4)            : 0.116391E+01 0.128298E+01 -.590660E+00
  atom #    5
   Hellmann-Feynman + Multipole  : -.611486E+00 0.153536E+00 -.114358E+00
   Pulay + GGA                   : 0.132361E+00 -.707564E-01 0.318046E-01
   Van der Waals               : -.744662E-03 -.332108E-02 -.106064E-02
   ----------------------------------------------------------------
   Total forces(   5)            : -.479870E+00 0.794584E-01 -.836138E-01
  atom #    6
   Hellmann-Feynman + Multipole  : -.739965E+00 -.151904E+01 0.727452E+00
   Pulay + GGA                   : 0.568901E-01 0.114666E+00 -.648524E-01
   Van der Waals               : -.789325E-04 -.662579E-03 -.883570E-04
   ----------------------------------------------------------------
   Total forces(   6)            : -.683154E+00 -.140504E+01 0.662511E+00
  Timings for vdw_correction_hirshfeld (Tkatchenko-Scheffler 2009):
  | CPU time:        0.701 s, Wall clock time:        0.701 s.
  Removing unitary transformations (pure translations, rotations) from forces on atoms.
  Atomic forces before filtering:
  | Net force on center of mass :  0.413170E-02 -.284521E-02 -.192311E-02 eV/A
  | Net torque on center of mass:  0.578792E-03 -.127790E-02 -.749759E-02 eV
  Atomic forces after filtering:
  | Net force on center of mass :  -.178406E-15 0.000000E+00 -.178406E-15 eV/A
  | Net torque on center of mass:  -.151054E-14 0.188817E-15 -.151054E-14 eV
 
  Energy and forces in a compact form:
  | Total energy uncorrected      :         -0.416582417560726E+04 eV
  | Total energy corrected        :         -0.416582417560726E+04 eV  <-- do not rely on this value for anything but (periodic) metals
  | Electronic free energy        :         -0.416582417560726E+04 eV
  Total atomic forces (unitary forces cleaned) [eV/Ang]:
  |   1         -0.194607965346142E+00          0.369127866581573E+01         -0.131747397240843E+01
  |   2          0.225027447038387E+01         -0.338772099548972E+01          0.153319058676108E+01
  |   3         -0.205306841277565E+01         -0.262498949427624E+00         -0.204678050280889E+00
  |   4          0.116284841748624E+01          0.128333043244202E+01         -0.590027359131062E+00
  |   5         -0.480441246962095E+00          0.801568962984475E-01         -0.838368643429406E-01
  |   6         -0.685005262786219E+00         -0.140454604963885E+01          0.662825659402240E+00
 
  ------------------------------------ 
  Start decomposition of the XC Energy 
  ------------------------------------ 
  Hartree-Fock part   :          0.000000000 Ha              0.000000000 eV
  ------------------------------------ 
  X Energy            :        -17.901370195 Ha           -487.121067439 eV
  C Energy GGA        :         -0.643218079 Ha            -17.502854473 eV
  Total XC Energy     :        -18.544588274 Ha           -504.623921913 eV
  LDA X and C from self-consistent density 
  X Energy LDA        :        -16.105824165 Ha           -438.261774036 eV
  C Energy LDA        :         -1.312844327 Ha            -35.724311775 eV
  ------------------------------------ 
  End decomposition of the XC Energy 
  ------------------------------------ 
  Performing Hirshfeld analysis of fragment charges and moments.
  ----------------------------------------------------------------------
  | Atom     1: O
  |   Hirshfeld charge        :     -0.29264772
  |   Free atom volume        :     23.95238533
  |   Hirshfeld volume        :     22.72162932
  |   Hirshfeld dipole vector :      0.02639140       0.04490270      -0.01084464
  |   Hirshfeld dipole moment :      0.05320118
  |   Hirshfeld second moments:      0.05201069      -0.02441484       0.02722874
  |                                 -0.02441484      -0.00970744      -0.02788431
  |                                  0.02722874      -0.02788431      -0.06671044
  ----------------------------------------------------------------------
  | Atom     2: H
  |   Hirshfeld charge        :      0.15047584
  |   Free atom volume        :     10.44207651
  |   Hirshfeld volume        :      6.91146921
  |   Hirshfeld dipole vector :     -0.06521865       0.08735111      -0.04277862
  |   Hirshfeld dipole moment :      0.11710550
  |   Hirshfeld second moments:      0.12942728       0.00608788       0.00437342
  |                                  0.00608788       0.07832897      -0.00296091
  |                                  0.00437342      -0.00296091       0.09304758
  ----------------------------------------------------------------------
  | Atom     3: H
  |   Hirshfeld charge        :      0.13575323
  |   Free atom volume        :     10.44207651
  |   Hirshfeld volume        :      6.58594097
  |   Hirshfeld dipole vector :      0.12339796       0.02314307       0.01004602
  |   Hirshfeld dipole moment :      0.12595071
  |   Hirshfeld second moments:      0.11078595      -0.01094246       0.00682455
  |                                 -0.01094246       0.11265588      -0.00989711
  |                                  0.00682455      -0.00989711       0.09449541
  ----------------------------------------------------------------------
  | Atom     4: O
  |   Hirshfeld charge        :     -0.28514087
  |   Free atom volume        :     23.95238533
  |   Hirshfeld volume        :     21.86157552
  |   Hirshfeld dipole vector :      0.04807334       0.01620628      -0.00214025
  |   Hirshfeld dipole moment :      0.05077667
  |   Hirshfeld second moments:      0.01549091      -0.01468101       0.02106604
  |                                 -0.01468101       0.04862120      -0.05169783
  |                                  0.02106604      -0.05169783      -0.01749915
  ----------------------------------------------------------------------
  | Atom     5: H
  |   Hirshfeld charge        :      0.14253941
  |   Free atom volume        :     10.44207651
  |   Hirshfeld volume        :      6.25601856
  |   Hirshfeld dipole vector :      0.10461740      -0.04924118       0.04287697
  |   Hirshfeld dipole moment :      0.12332043
  |   Hirshfeld second moments:      0.11006722       0.00567451       0.00087331
  |                                  0.00567451       0.12404804      -0.01373831
  |                                  0.00087331      -0.01373831       0.10812528
  ----------------------------------------------------------------------
  | Atom     6: H
  |   Hirshfeld charge        :      0.14899812
  |   Free atom volume        :     10.44207651
  |   Hirshfeld volume        :      6.11775930
  |   Hirshfeld dipole vector :      0.03745315       0.10700864      -0.05248277
  |   Hirshfeld dipole moment :      0.12493210
  |   Hirshfeld second moments:      0.12685673      -0.01106424       0.01077912
  |                                 -0.01106424       0.11663516      -0.00934004
  |                                  0.01077912      -0.00934004       0.10700812
  ----------------------------------------------------------------------


------------------------------------------------------------------------------
  Final output of selected total energy values:

  The following output summarizes some interesting total energy values
  at the end of a run (AFTER all relaxation, molecular dynamics, etc.).

  | Total energy of the DFT / Hartree-Fock s.c.f. calculation      :          -4165.824175607 eV
  | Final zero-broadening corrected energy (caution - metals only) :          -4165.824175607 eV
  | For reference only, the value of 1 Hartree used in FHI-aims is :             27.211384500 eV

  Before relying on these values, please be sure to understand exactly which
  total energy value is referred to by a given number. Different objects may
  all carry the same name 'total energy'. Definitions:

  Total energy of the DFT / Hartree-Fock s.c.f. calculation:
  | Note that this energy does not include ANY quantities calculated after the
  | s.c.f. cycle, in particular not ANY RPA, MP2, etc. many-body perturbation terms.

  Final zero-broadening corrected energy:
  | For metallic systems only, a broadening of the occupation numbers at the Fermi
  | level can be extrapolated back to zero broadening by an electron-gas inspired
  | formula. For all systems that are not real metals, this value can be
  | meaningless and should be avoided.

------------------------------------------------------------------------------

------------------------------------------------------------
          Leaving FHI-aims.
          Date     :  20150727, Time     :  124157.575

          Computational steps:
          | Number of self-consistency cycles          :           13

          Detailed time accounting                     :  max(cpu_time)    wall_clock(cpu1)
          | Total time                                 :        5.115 s           5.168 s
          | Preparation time                           :        0.169 s           0.599 s
          | Grid partitioning                          :        0.048 s           0.048 s
          | Preloading free-atom quantities on grid    :        0.013 s           0.013 s
          | Free-atom superposition energy             :        0.016 s           0.016 s
          | Total time for integrations                :        1.802 s           1.805 s
          | Total time for solution of K.-S. equations :        0.115 s           0.115 s
          | Total time for density & force components  :        1.450 s           1.453 s
          | Total time for mixing                      :        0.058 s           0.060 s
          | Total time for Hartree multipole update    :        0.029 s           0.030 s
          | Total time for Hartree multipole sum       :        0.886 s           0.881 s
          | Total time for total energy evaluation     :        0.002 s           0.006 s
          | Total time for scaled ZORA corrections     :        0.000 s           0.000 s
          | Total time for TS (2009) vdW correction    :        0.010 s           0.010 s

          Have a nice day.
------------------------------------------------------------
