  MPI-parallelism will be employed.
------------------------------------------------------------
          Invoking FHI-aims ...
          Version 081213
          Compiled on 2013/08/29 at 17:41:06 on host generoso.

          When using FHI-aims, please cite the following reference:

          Volker Blum, Ralf Gehrke, Felix Hanke, Paula Havu,
          Ville Havu, Xinguo Ren, Karsten Reuter, and Matthias Scheffler,
          'Ab Initio Molecular Simulations with Numeric Atom-Centered Orbitals: FHI-aims',
          Computer Physics Communications 180, 2175-2196 (2009)

          For any questions about FHI-aims, please visit the aimsclub website
          with its forums and wiki. Contributions to both the forums and the
          wiki are warmly encouraged - they are for you, and everyone is welcome there.

------------------------------------------------------------

  Date     :  20150727, Time     :  121654.820
  Time zero on CPU 1             :   0.369940000000000E-01  s.
  Internal wall clock time zero  :           207231414.820  s.

  Using        8 parallel tasks.
  Task        0 on host gen60 reporting.
  Task        1 on host gen60 reporting.
  Task        2 on host gen60 reporting.
  Task        3 on host gen60 reporting.
  Task        4 on host gen60 reporting.
  Task        5 on host gen60 reporting.
  Task        6 on host gen60 reporting.
  Task        7 on host gen60 reporting.

  Performing system and environment tests:
  | Environment variable OMP_NUM_THREADS correctly set to 1.
  | Checking for scalapack...
  | No scalapack compiled in.

  Obtaining array dimensions for all initial allocations:
  
  -----------------------------------------------------------------------
  Parsing control.in (first pass over file, find array dimensions only).
  The contents of control.in will be repeated verbatim below
  unless switched off by setting 'verbatim_writeout .false.' .
  in the first line of control.in .
  -----------------------------------------------------------------------
  
  #########################################################################################
  #
  #  Volker Blum, FHI 2008 : Test run input file control.in
  #
  #########################################################################################
  #
  #  Physical model
  #
    xc                 rpbe
    spin               none
    relativistic       atomic_zora scalar
    charge             0.
   vdw_correction_hirshfeld
  #
  #  SCF convergence
  #
    occupation_type    gaussian 0.01
    mixer              pulay
      n_max_pulay        10
      charge_mix_param   0.1
    sc_accuracy_rho    5E-5
    sc_accuracy_eev    5E-3
    sc_accuracy_etot   5E-6
    sc_iter_limit      3000
  #
  #  Eigenvalue solver
  #
    KS_method          lapack
      empty_states       8
      basis_threshold    0.e-5
  #
  #  Efficiency
  #
  #   all previous settings are now default, except stratmann still
  #   undecided. Continue to handle stratmann with care, if at all.
  #
  #  partition_type stratmann
    partition_type rho_r2
  #  hartree_partition_type stratmann
  #
  #  Oprions for large clusters (100's of atoms: memory saving / better scaling)
  #
  # for periodic systems:
  #
    density_update_method orbital
    packed_matrix_format none
  #  k_grid 6 6 6
  #  output k_eigenvalue 1
  #  distributed_spline_storage .true.
  #
  #  Relaxation
  #
  #  relax_geometry   bfgs 5.e-3
    sc_accuracy_forces 5.E-4
    final_forces_cleaned .true.
  #
  #  Output options
  #
  #  output mulliken
    output Hirshfeld
  #  output dipole
  
  #harmonic_length_scale 0.001
  
  ################################################################################
  #
  #  FHI-aims code project
  #  VB, Fritz-Haber Institut, 2007
  #
  #  Suggested "safe" defaults for H atom (to be pasted into control.in file)
  #  Basis constructed for a non-relativistic H2 molecule using the
  #  PW-LDA functional.
  #
  ################################################################################
    species        H
  #     global species definitions
      nucleus             1
      cut_pot             4.0  2.0  1.0
      cut_free_atom       finite 8.0
      logarithmic         0.00010000 100.00  1.0123
      basis_dep_cutoff    1d-4  # 1d-4 is safe default - please check 5d-4 if you wish!
      radial_base         24 7.0
      radial_multiplier   2
      angular_grids       specified
        division   0.2783  110
        division   0.3822  194
        division   0.5626  302
  #      division   0.5922  434
  #      division   0.6227  590
  #      division   0.7206  770
        outer_grid  302
      l_hartree           4
  ################################################################################
  #
  #  Definition of "minimal" basis
  #
  ################################################################################
  #     valence basis states
      valence      1  s   1.
  #     ion occupancy
      ion_occ      1  s   0.5
  ################################################################################
  #
  #  Suggested additional basis functions. For production calculations,
  #  uncomment them one after another (the most important basis functions are
  #  listed first).
  #
  ################################################################################
  #  "First tier" - improvements: -1014.90 meV to -62.69 meV
       hydro 2 s 2.1
       hydro 2 p 3.5
  #  "Second tier" - improvements: -12.89 meV to -1.83 meV
       hydro 1 s 0.85
       hydro 2 p 3.7
       hydro 2 s 1.2
       hydro 3 d 7
  #  "Third tier" - improvements: -0.25 meV to -0.12 meV
  #     hydro 4 f 11.2
  #     hydro 3 p 4.8
  #     hydro 4 d 9
  #     hydro 3 s 3.2
  
  ################################################################################
  #
  #  FHI-aims code project
  #  VB, Fritz-Haber Institut, 2007
  #
  #  Suggested "safe" defaults for O atom (to be pasted into control.in file)
  #  All values have been tested for a non-relativistic, non-spinpolarized O2
  #  molecule using the PW-LDA functional. Validity for PBE is expected.
  #
  #  Constructed for dimers: 1.0 A, 1.208 A, 1.5 A, 2.0 A, 3.0 A
  #
  ################################################################################
    species        O
  #     global species definitions
      nucleus             8
      mass                15.9994
      l_hartree           4
      cut_pot             4.0  2.0  1.0
      cut_free_atom       finite 8.0
      basis_dep_cutoff    1d-4  # 1d-4 is safe default - please check 5d-4 if you wish!
      logarithmic         0.00010000 100.00  1.0123
      radial_base         36 7.0
      radial_multiplier   2
       angular_grids specified
        division   0.4087  110
        division   0.5181  194
        division   0.6184  302
  #      division   0.7315  434
  #      division   0.7934  590
  #      division   0.9656  770
  #      division   1.4041  974
  #      outer_grid 974
        outer_grid 302
  ################################################################################
  #
  #  Definition of "minimal" basis
  #
  ################################################################################
  #     valence basis states
      valence      2  s   2.
      valence      2  p   4.
  #     ion occupancy
      ion_occ      2  s   1.
      ion_occ      2  p   3.
  ################################################################################
  #
  #  Suggested additional basis functions. For production calculations,
  #  uncomment them one after another (the most important basis functions are
  #  listed first).
  #
  ################################################################################
  #  "First tier" - improvements: -699.05 meV to -159.38 meV
       hydro 2 p 1.8
       hydro 3 d 7.6
       hydro 3 s 6.4
  #  "Second tier" - improvements: -49.91 meV to -5.39 meV
       hydro 4 f 11.6
       hydro 3 p 6.2
       hydro 3 d 5.6
       hydro 5 g 17.6
       hydro 1 s 0.75
  #  "Third tier" - improvements: -2.83 meV to -0.50 meV
  #     ionic 2 p auto
  #     hydro 4 f 10.8
  #     hydro 4 d 4.7
  #     hydro 2 s 6.8
  #  "Fourth tier" - improvements: -0.40 meV to -0.12 meV
  #     hydro 3 p 5
  #     hydro 3 s 3.3
  #     hydro 5 g 15.6
  #     hydro 4 f 17.6
  #     hydro 4 d 14
  # Further basis functions - -0.08 meV and below
  #     hydro 3 s 2.1
  #     hydro 4 d 11.6
  #     hydro 3 p 16
  #     hydro 2 s 17.2
  
  
  -----------------------------------------------------------------------
  Completed first pass over input file control.in .
  -----------------------------------------------------------------------
  
  
  -----------------------------------------------------------------------
  Parsing geometry.in (first pass over file, find array dimensions only).
  The contents of geometry.in will be repeated verbatim below
  unless switched off by setting 'verbatim_writeout .false.' .
  in the first line of geometry.in .
  -----------------------------------------------------------------------
  
  atom      -4.053030000      0.065001000     -1.525160000  O
  atom      -4.566710000      0.974813000     -1.912820000  H
  atom      -3.067820000      0.330172000     -1.477310000  H
  atom      -5.293160000      2.192130000     -2.328800000  O
  atom      -4.829300000      2.988660000     -1.973850000  H
  atom      -5.428570000      2.328640000     -3.235170000  H
  atom      -1.645860000      0.870179000     -1.502250000  O
  atom      -1.568890000      1.501730000     -0.721051000  H
  atom      -0.824432000      0.282220000     -1.377720000  H
  atom      -3.818880000      2.024990000      2.187990000  O
  atom      -3.690880000      1.961360000      3.202150000  H
  atom      -4.546490000      2.751300000      2.045370000  H
  atom      -1.975360000      2.858040000      0.453140000  O
  atom      -1.223550000      3.375850000      0.786238000  H
  atom      -2.537520000      2.567960000      1.156120000  H
  
  -----------------------------------------------------------------------
  Completed first pass over input file geometry.in .
  -----------------------------------------------------------------------
  
 
  Basic array size parameters: 
  | Number of species                 :        2
  | Number of atoms                   :       15
  | Max. basis fn. angular momentum   :        4
  | Max. atomic/ionic basis occupied n:        2
  | Max. number of basis fn. types    :        2
  | Max. radial fns per species/type  :        8
  | Max. logarithmic grid size        :     1301
  | Max. radial integration grid size :       73
  | Max. angular integration grid size:      302
  | Max. angular grid division number :        8
  | Radial grid for Hartree potential :     1301
  | Number of spin channels           :        1

------------------------------------------------------------
          Reading file control.in.
------------------------------------------------------------
  XC: Using RPBE gradient-corrected functionals.
  Spin treatment: No spin polarisation.
  Scalar relativistic treatment of kinetic energy: on-site free-atom approximation to ZORA.
  Charge =   0.000000E+00: Neutral system requested explicitly.
  Using non-empirical van der Waals correction (Hirshfeld partitioning):
  Occupation type: Gaussian broadening, width =   0.100000E-01 eV.
  Using pulay charge density mixing.
  Pulay mixing - number of memorized iterations:   10
  Charge density mixing - mixing parameter:     0.1000
  Convergence accuracy of self-consistent charge density: 0.5000E-04
  Convergence accuracy of sum of eigenvalues: 0.5000E-02
  Convergence accuracy of total energy: 0.5000E-05
  Maximum number of s.-c. iterations  :  3000
  Kohn-Sham eigenvalues and eigenfunctions calculated by lapack diagonalisation (D&C).
  Number of empty states per atom:        8
  Threshold for basis singularities: 0.0000E+00
  Partition function in integrals calculations: rho / r^2
 Using packed matrix format           0
  Convergence accuracy of forces: 0.5000E-03
  Cleaning forces before final output.
  Hirshfeld charge analysis will be performed.
 
  Reading configuration options for species H                   .
  | Found nuclear charge :   1.0000
  | Found cutoff potl. onset [A], width [A], scale factor :    4.00000    2.00000    1.00000
  | Found cutoff specification for free atom: Cutoff potential begins at    8.00000 A.
  | Found logarithmic grid data [bohr] : 0.1000E-03 0.1000E+03 0.1012E+01
  | Threshold for basis-dependent cutoff potential is   0.100000E-03
  | Found data for basic radial integration grid :    24 points, outermost radius =    7.000 A
  | Found multiplier for basic radial grid :   2
  | Found angular grid specification: user-specified.
  | Specified grid contains     4 separate shells.
  | Check grid settings after all constraints further below.
  | Found l_max for Hartree potential  :   4
  | Found free-atom valence shell :  1 s   1.000
  | No ionic wave fns used. Skipping ion_occ.
  | Found hydrogenic basis function :  2 s   2.100
  | Found hydrogenic basis function :  2 p   3.500
  | Found hydrogenic basis function :  1 s   0.850
  | Found hydrogenic basis function :  2 p   3.700
  | Found hydrogenic basis function :  2 s   1.200
  | Found hydrogenic basis function :  3 d   7.000
  Species H                   : Missing cutoff potential type.
  Defaulting to exp(1/x)/(1-x)^2 type cutoff potential.
  Species H : On-site basis accuracy parameter (for Gram-Schmidt orthonormalisation) not specified.
  Using default value basis_acc =  0.1000000E-03.
  Species H                   : Using default innermost maximum threshold i_radial=  2 for radial functions.
  Species H                   : Basic radial grid will be enhanced according to radial_multiplier =   2, to contain    49 grid points.
 
  Reading configuration options for species O                   .
  | Found nuclear charge :   8.0000
  | Found atomic mass :    15.9994000000000      amu
  | Found l_max for Hartree potential  :   4
  | Found cutoff potl. onset [A], width [A], scale factor :    4.00000    2.00000    1.00000
  | Found cutoff specification for free atom: Cutoff potential begins at    8.00000 A.
  | Threshold for basis-dependent cutoff potential is   0.100000E-03
  | Found logarithmic grid data [bohr] : 0.1000E-03 0.1000E+03 0.1012E+01
  | Found data for basic radial integration grid :    36 points, outermost radius =    7.000 A
  | Found multiplier for basic radial grid :   2
  | Found angular grid specification: user-specified.
  | Specified grid contains     4 separate shells.
  | Check grid settings after all constraints further below.
  | Found free-atom valence shell :  2 s   2.000
  | Found free-atom valence shell :  2 p   4.000
  | No ionic wave fns used. Skipping ion_occ.
  | No ionic wave fns used. Skipping ion_occ.
  | Found hydrogenic basis function :  2 p   1.800
  | Found hydrogenic basis function :  3 d   7.600
  | Found hydrogenic basis function :  3 s   6.400
  | Found hydrogenic basis function :  4 f  11.600
  | Found hydrogenic basis function :  3 p   6.200
  | Found hydrogenic basis function :  3 d   5.600
  | Found hydrogenic basis function :  5 g  17.600
  | Found hydrogenic basis function :  1 s   0.750
  Species O                   : Missing cutoff potential type.
  Defaulting to exp(1/x)/(1-x)^2 type cutoff potential.
  Species O : On-site basis accuracy parameter (for Gram-Schmidt orthonormalisation) not specified.
  Using default value basis_acc =  0.1000000E-03.
  Species O                   : Using default innermost maximum threshold i_radial=  2 for radial functions.
  Species O                   : Basic radial grid will be enhanced according to radial_multiplier =   2, to contain    73 grid points.
 
  Finished reading input file 'control.in'. Consistency checks are next.
 
  Target number of points in a grid batch is not set. Defaulting to  100
  Method for grid partitioning is not set. Defaulting to parallel hash+maxmin partitioning.
  Batch size limit is not set. Defaulting to    200
  By default, will store active basis functions for each batch.
  If in need of memory, prune_basis_once .false. can be used to disable this option.
  communication_type for Hartree potential was not specified.
  Defaulting to calc_hartree .
  Pulay mixer: Number of initial linear mixing iterations not set.
  Defaulting to    0 iterations.
  Work space size for distributed Hartree potential not set.
  Defaulting to   0.200000E+03 MB.
  Algorithm-dependent basis array size parameters:
  | n_max_pulay                         :       10
  Geometry relaxation not requested: no relaxation will be performed.
  Handling of forces: Unphysical translation and rotation will be removed from forces.
  No accuracy limit for integral partition fn. given. Defaulting to 0.1000E-14.
  No threshold value for u(r) in integrations given. Defaulting to 0.1000E-05.
  No accuracy for occupation numbers given. Defaulting to 0.1000E-07.
  No threshold value for occupation numbers given. Defaulting to 0.0000E+00.
  No accuracy for fermi level given. Defaulting to 0.1000E-19.
  Maximum # of iterations to find E_F not set. Defaulting to  200.
  Will not use alltoall communication since running on < 1024 CPUs.
  Partitioning for Hartree potential was not defined. Using partition_type for integrals.
  | Reporting present value of keyword multip_moments_threshold  :       0.10000000E-09
  | This value may affect high angular momentum components of the Hartree potential in periodic systems.
  No q(lm)/r^(l+1) cutoff set for long-range Hartree potential.
  | Using default value of  0.100000E-09 .
  | Verify using the multipole_threshold keyword.
  Defaulting to new monopole extrapolation.
  Density update method: Loop over occupied states selected for charge density update.
------------------------------------------------------------


------------------------------------------------------------
          Reading geometry description geometry.in.
------------------------------------------------------------
  Input structure read successfully.
  The structure contains       15 atoms,  and a total of         50.000 electrons.

  Input geometry:
  | No unit cell requested.
  | Atomic structure:
  |       Atom                x [A]            y [A]            z [A]
  |    1: Species O             -4.053030         0.065001        -1.525160
  |    2: Species H             -4.566710         0.974813        -1.912820
  |    3: Species H             -3.067820         0.330172        -1.477310
  |    4: Species O             -5.293160         2.192130        -2.328800
  |    5: Species H             -4.829300         2.988660        -1.973850
  |    6: Species H             -5.428570         2.328640        -3.235170
  |    7: Species O             -1.645860         0.870179        -1.502250
  |    8: Species H             -1.568890         1.501730        -0.721051
  |    9: Species H             -0.824432         0.282220        -1.377720
  |   10: Species O             -3.818880         2.024990         2.187990
  |   11: Species H             -3.690880         1.961360         3.202150
  |   12: Species H             -4.546490         2.751300         2.045370
  |   13: Species O             -1.975360         2.858040         0.453140
  |   14: Species H             -1.223550         3.375850         0.786238
  |   15: Species H             -2.537520         2.567960         1.156120
  |

  | The smallest distance between any two atoms is         0.92654057 AA.
  |
  | The first atom of this pair is atom number                      4 .
  | The second atom of this pair is atom number                     6 .

  Structure-dependent array size parameters: 
  | Maximum number of distinct radial functions  :       18
  | Maximum number of basis functions            :      345
  | Number of Kohn-Sham states (occupied + empty):       85
------------------------------------------------------------

------------------------------------------------------------
          Preparing all fixed parts of the calculation.
------------------------------------------------------------
  Determining machine precision:
    2.225073858507201E-308
  Setting up grids for atomic and cluster calculations.

  Creating wave function, potential, and density for free atoms.

  Species: H

  List of occupied orbitals and eigenvalues:
    n    l              occ      energy [Ha]    energy [eV]
    1    0           1.0000        -0.241408        -6.5691


  Species: O

  List of occupied orbitals and eigenvalues:
    n    l              occ      energy [Ha]    energy [eV]
    1    0           2.0000       -18.944147      -515.4965
    2    0           2.0000        -0.883529       -24.0421
    2    1           4.0000        -0.330176        -8.9845

  Creating fixed part of basis set: Ionic, confined, hydrogenic.
 
  H                    hydrogenic:
 
  List of hydrogenic basis orbitals: 
    n    l      effective z      eigenvalue [eV]  inner max. [A]     outer max. [A]     outer radius [A]   
    2    0         2.100000       -14.9965           0.193241           1.317192           5.372934
    2    1         3.500000       -41.6672           0.602363           0.602363           4.056010
    1    0         0.850000        -9.8292           0.624864           0.624864           5.372934
    2    1         3.700000       -46.5653           0.573616           0.573616           3.909951
    2    0         1.200000        -4.5995           0.334977           2.228160           5.505921
    3    2         7.000000       -74.0753           0.680692           0.680692           3.769152
 
 
  O                    hydrogenic:
 
  List of hydrogenic basis orbitals: 
    n    l      effective z      eigenvalue [eV]  inner max. [A]     outer max. [A]     outer radius [A]   
    2    1         1.800000       -11.0118           1.178546           1.178546           5.432516
    3    2         7.600000       -87.3182           0.624117           0.624117           3.541422
    3    0         6.400000       -61.9209           0.061166           1.081887           4.306510
    4    3        11.600000      -114.4238           0.731621           0.731621           3.584982
    3    1         6.200000       -58.1113           0.255677           1.030255           4.306510
    3    2         5.600000       -47.4081           0.847222           0.847222           4.413102
    5    4        17.600000      -168.5799           0.749730           0.749730           3.372413
    1    0         0.750000        -7.6499           0.705275           0.705275           5.366508
 

  Adding cutoff potential to free-atom effective potential.
  Creating atomic-like basis functions for current effective potential.

  Species H                   :

  List of atomic basis orbitals and eigenvalues:
    n    l      energy [Ha]    energy [eV]    outer radius [A]
    1    0        -0.241374        -6.5681       5.372934


  Species O                   :

  List of atomic basis orbitals and eigenvalues:
    n    l      energy [Ha]    energy [eV]    outer radius [A]
    1    0       -18.944147      -515.4965       1.415745
    2    0        -0.883529       -24.0421       5.048305
    2    1        -0.330173        -8.9845       5.301302

  Assembling full basis from fixed parts.
  | Species H :   atomic orbital   1 s accepted.
  | Species H :    hydro orbital   2 s accepted.
  | Species H :    hydro orbital   1 s accepted.
  | Species H :    hydro orbital   2 s accepted.
  | Species H :    hydro orbital   2 p accepted.
  | Species H :    hydro orbital   2 p accepted.
  | Species H :    hydro orbital   3 d accepted.
  | Species O :   atomic orbital   1 s accepted.
  | Species O :    hydro orbital   3 s accepted.
  | Species O :   atomic orbital   2 s accepted.
  | Species O :    hydro orbital   1 s accepted.
  | Species O :    hydro orbital   3 p accepted.
  | Species O :   atomic orbital   2 p accepted.
  | Species O :    hydro orbital   2 p accepted.
  | Species O :    hydro orbital   3 d accepted.
  | Species O :    hydro orbital   3 d accepted.
  | Species O :    hydro orbital   4 f accepted.
  | Species O :    hydro orbital   5 g accepted.
 
  Basis size parameters after reduction:
  | Total number of radial functions:       18
  | Total number of basis functions :      345
 
  Testing on-site integration grid accuracy.
  |  Species  Function  <phi|h_atom|phi> (log., in eV)  <phi|h_atom|phi> (rad., in eV)
           1        1                 -6.5683835025                 -6.5684759159
           1        2                 13.3711789951                 13.3708738703
           1        3                 23.6590910787                 23.6532055418
           1        4                 16.2963827186                 16.1870710655 ***
           1        5                 28.7627214838                 28.7627215090
           1        6                 59.5965249172                 59.5965950857
           1        7                 60.2220506392                 60.2220503827
           2        8               -515.4964576505               -515.4964530710
           2        9                 15.3030791347                 15.3030722972
           2       10                -21.7296094581                -21.7296135470
           2       11                 14.2969371730                 14.2969701621
           2       12                 21.0679693190                 21.0679697493
           2       13                 -2.3833606469                 -2.3833613176
           2       14                 13.7067136422                 13.7066766629
           2       15                 45.8013116808                 45.8013116965
           2       16                 52.2309815402                 52.2309831494
           2       17                 85.4120732416                 85.4120732763
           2       18                142.1019167745                142.1019167817
 * Note: Onsite integrals marked "***" above are less accurate than
 * onsite_accuracy_threshold =    0.03000 eV. Usually, this is harmless.
 * When in doubt, tighten the "radial" and/or "radial_multiplier" flags to check.

  Preparing densities etc. for the partition functions (integrals / Hartree potential).

  Preparations completed.
  max(cpu_time)          :      0.173 s.
  Wall clock time (cpu1) :      0.490 s.
------------------------------------------------------------

------------------------------------------------------------
          Begin self-consistency loop: Initialization.

          Date     :  20150727, Time     :  121655.335
------------------------------------------------------------

  Initializing index lists of integration centers etc. from given atomic structure:
  | Number of centers in hartree potential         :        15
  | Number of centers in hartree multipole         :        15
  | Number of centers in electron density summation:        15
  | Number of centers in basis integrals           :        15
  | Number of centers in integrals                 :        15
  Partitioning the integration grid into batches with parallel hashing+maxmin method.
  | Number of batches:     2043
  | Maximal batch size:     194
  | Minimal batch size:      51
  | Average batch size:      96.285
  | Standard deviation of batch sizes:      30.997

  Integration load balanced across     8 MPI tasks.
  Work distribution over tasks is as follows:
  Task     0 has      24642 integration points.
  Task     1 has      24520 integration points.
  Task     2 has      24563 integration points.
  Task     3 has      24606 integration points.
  Task     4 has      24544 integration points.
  Task     5 has      24613 integration points.
  Task     6 has      24608 integration points.
  Task     7 has      24614 integration points.
  Initializing partition tables, free-atom densities, potentials, etc. across the integration grid (initialize_grid_storage).
  | Net number of integration points:   196710
  | of which are non-zero points    :   196149
  Obtaining max. number of non-zero basis functions in each batch (get_n_compute_maxes).
  | Maximal number of non-zero basis functions:      342 in task     0
  | Maximal number of non-zero basis functions:      342 in task     1
  | Maximal number of non-zero basis functions:      342 in task     2
  | Maximal number of non-zero basis functions:      342 in task     3
  | Maximal number of non-zero basis functions:      342 in task     4
  | Maximal number of non-zero basis functions:      342 in task     5
  | Maximal number of non-zero basis functions:      342 in task     6
  | Maximal number of non-zero basis functions:      342 in task     7
  Integrating Hamiltonian matrix: batch-based integration.
  Time summed over all CPUs for integration: real work        7.133 s, elapsed        7.368 s
  Integrating overlap matrix.
  Time summed over all CPUs for integration: real work        3.835 s, elapsed        3.945 s

  Updating Kohn-Sham eigenvalues, eigenvectors, occupation numbers, and Fermi level.
  Solving generalized eigenproblem
  Updating Kohn-Sham eigenvalues and eigenfunctions.
  Transforming overlap matrix and checking for singularities.
  Overlap matrix is nonsingular:
  | Lowest eigenvalue:  0.234271E-03
  Solving real generalised eigenvalue problem by standard LAPACK (fast)
  Determining occupation numbers for Kohn-Sham eigenstates.
  | Chemical potential (Fermi level) in eV                 : -.32774851E+01
  | Error in electron count due to remaining E_F inaccuracy: 0.00000000E+00
  | Maximum occupation number of highest empty state:  0.00E+00

  Writing Kohn-Sham eigenvalues.

  State    Occupation    Eigenvalue [Ha]    Eigenvalue [eV]
      1       2.00000         -19.064786         -518.77923
      2       2.00000         -19.057374         -518.57753
      3       2.00000         -19.042521         -518.17335
      4       2.00000         -19.032589         -517.90309
      5       2.00000         -19.019680         -517.55182
      6       2.00000          -1.121192          -30.50919
      7       2.00000          -1.109734          -30.19739
      8       2.00000          -1.086509          -29.56540
      9       2.00000          -1.064971          -28.97935
     10       2.00000          -1.042038          -28.35530
     11       2.00000          -0.654169          -17.80085
     12       2.00000          -0.650126          -17.69082
     13       2.00000          -0.610484          -16.61212
     14       2.00000          -0.604144          -16.43961
     15       2.00000          -0.594066          -16.16536
     16       2.00000          -0.549880          -14.96301
     17       2.00000          -0.514050          -13.98802
     18       2.00000          -0.500516          -13.61974
     19       2.00000          -0.491003          -13.36088
     20       2.00000          -0.476396          -12.96340
     21       2.00000          -0.443747          -12.07497
     22       2.00000          -0.441077          -12.00232
     23       2.00000          -0.431524          -11.74236
     24       2.00000          -0.425270          -11.57218
     25       2.00000          -0.409714          -11.14888
     26       0.00000          -0.093320           -2.53936
     27       0.00000          -0.070312           -1.91328
     28       0.00000          -0.062872           -1.71084
     29       0.00000          -0.038263           -1.04120
     30       0.00000          -0.018063           -0.49151
     31       0.00000           0.000140            0.00380
     32       0.00000           0.009982            0.27161
     33       0.00000           0.036902            1.00415
     34       0.00000           0.050292            1.36850
     35       0.00000           0.059308            1.61386
     36       0.00000           0.073448            1.99863
     37       0.00000           0.076824            2.09048
     38       0.00000           0.086903            2.36476
     39       0.00000           0.097501            2.65313
     40       0.00000           0.102278            2.78312
     41       0.00000           0.103855            2.82604
     42       0.00000           0.109626            2.98307
     43       0.00000           0.120244            3.27199
     44       0.00000           0.133013            3.61947
     45       0.00000           0.141069            3.83869
     46       0.00000           0.150771            4.10268
     47       0.00000           0.153212            4.16912
     48       0.00000           0.163761            4.45615
     49       0.00000           0.177612            4.83307
     50       0.00000           0.181140            4.92906
     51       0.00000           0.189507            5.15674
     52       0.00000           0.222321            6.04965
     53       0.00000           0.239795            6.52516
     54       0.00000           0.244472            6.65243
     55       0.00000           0.246558            6.70919
     56       0.00000           0.273024            7.42937
     57       0.00000           0.288070            7.83878
     58       0.00000           0.298363            8.11886
     59       0.00000           0.308481            8.39421
     60       0.00000           0.326005            8.87104
     61       0.00000           0.347984            9.46912
     62       0.00000           0.352308            9.58680
     63       0.00000           0.366182            9.96433
     64       0.00000           0.375879           10.22818
     65       0.00000           0.392011           10.66716
     66       0.00000           0.394327           10.73018
     67       0.00000           0.402408           10.95008
     68       0.00000           0.412999           11.23827
     69       0.00000           0.421110           11.45900
     70       0.00000           0.438165           11.92308
     71       0.00000           0.445929           12.13434
     72       0.00000           0.460507           12.53104
     73       0.00000           0.476568           12.96806
     74       0.00000           0.512927           13.95746
     75       0.00000           0.519570           14.13823
     76       0.00000           0.561941           15.29120
     77       0.00000           0.568395           15.46680
     78       0.00000           0.578622           15.74510
     79       0.00000           0.590578           16.07043
     80       0.00000           0.628304           17.09702
     81       0.00000           0.662296           18.02199
     82       0.00000           0.691488           18.81634
     83       0.00000           0.714238           19.43541
     84       0.00000           0.737606           20.07128
     85       0.00000           0.757085           20.60134

  Highest occupied state (VBM) at    -11.14887783 eV
  | Occupation number:      2.00000000

  Lowest unoccupied state (CBM) at    -2.53936173 eV
  | Occupation number:      0.00000000

  Overall HOMO-LUMO gap:      8.60951611 eV.
  Calculating total energy contributions from superposition of free atom densities.

  Total energy components:
  | Sum of eigenvalues            :        -216.87512165 Ha       -5901.47232360 eV
  | XC energy correction          :         -45.58487234 Ha       -1240.42748871 eV
  | XC potential correction       :          58.25348770 Ha        1585.15805239 eV
  | Free-atom electrostatic energy:        -178.87373170 Ha       -4867.40189023 eV
  | Hartree energy correction     :           0.00000000 Ha           0.00000000 eV
  | van der Waals energy corr.    :           0.00000000 Ha           0.00000000 eV
  | Entropy correction            :           0.00000000 Ha           0.00000000 eV
  | ---------------------------
  | Total energy                  :        -383.08023799 Ha      -10424.14365016 eV
  | Total energy, T -> 0          :        -383.08023799 Ha      -10424.14365016 eV  <-- do not rely on this value for anything but (periodic) metals
  | Electronic free energy        :        -383.08023799 Ha      -10424.14365016 eV

  Derived energy quantities:
  | Kinetic energy                :         379.19552082 Ha       10318.43511759 eV
  | Electrostatic energy          :        -716.69088646 Ha      -19502.15127904 eV
  | Energy correction for multipole
  | error in Hartree potential    :           0.00000000 Ha           0.00000000 eV
  | Sum of eigenvalues per atom                           :        -393.43148824 eV
  | Total energy (T->0) per atom                          :        -694.94291001 eV  <-- do not rely on this value for anything but (periodic) metals
  | Electronic free energy per atom                       :        -694.94291001 eV
  Initialize hartree_potential_storage
  Max. number of atoms included in rho_multipole:           15

  End scf initialization - timings             :  max(cpu_time)    wall_clock(cpu1)
  | Time for scf. initialization               :        1.973 s           1.973 s
  | Boundary condition initialization          :        0.000 s           0.001 s
  | Integration                                :        1.418 s           1.418 s
  | Solution of K.-S. eqns.                    :        0.198 s           0.199 s
  | Grid partitioning                          :        0.141 s           0.140 s
  | Preloading free-atom quantities on grid    :        0.013 s           0.013 s
  | Free-atom superposition energy             :        0.066 s           0.066 s
  | Total energy evaluation                    :        0.000 s           0.000 s
------------------------------------------------------------

------------------------------------------------------------
          Begin self-consistency iteration #    1

  Date     :  20150727, Time     :  121657.308
------------------------------------------------------------
  Evaluating new KS density.
  Integration grid: deviation in total charge (<rho> - N_e) =   3.552714E-14
  Pulay mixing of updated and previous charge densities.

  Evaluating partitioned Hartree potential by multipole expansion.
  | Analytical far-field extrapolation by fixed multipoles:
  | Hartree multipole sum: apparent total charge =  -0.218267E-05
  Summing up the Hartree potential.
  Time summed over all CPUs for potential: real work        2.567 s, elapsed        2.576 s
  | RMS charge density error from multipole expansion :   0.162611E-02

  Integrating Hamiltonian matrix: batch-based integration.
  Time summed over all CPUs for integration: real work        7.123 s, elapsed        7.366 s

  Updating Kohn-Sham eigenvalues, eigenvectors, occupation numbers, and Fermi level.
  Solving generalized eigenproblem
  Updating Kohn-Sham eigenvalues and eigenfunctions.
  Solving real generalised eigenvalue problem by standard LAPACK (fast)
  Determining occupation numbers for Kohn-Sham eigenstates.
  | Chemical potential (Fermi level) in eV                 : -.29424022E+01
  | Error in electron count due to remaining E_F inaccuracy: 0.00000000E+00
  | Maximum occupation number of highest empty state:  0.00E+00

  Writing Kohn-Sham eigenvalues.

  State    Occupation    Eigenvalue [Ha]    Eigenvalue [eV]
      1       2.00000         -18.995566         -516.89565
      2       2.00000         -18.979374         -516.45504
      3       2.00000         -18.970127         -516.20343
      4       2.00000         -18.966554         -516.10619
      5       2.00000         -18.920750         -514.85979
      6       2.00000          -1.087695          -29.59770
      7       2.00000          -1.071476          -29.15635
      8       2.00000          -1.048171          -28.52220
      9       2.00000          -1.033232          -28.11567
     10       2.00000          -0.986131          -26.83398
     11       2.00000          -0.621340          -16.90751
     12       2.00000          -0.620854          -16.89430
     13       2.00000          -0.576676          -15.69216
     14       2.00000          -0.568278          -15.46364
     15       2.00000          -0.563730          -15.33987
     16       2.00000          -0.511546          -13.91988
     17       2.00000          -0.477146          -12.98380
     18       2.00000          -0.461939          -12.56999
     19       2.00000          -0.454815          -12.37615
     20       2.00000          -0.433884          -11.80657
     21       2.00000          -0.403896          -10.99058
     22       2.00000          -0.397053          -10.80436
     23       2.00000          -0.391211          -10.64540
     24       2.00000          -0.386341          -10.51288
     25       2.00000          -0.352499           -9.59199
     26       0.00000          -0.085803           -2.33483
     27       0.00000          -0.062615           -1.70384
     28       0.00000          -0.054744           -1.48965
     29       0.00000          -0.031258           -0.85058
     30       0.00000          -0.012709           -0.34582
     31       0.00000           0.007113            0.19355
     32       0.00000           0.024350            0.66259
     33       0.00000           0.049261            1.34045
     34       0.00000           0.056264            1.53101
     35       0.00000           0.069767            1.89845
     36       0.00000           0.082980            2.25801
     37       0.00000           0.086296            2.34823
     38       0.00000           0.097599            2.65581
     39       0.00000           0.104993            2.85700
     40       0.00000           0.113386            3.08538
     41       0.00000           0.117950            3.20958
     42       0.00000           0.119739            3.25827
     43       0.00000           0.132006            3.59206
     44       0.00000           0.145943            3.97132
     45       0.00000           0.154266            4.19780
     46       0.00000           0.159447            4.33878
     47       0.00000           0.173648            4.72519
     48       0.00000           0.180143            4.90195
     49       0.00000           0.189336            5.15209
     50       0.00000           0.195790            5.32773
     51       0.00000           0.200697            5.46124
     52       0.00000           0.233129            6.34376
     53       0.00000           0.251700            6.84910
     54       0.00000           0.253445            6.89660
     55       0.00000           0.256196            6.97144
     56       0.00000           0.283027            7.70154
     57       0.00000           0.297052            8.08319
     58       0.00000           0.306088            8.32906
     59       0.00000           0.319844            8.70339
     60       0.00000           0.335617            9.13259
     61       0.00000           0.360763            9.81686
     62       0.00000           0.363824            9.90015
     63       0.00000           0.375209           10.20996
     64       0.00000           0.386012           10.50391
     65       0.00000           0.401930           10.93707
     66       0.00000           0.405218           11.02653
     67       0.00000           0.415082           11.29496
     68       0.00000           0.424645           11.55518
     69       0.00000           0.429026           11.67439
     70       0.00000           0.449577           12.23361
     71       0.00000           0.457725           12.45534
     72       0.00000           0.468469           12.74768
     73       0.00000           0.484124           13.17368
     74       0.00000           0.524456           14.27116
     75       0.00000           0.530320           14.43074
     76       0.00000           0.575341           15.65584
     77       0.00000           0.580370           15.79267
     78       0.00000           0.593338           16.14555
     79       0.00000           0.602573           16.39686
     80       0.00000           0.644550           17.53909
     81       0.00000           0.677299           18.43024
     82       0.00000           0.706285           19.21899
     83       0.00000           0.728013           19.81023
     84       0.00000           0.750442           20.42056
     85       0.00000           0.766763           20.86470

  Highest occupied state (VBM) at     -9.59198814 eV
  | Occupation number:      2.00000000

  Lowest unoccupied state (CBM) at    -2.33483105 eV
  | Occupation number:      0.00000000

  Overall HOMO-LUMO gap:      7.25715709 eV.

  Total energy components:
  | Sum of eigenvalues            :        -214.56056992 Ha       -5838.49016664 eV
  | XC energy correction          :         -45.82273050 Ha       -1246.89993858 eV
  | XC potential correction       :          58.56464651 Ha        1593.62511425 eV
  | Free-atom electrostatic energy:        -178.87373170 Ha       -4867.40189023 eV
  | Hartree energy correction     :          -2.24376073 Ha         -61.05583587 eV
  | van der Waals energy corr.    :           0.00000000 Ha           0.00000000 eV
  | Entropy correction            :           0.00000000 Ha           0.00000000 eV
  | ---------------------------
  | Total energy                  :        -382.93614634 Ha      -10420.22271707 eV
  | Total energy, T -> 0          :        -382.93614634 Ha      -10420.22271707 eV  <-- do not rely on this value for anything but (periodic) metals
  | Electronic free energy        :        -382.93614634 Ha      -10420.22271707 eV

  Derived energy quantities:
  | Kinetic energy                :         380.60968140 Ha       10356.91638497 eV
  | Electrostatic energy          :        -717.72309724 Ha      -19530.23916346 eV
  | Energy correction for multipole
  | error in Hartree potential    :          -0.00008294 Ha          -0.00225705 eV
  | Sum of eigenvalues per atom                           :        -389.23267778 eV
  | Total energy (T->0) per atom                          :        -694.68151447 eV  <-- do not rely on this value for anything but (periodic) metals
  | Electronic free energy per atom                       :        -694.68151447 eV

  Self-consistency convergence accuracy:
  | Change of charge density      : 0.6556E+00
  | Change of sum of eigenvalues  : 0.6298E+02 eV
  | Change of total energy        : 0.3921E+01 eV

  End self-consistency iteration #     1       :  max(cpu_time)    wall_clock(cpu1)
  | Time for this iteration                    :        1.945 s           1.944 s
  | Charge density update                      :        0.635 s           0.635 s
  | Density mixing                             :        0.003 s           0.003 s
  | Hartree multipole update                   :        0.005 s           0.005 s
  | Hartree multipole summation                :        0.323 s           0.323 s
  | Integration                                :        0.923 s           0.922 s
  | Solution of K.-S. eqns.                    :        0.054 s           0.054 s
  | Total energy evaluation                    :        0.001 s           0.000 s
------------------------------------------------------------

------------------------------------------------------------
          Begin self-consistency iteration #    2

  Date     :  20150727, Time     :  121659.253
------------------------------------------------------------
  Evaluating new KS density.
  Integration grid: deviation in total charge (<rho> - N_e) =   2.131628E-14
  Pulay mixing of updated and previous charge densities.

  Evaluating partitioned Hartree potential by multipole expansion.
  | Analytical far-field extrapolation by fixed multipoles:
  | Hartree multipole sum: apparent total charge =  -0.658768E-05
  Summing up the Hartree potential.
  Time summed over all CPUs for potential: real work        2.567 s, elapsed        2.576 s
  | RMS charge density error from multipole expansion :   0.655859E-02

  Integrating Hamiltonian matrix: batch-based integration.
  Time summed over all CPUs for integration: real work        7.122 s, elapsed        7.317 s

  Updating Kohn-Sham eigenvalues, eigenvectors, occupation numbers, and Fermi level.
  Solving generalized eigenproblem
  Updating Kohn-Sham eigenvalues and eigenfunctions.
  Solving real generalised eigenvalue problem by standard LAPACK (fast)
  Determining occupation numbers for Kohn-Sham eigenstates.
  | Chemical potential (Fermi level) in eV                 : -.20809856E+01
  | Error in electron count due to remaining E_F inaccuracy: 0.00000000E+00
  | Maximum occupation number of highest empty state:  0.00E+00

  Highest occupied state (VBM) at     -5.78983414 eV
  | Occupation number:      2.00000000

  Lowest unoccupied state (CBM) at    -1.90684163 eV
  | Occupation number:      0.00000000

  Overall HOMO-LUMO gap:      3.88299252 eV.

  Total energy components:
  | Sum of eigenvalues            :        -208.98316575 Ha       -5686.72127736 eV
  | XC energy correction          :         -46.41799580 Ha       -1263.09793155 eV
  | XC potential correction       :          59.34263287 Ha        1614.79520028 eV
  | Free-atom electrostatic energy:        -178.87373170 Ha       -4867.40189023 eV
  | Hartree energy correction     :          -7.83208641 Ha        -213.12191466 eV
  | van der Waals energy corr.    :           0.00000000 Ha           0.00000000 eV
  | Entropy correction            :           0.00000000 Ha           0.00000000 eV
  | ---------------------------
  | Total energy                  :        -382.76434679 Ha      -10415.54781353 eV
  | Total energy, T -> 0          :        -382.76434679 Ha      -10415.54781353 eV  <-- do not rely on this value for anything but (periodic) metals
  | Electronic free energy        :        -382.76434679 Ha      -10415.54781353 eV

  Derived energy quantities:
  | Kinetic energy                :         383.49297520 Ha       10435.37480123 eV
  | Electrostatic energy          :        -719.83932619 Ha      -19587.82468321 eV
  | Energy correction for multipole
  | error in Hartree potential    :          -0.00116081 Ha          -0.03158713 eV
  | Sum of eigenvalues per atom                           :        -379.11475182 eV
  | Total energy (T->0) per atom                          :        -694.36985424 eV  <-- do not rely on this value for anything but (periodic) metals
  | Electronic free energy per atom                       :        -694.36985424 eV

  Self-consistency convergence accuracy:
  | Change of charge density      : 0.4964E+00
  | Change of sum of eigenvalues  : 0.1518E+03 eV
  | Change of total energy        : 0.4675E+01 eV

  End self-consistency iteration #     2       :  max(cpu_time)    wall_clock(cpu1)
  | Time for this iteration                    :        1.936 s           1.935 s
  | Charge density update                      :        0.632 s           0.632 s
  | Density mixing                             :        0.005 s           0.005 s
  | Hartree multipole update                   :        0.005 s           0.005 s
  | Hartree multipole summation                :        0.322 s           0.323 s
  | Integration                                :        0.917 s           0.916 s
  | Solution of K.-S. eqns.                    :        0.054 s           0.054 s
  | Total energy evaluation                    :        0.000 s           0.000 s
------------------------------------------------------------

------------------------------------------------------------
          Begin self-consistency iteration #    3

  Date     :  20150727, Time     :  121701.189
------------------------------------------------------------
  Evaluating new KS density.
  Integration grid: deviation in total charge (<rho> - N_e) =   0.000000E+00
  Pulay mixing of updated and previous charge densities.

  Evaluating partitioned Hartree potential by multipole expansion.
  | Analytical far-field extrapolation by fixed multipoles:
  | Hartree multipole sum: apparent total charge =  -0.727404E-05
  Summing up the Hartree potential.
  Time summed over all CPUs for potential: real work        2.589 s, elapsed        2.645 s
  | RMS charge density error from multipole expansion :   0.130548E-01

  Integrating Hamiltonian matrix: batch-based integration.
  Time summed over all CPUs for integration: real work        7.120 s, elapsed        7.351 s

  Updating Kohn-Sham eigenvalues, eigenvectors, occupation numbers, and Fermi level.
  Solving generalized eigenproblem
  Updating Kohn-Sham eigenvalues and eigenfunctions.
  Solving real generalised eigenvalue problem by standard LAPACK (fast)
  Determining occupation numbers for Kohn-Sham eigenstates.
  | Chemical potential (Fermi level) in eV                 : -.31735009E+01
  | Error in electron count due to remaining E_F inaccuracy: 0.00000000E+00
  | Maximum occupation number of highest empty state:  0.00E+00

  Highest occupied state (VBM) at     -5.36151812 eV
  | Occupation number:      2.00000000

  Lowest unoccupied state (CBM) at    -1.90451122 eV
  | Occupation number:      0.00000000

  Overall HOMO-LUMO gap:      3.45700690 eV.

  Total energy components:
  | Sum of eigenvalues            :        -209.06305526 Ha       -5688.89518136 eV
  | XC energy correction          :         -46.39112555 Ha       -1262.36675470 eV
  | XC potential correction       :          59.30257571 Ha        1613.70518937 eV
  | Free-atom electrostatic energy:        -178.87373170 Ha       -4867.40189023 eV
  | Hartree energy correction     :          -7.73235605 Ha        -210.40811353 eV
  | van der Waals energy corr.    :           0.00000000 Ha           0.00000000 eV
  | Entropy correction            :           0.00000000 Ha           0.00000000 eV
  | ---------------------------
  | Total energy                  :        -382.75769285 Ha      -10415.36675046 eV
  | Total energy, T -> 0          :        -382.75769285 Ha      -10415.36675046 eV  <-- do not rely on this value for anything but (periodic) metals
  | Electronic free energy        :        -382.75769285 Ha      -10415.36675046 eV

  Derived energy quantities:
  | Kinetic energy                :         381.47861830 Ha       10380.56136113 eV
  | Electrostatic energy          :        -717.84518560 Ha      -19533.56135689 eV
  | Energy correction for multipole
  | error in Hartree potential    :          -0.00592791 Ha          -0.16130673 eV
  | Sum of eigenvalues per atom                           :        -379.25967876 eV
  | Total energy (T->0) per atom                          :        -694.35778336 eV  <-- do not rely on this value for anything but (periodic) metals
  | Electronic free energy per atom                       :        -694.35778336 eV

  Self-consistency convergence accuracy:
  | Change of charge density      : 0.2449E+00
  | Change of sum of eigenvalues  : -.2174E+01 eV
  | Change of total energy        : 0.1811E+00 eV

  End self-consistency iteration #     3       :  max(cpu_time)    wall_clock(cpu1)
  | Time for this iteration                    :        1.947 s           1.946 s
  | Charge density update                      :        0.629 s           0.629 s
  | Density mixing                             :        0.007 s           0.007 s
  | Hartree multipole update                   :        0.005 s           0.005 s
  | Hartree multipole summation                :        0.332 s           0.331 s
  | Integration                                :        0.920 s           0.921 s
  | Solution of K.-S. eqns.                    :        0.054 s           0.053 s
  | Total energy evaluation                    :        0.000 s           0.000 s
------------------------------------------------------------

------------------------------------------------------------
          Begin self-consistency iteration #    4

  Date     :  20150727, Time     :  121703.135
------------------------------------------------------------
  Evaluating new KS density.
  Integration grid: deviation in total charge (<rho> - N_e) =  -2.131628E-14
  Pulay mixing of updated and previous charge densities.

  Evaluating partitioned Hartree potential by multipole expansion.
  | Analytical far-field extrapolation by fixed multipoles:
  | Hartree multipole sum: apparent total charge =  -0.890173E-05
  Summing up the Hartree potential.
  Time summed over all CPUs for potential: real work        2.566 s, elapsed        2.575 s
  | RMS charge density error from multipole expansion :   0.171708E-01

  Integrating Hamiltonian matrix: batch-based integration.
  Time summed over all CPUs for integration: real work        7.098 s, elapsed        7.287 s

  Updating Kohn-Sham eigenvalues, eigenvectors, occupation numbers, and Fermi level.
  Solving generalized eigenproblem
  Updating Kohn-Sham eigenvalues and eigenfunctions.
  Solving real generalised eigenvalue problem by standard LAPACK (fast)
  Determining occupation numbers for Kohn-Sham eigenstates.
  | Chemical potential (Fermi level) in eV                 : -.27180752E+01
  | Error in electron count due to remaining E_F inaccuracy: 0.00000000E+00
  | Maximum occupation number of highest empty state:  0.00E+00

  Highest occupied state (VBM) at     -3.97445080 eV
  | Occupation number:      2.00000000

  Lowest unoccupied state (CBM) at    -1.76365396 eV
  | Occupation number:      0.00000000

  Overall HOMO-LUMO gap:      2.21079684 eV.

  Total energy components:
  | Sum of eigenvalues            :        -207.29202534 Ha       -5640.70300544 eV
  | XC energy correction          :         -46.59473855 Ha       -1267.90734646 eV
  | XC potential correction       :          59.56750516 Ha        1620.91428653 eV
  | Free-atom electrostatic energy:        -178.87373170 Ha       -4867.40189023 eV
  | Hartree energy correction     :          -9.55398984 Ha        -259.97729116 eV
  | van der Waals energy corr.    :           0.00000000 Ha           0.00000000 eV
  | Entropy correction            :           0.00000000 Ha           0.00000000 eV
  | ---------------------------
  | Total energy                  :        -382.74698029 Ha      -10415.07524677 eV
  | Total energy, T -> 0          :        -382.74698029 Ha      -10415.07524677 eV  <-- do not rely on this value for anything but (periodic) metals
  | Electronic free energy        :        -382.74698029 Ha      -10415.07524677 eV

  Derived energy quantities:
  | Kinetic energy                :         381.61346015 Ha       10384.23059447 eV
  | Electrostatic energy          :        -717.76570188 Ha      -19531.39849478 eV
  | Energy correction for multipole
  | error in Hartree potential    :          -0.00819092 Ha          -0.22288638 eV
  | Sum of eigenvalues per atom                           :        -376.04686703 eV
  | Total energy (T->0) per atom                          :        -694.33834978 eV  <-- do not rely on this value for anything but (periodic) metals
  | Electronic free energy per atom                       :        -694.33834978 eV

  Self-consistency convergence accuracy:
  | Change of charge density      : 0.1328E+00
  | Change of sum of eigenvalues  : 0.4819E+02 eV
  | Change of total energy        : 0.2915E+00 eV

  End self-consistency iteration #     4       :  max(cpu_time)    wall_clock(cpu1)
  | Time for this iteration                    :        1.931 s           1.931 s
  | Charge density update                      :        0.629 s           0.629 s
  | Density mixing                             :        0.008 s           0.008 s
  | Hartree multipole update                   :        0.005 s           0.005 s
  | Hartree multipole summation                :        0.323 s           0.323 s
  | Integration                                :        0.913 s           0.912 s
  | Solution of K.-S. eqns.                    :        0.053 s           0.054 s
  | Total energy evaluation                    :        0.000 s           0.000 s
------------------------------------------------------------

------------------------------------------------------------
          Begin self-consistency iteration #    5

  Date     :  20150727, Time     :  121705.066
------------------------------------------------------------
  Evaluating new KS density.
  Integration grid: deviation in total charge (<rho> - N_e) =   1.421085E-14
  Pulay mixing of updated and previous charge densities.

  Evaluating partitioned Hartree potential by multipole expansion.
  | Analytical far-field extrapolation by fixed multipoles:
  | Hartree multipole sum: apparent total charge =  -0.895077E-05
  Summing up the Hartree potential.
  Time summed over all CPUs for potential: real work        2.566 s, elapsed        2.575 s
  | RMS charge density error from multipole expansion :   0.177097E-01

  Integrating Hamiltonian matrix: batch-based integration.
  Time summed over all CPUs for integration: real work        7.106 s, elapsed        7.333 s

  Updating Kohn-Sham eigenvalues, eigenvectors, occupation numbers, and Fermi level.
  Solving generalized eigenproblem
  Updating Kohn-Sham eigenvalues and eigenfunctions.
  Solving real generalised eigenvalue problem by standard LAPACK (fast)
  Determining occupation numbers for Kohn-Sham eigenstates.
  | Chemical potential (Fermi level) in eV                 : -.26915605E+01
  | Error in electron count due to remaining E_F inaccuracy: 0.00000000E+00
  | Maximum occupation number of highest empty state:  0.00E+00

  Highest occupied state (VBM) at     -3.92554265 eV
  | Occupation number:      2.00000000

  Lowest unoccupied state (CBM) at    -1.73542137 eV
  | Occupation number:      0.00000000

  Overall HOMO-LUMO gap:      2.19012128 eV.

  Total energy components:
  | Sum of eigenvalues            :        -207.25232159 Ha       -5639.62261142 eV
  | XC energy correction          :         -46.60509711 Ha       -1268.18921712 eV
  | XC potential correction       :          59.58036980 Ha        1621.26435129 eV
  | Free-atom electrostatic energy:        -178.87373170 Ha       -4867.40189023 eV
  | Hartree energy correction     :          -9.59593864 Ha        -261.11877588 eV
  | van der Waals energy corr.    :           0.00000000 Ha           0.00000000 eV
  | Entropy correction            :           0.00000000 Ha           0.00000000 eV
  | ---------------------------
  | Total energy                  :        -382.74671924 Ha      -10415.06814338 eV
  | Total energy, T -> 0          :        -382.74671924 Ha      -10415.06814338 eV  <-- do not rely on this value for anything but (periodic) metals
  | Electronic free energy        :        -382.74671924 Ha      -10415.06814338 eV

  Derived energy quantities:
  | Kinetic energy                :         381.63765842 Ha       10384.88906284 eV
  | Electrostatic energy          :        -717.77928055 Ha      -19531.76798909 eV
  | Energy correction for multipole
  | error in Hartree potential    :          -0.00837196 Ha          -0.22781252 eV
  | Sum of eigenvalues per atom                           :        -375.97484076 eV
  | Total energy (T->0) per atom                          :        -694.33787623 eV  <-- do not rely on this value for anything but (periodic) metals
  | Electronic free energy per atom                       :        -694.33787623 eV

  Self-consistency convergence accuracy:
  | Change of charge density      : 0.3055E-01
  | Change of sum of eigenvalues  : 0.1080E+01 eV
  | Change of total energy        : 0.7103E-02 eV

  End self-consistency iteration #     5       :  max(cpu_time)    wall_clock(cpu1)
  | Time for this iteration                    :        1.937 s           1.936 s
  | Charge density update                      :        0.628 s           0.627 s
  | Density mixing                             :        0.009 s           0.010 s
  | Hartree multipole update                   :        0.005 s           0.005 s
  | Hartree multipole summation                :        0.323 s           0.322 s
  | Integration                                :        0.918 s           0.919 s
  | Solution of K.-S. eqns.                    :        0.053 s           0.053 s
  | Total energy evaluation                    :        0.000 s           0.000 s
------------------------------------------------------------

------------------------------------------------------------
          Begin self-consistency iteration #    6

  Date     :  20150727, Time     :  121707.003
------------------------------------------------------------
  Evaluating new KS density.
  Integration grid: deviation in total charge (<rho> - N_e) =   7.105427E-15
  Pulay mixing of updated and previous charge densities.

  Evaluating partitioned Hartree potential by multipole expansion.
  | Analytical far-field extrapolation by fixed multipoles:
  | Hartree multipole sum: apparent total charge =  -0.893375E-05
  Summing up the Hartree potential.
  Time summed over all CPUs for potential: real work        2.566 s, elapsed        2.575 s
  | RMS charge density error from multipole expansion :   0.177964E-01

  Integrating Hamiltonian matrix: batch-based integration.
  Time summed over all CPUs for integration: real work        7.099 s, elapsed        7.331 s

  Updating Kohn-Sham eigenvalues, eigenvectors, occupation numbers, and Fermi level.
  Solving generalized eigenproblem
  Updating Kohn-Sham eigenvalues and eigenfunctions.
  Solving real generalised eigenvalue problem by standard LAPACK (fast)
  Determining occupation numbers for Kohn-Sham eigenstates.
  | Chemical potential (Fermi level) in eV                 : -.26930801E+01
  | Error in electron count due to remaining E_F inaccuracy: 0.00000000E+00
  | Maximum occupation number of highest empty state:  0.00E+00

  Highest occupied state (VBM) at     -3.93651449 eV
  | Occupation number:      2.00000000

  Lowest unoccupied state (CBM) at    -1.73562607 eV
  | Occupation number:      0.00000000

  Overall HOMO-LUMO gap:      2.20088842 eV.

  Total energy components:
  | Sum of eigenvalues            :        -207.26218001 Ha       -5639.89087261 eV
  | XC energy correction          :         -46.60493651 Ha       -1268.18484686 eV
  | XC potential correction       :          59.58002122 Ha        1621.25486601 eV
  | Free-atom electrostatic energy:        -178.87373170 Ha       -4867.40189023 eV
  | Hartree energy correction     :          -9.58587975 Ha        -260.84505972 eV
  | van der Waals energy corr.    :           0.00000000 Ha           0.00000000 eV
  | Entropy correction            :           0.00000000 Ha           0.00000000 eV
  | ---------------------------
  | Total energy                  :        -382.74670675 Ha      -10415.06780341 eV
  | Total energy, T -> 0          :        -382.74670675 Ha      -10415.06780341 eV  <-- do not rely on this value for anything but (periodic) metals
  | Electronic free energy        :        -382.74670675 Ha      -10415.06780341 eV

  Derived energy quantities:
  | Kinetic energy                :         381.63471628 Ha       10384.80900329 eV
  | Electrostatic energy          :        -717.77648652 Ha      -19531.69195985 eV
  | Energy correction for multipole
  | error in Hartree potential    :          -0.00840491 Ha          -0.22870927 eV
  | Sum of eigenvalues per atom                           :        -375.99272484 eV
  | Total energy (T->0) per atom                          :        -694.33785356 eV  <-- do not rely on this value for anything but (periodic) metals
  | Electronic free energy per atom                       :        -694.33785356 eV

  Self-consistency convergence accuracy:
  | Change of charge density      : 0.1250E-01
  | Change of sum of eigenvalues  : -.2683E+00 eV
  | Change of total energy        : 0.3400E-03 eV

  End self-consistency iteration #     6       :  max(cpu_time)    wall_clock(cpu1)
  | Time for this iteration                    :        1.939 s           1.938 s
  | Charge density update                      :        0.628 s           0.628 s
  | Density mixing                             :        0.011 s           0.011 s
  | Hartree multipole update                   :        0.005 s           0.004 s
  | Hartree multipole summation                :        0.323 s           0.323 s
  | Integration                                :        0.918 s           0.918 s
  | Solution of K.-S. eqns.                    :        0.054 s           0.054 s
  | Total energy evaluation                    :        0.000 s           0.000 s
------------------------------------------------------------

------------------------------------------------------------
          Begin self-consistency iteration #    7

  Date     :  20150727, Time     :  121708.941
------------------------------------------------------------
  Evaluating new KS density.
  Integration grid: deviation in total charge (<rho> - N_e) =   1.421085E-14
  Pulay mixing of updated and previous charge densities.

  Evaluating partitioned Hartree potential by multipole expansion.
  | Analytical far-field extrapolation by fixed multipoles:
  | Hartree multipole sum: apparent total charge =  -0.875193E-05
  Summing up the Hartree potential.
  Time summed over all CPUs for potential: real work        2.566 s, elapsed        2.575 s
  | RMS charge density error from multipole expansion :   0.178124E-01

  Integrating Hamiltonian matrix: batch-based integration.
  Time summed over all CPUs for integration: real work        7.099 s, elapsed        7.331 s

  Updating Kohn-Sham eigenvalues, eigenvectors, occupation numbers, and Fermi level.
  Solving generalized eigenproblem
  Updating Kohn-Sham eigenvalues and eigenfunctions.
  Solving real generalised eigenvalue problem by standard LAPACK (fast)
  Determining occupation numbers for Kohn-Sham eigenstates.
  | Chemical potential (Fermi level) in eV                 : -.27423517E+01
  | Error in electron count due to remaining E_F inaccuracy: 0.00000000E+00
  | Maximum occupation number of highest empty state:  0.00E+00

  Highest occupied state (VBM) at     -4.10152610 eV
  | Occupation number:      2.00000000

  Lowest unoccupied state (CBM) at    -1.75335958 eV
  | Occupation number:      0.00000000

  Overall HOMO-LUMO gap:      2.34816652 eV.

  Total energy components:
  | Sum of eigenvalues            :        -207.42207455 Ha       -5644.24182434 eV
  | XC energy correction          :         -46.59165725 Ha       -1267.82350001 eV
  | XC potential correction       :          59.56202853 Ha        1620.76525990 eV
  | Free-atom electrostatic energy:        -178.87373170 Ha       -4867.40189023 eV
  | Hartree energy correction     :          -9.42115617 Ha        -256.36270291 eV
  | van der Waals energy corr.    :           0.00000000 Ha           0.00000000 eV
  | Entropy correction            :           0.00000000 Ha           0.00000000 eV
  | ---------------------------
  | Total energy                  :        -382.74659114 Ha      -10415.06465759 eV
  | Total energy, T -> 0          :        -382.74659114 Ha      -10415.06465759 eV  <-- do not rely on this value for anything but (periodic) metals
  | Electronic free energy        :        -382.74659114 Ha      -10415.06465759 eV

  Derived energy quantities:
  | Kinetic energy                :         381.69522493 Ha       10386.45552748 eV
  | Electrostatic energy          :        -717.85015882 Ha      -19533.69668506 eV
  | Energy correction for multipole
  | error in Hartree potential    :          -0.00827283 Ha          -0.22511510 eV
  | Sum of eigenvalues per atom                           :        -376.28278829 eV
  | Total energy (T->0) per atom                          :        -694.33764384 eV  <-- do not rely on this value for anything but (periodic) metals
  | Electronic free energy per atom                       :        -694.33764384 eV

  Self-consistency convergence accuracy:
  | Change of charge density      : 0.1105E-01
  | Change of sum of eigenvalues  : -.4351E+01 eV
  | Change of total energy        : 0.3146E-02 eV

  End self-consistency iteration #     7       :  max(cpu_time)    wall_clock(cpu1)
  | Time for this iteration                    :        1.941 s           1.941 s
  | Charge density update                      :        0.629 s           0.629 s
  | Density mixing                             :        0.012 s           0.012 s
  | Hartree multipole update                   :        0.005 s           0.004 s
  | Hartree multipole summation                :        0.323 s           0.323 s
  | Integration                                :        0.918 s           0.918 s
  | Solution of K.-S. eqns.                    :        0.053 s           0.053 s
  | Total energy evaluation                    :        0.000 s           0.000 s
------------------------------------------------------------

------------------------------------------------------------
          Begin self-consistency iteration #    8

  Date     :  20150727, Time     :  121710.882
------------------------------------------------------------
  Evaluating new KS density.
  Integration grid: deviation in total charge (<rho> - N_e) =  -1.421085E-14
  Pulay mixing of updated and previous charge densities.

  Evaluating partitioned Hartree potential by multipole expansion.
  | Analytical far-field extrapolation by fixed multipoles:
  | Hartree multipole sum: apparent total charge =  -0.877340E-05
  Summing up the Hartree potential.
  Time summed over all CPUs for potential: real work        2.566 s, elapsed        2.575 s
  | RMS charge density error from multipole expansion :   0.178904E-01

  Integrating Hamiltonian matrix: batch-based integration.
  Time summed over all CPUs for integration: real work        7.103 s, elapsed        7.333 s

  Updating Kohn-Sham eigenvalues, eigenvectors, occupation numbers, and Fermi level.
  Solving generalized eigenproblem
  Updating Kohn-Sham eigenvalues and eigenfunctions.
  Solving real generalised eigenvalue problem by standard LAPACK (fast)
  Determining occupation numbers for Kohn-Sham eigenstates.
  | Chemical potential (Fermi level) in eV                 : -.27338493E+01
  | Error in electron count due to remaining E_F inaccuracy: 0.00000000E+00
  | Maximum occupation number of highest empty state:  0.00E+00

  Highest occupied state (VBM) at     -4.06427327 eV
  | Occupation number:      2.00000000

  Lowest unoccupied state (CBM) at    -1.75161920 eV
  | Occupation number:      0.00000000

  Overall HOMO-LUMO gap:      2.31265407 eV.

  Total energy components:
  | Sum of eigenvalues            :        -207.39373489 Ha       -5643.47066287 eV
  | XC energy correction          :         -46.59437385 Ha       -1267.89742229 eV
  | XC potential correction       :          59.56554719 Ha        1620.86100751 eV
  | Free-atom electrostatic energy:        -178.87373170 Ha       -4867.40189023 eV
  | Hartree energy correction     :          -9.45029791 Ha        -257.15568998 eV
  | van der Waals energy corr.    :           0.00000000 Ha           0.00000000 eV
  | Entropy correction            :           0.00000000 Ha           0.00000000 eV
  | ---------------------------
  | Total energy                  :        -382.74659115 Ha      -10415.06465787 eV
  | Total energy, T -> 0          :        -382.74659115 Ha      -10415.06465787 eV  <-- do not rely on this value for anything but (periodic) metals
  | Electronic free energy        :        -382.74659115 Ha      -10415.06465787 eV

  Derived energy quantities:
  | Kinetic energy                :         381.69650329 Ha       10386.49031327 eV
  | Electrostatic energy          :        -717.84872059 Ha      -19533.65754885 eV
  | Energy correction for multipole
  | error in Hartree potential    :          -0.00833915 Ha          -0.22691974 eV
  | Sum of eigenvalues per atom                           :        -376.23137752 eV
  | Total energy (T->0) per atom                          :        -694.33764386 eV  <-- do not rely on this value for anything but (periodic) metals
  | Electronic free energy per atom                       :        -694.33764386 eV

  Self-consistency convergence accuracy:
  | Change of charge density      : 0.2257E-02
  | Change of sum of eigenvalues  : 0.7712E+00 eV
  | Change of total energy        : -.2821E-06 eV

  End self-consistency iteration #     8       :  max(cpu_time)    wall_clock(cpu1)
  | Time for this iteration                    :        1.942 s           1.942 s
  | Charge density update                      :        0.628 s           0.628 s
  | Density mixing                             :        0.014 s           0.014 s
  | Hartree multipole update                   :        0.005 s           0.005 s
  | Hartree multipole summation                :        0.323 s           0.323 s
  | Integration                                :        0.918 s           0.918 s
  | Solution of K.-S. eqns.                    :        0.054 s           0.053 s
  | Total energy evaluation                    :        0.000 s           0.000 s
------------------------------------------------------------

------------------------------------------------------------
          Begin self-consistency iteration #    9

  Date     :  20150727, Time     :  121712.824
------------------------------------------------------------
  Evaluating new KS density.
  Integration grid: deviation in total charge (<rho> - N_e) =  -2.131628E-14
  Pulay mixing of updated and previous charge densities.

  Evaluating partitioned Hartree potential by multipole expansion.
  | Analytical far-field extrapolation by fixed multipoles:
  | Hartree multipole sum: apparent total charge =  -0.876282E-05
  Summing up the Hartree potential.
  Time summed over all CPUs for potential: real work        2.566 s, elapsed        2.575 s
  | RMS charge density error from multipole expansion :   0.178702E-01

  Integrating Hamiltonian matrix: batch-based integration.
  Time summed over all CPUs for integration: real work        7.107 s, elapsed        7.320 s

  Updating Kohn-Sham eigenvalues, eigenvectors, occupation numbers, and Fermi level.
  Solving generalized eigenproblem
  Updating Kohn-Sham eigenvalues and eigenfunctions.
  Solving real generalised eigenvalue problem by standard LAPACK (fast)
  Determining occupation numbers for Kohn-Sham eigenstates.
  | Chemical potential (Fermi level) in eV                 : -.27358485E+01
  | Error in electron count due to remaining E_F inaccuracy: 0.00000000E+00
  | Maximum occupation number of highest empty state:  0.00E+00

  Highest occupied state (VBM) at     -4.07011023 eV
  | Occupation number:      2.00000000

  Lowest unoccupied state (CBM) at    -1.75263837 eV
  | Occupation number:      0.00000000

  Overall HOMO-LUMO gap:      2.31747186 eV.

  Total energy components:
  | Sum of eigenvalues            :        -207.39865830 Ha       -5643.60463571 eV
  | XC energy correction          :         -46.59366829 Ha       -1267.87822300 eV
  | XC potential correction       :          59.56461984 Ha        1620.83577298 eV
  | Free-atom electrostatic energy:        -178.87373170 Ha       -4867.40189023 eV
  | Hartree energy correction     :          -9.44515000 Ha        -257.01560831 eV
  | van der Waals energy corr.    :           0.00000000 Ha           0.00000000 eV
  | Entropy correction            :           0.00000000 Ha           0.00000000 eV
  | ---------------------------
  | Total energy                  :        -382.74658845 Ha      -10415.06458428 eV
  | Total energy, T -> 0          :        -382.74658845 Ha      -10415.06458428 eV  <-- do not rely on this value for anything but (periodic) metals
  | Electronic free energy        :        -382.74658845 Ha      -10415.06458428 eV

  Derived energy quantities:
  | Kinetic energy                :         381.70294731 Ha       10386.66566397 eV
  | Electrostatic energy          :        -717.85586747 Ha      -19533.85202525 eV
  | Energy correction for multipole
[...]
   ----------------------------------------------------------------
   Total forces(   4)            : 0.348447E-01 0.120336E+01 0.254264E+01
  atom #    5
   Hellmann-Feynman + Multipole  : -.390540E+00 -.771400E+00 -.483724E+00
   Pulay + GGA                   : 0.422089E-01 0.122951E+00 0.373898E-01
   Van der Waals               : 0.403058E-02 0.586891E-03 0.305578E-02
   ----------------------------------------------------------------
   Total forces(   5)            : -.344300E+00 -.647863E+00 -.443278E+00
  atom #    6
   Hellmann-Feynman + Multipole  : -.219037E+00 0.401066E+00 -.231592E+01
   Pulay + GGA                   : -.419891E-01 0.454181E-01 -.127302E+00
   Van der Waals               : 0.126255E-02 -.107085E-03 0.625580E-03
   ----------------------------------------------------------------
   Total forces(   6)            : -.259764E+00 0.446377E+00 -.244260E+01
  atom #    7
   Hellmann-Feynman + Multipole  : -.595648E+01 0.104858E+01 -.952295E+01
   Pulay + GGA                   : 0.905221E+01 -.121727E+01 0.105700E+02
   Van der Waals               : 0.510052E-03 0.214769E-02 0.858275E-03
   ----------------------------------------------------------------
   Total forces(   7)            : 0.309624E+01 -.166543E+00 0.104795E+01
  atom #    8
   Hellmann-Feynman + Multipole  : -.362631E+00 -.401783E+00 -.775878E+00
   Pulay + GGA                   : 0.516496E-01 0.478315E-01 0.679567E-01
   Van der Waals               : -.105528E-02 0.981830E-03 0.146900E-03
   ----------------------------------------------------------------
   Total forces(   8)            : -.312037E+00 -.352969E+00 -.707774E+00
  atom #    9
   Hellmann-Feynman + Multipole  : -.173422E+01 0.101649E+01 -.387248E+00
   Pulay + GGA                   : 0.123531E+00 -.505789E-01 0.221477E-01
   Van der Waals               : -.211482E-02 0.336269E-02 0.230662E-02
   ----------------------------------------------------------------
   Total forces(   9)            : -.161280E+01 0.969271E+00 -.362794E+00
  atom #   10
   Hellmann-Feynman + Multipole  : 0.390868E+01 -.926594E+01 -.913038E+01
   Pulay + GGA                   : -.547381E+01 0.107785E+02 0.109409E+02
   Van der Waals               : 0.155550E-02 -.223674E-02 -.745773E-02
   ----------------------------------------------------------------
   Total forces(  10)            : -.156357E+01 0.151037E+01 0.180310E+01
  atom #   11
   Hellmann-Feynman + Multipole  : -.446521E+00 0.271752E+00 -.224995E+01
   Pulay + GGA                   : 0.892408E-02 0.541850E-02 0.130660E+00
   Van der Waals               : 0.103132E-02 0.207465E-03 -.177183E-02
   ----------------------------------------------------------------
   Total forces(  11)            : -.436566E+00 0.277378E+00 -.212107E+01
  atom #   12
   Hellmann-Feynman + Multipole  : 0.181102E+01 -.196519E+01 0.596152E+00
   Pulay + GGA                   : -.918325E-01 0.985216E-01 -.888012E-02
   Van der Waals               : -.831327E-03 -.715050E-03 -.163478E-02
   ----------------------------------------------------------------
   Total forces(  12)            : 0.171836E+01 -.186739E+01 0.585637E+00
  atom #   13
   Hellmann-Feynman + Multipole  : -.286400E+01 -.144477E+01 -.142978E+02
   Pulay + GGA                   : 0.442340E+01 0.222880E+01 0.122845E+02
   Van der Waals               : -.289462E-02 -.249779E-02 -.387840E-02
   ----------------------------------------------------------------
   Total forces(  13)            : 0.155650E+01 0.781532E+00 -.201715E+01
  atom #   14
   Hellmann-Feynman + Multipole  : -.468636E+00 -.267477E+00 0.168980E+00
   Pulay + GGA                   : 0.847734E-01 0.714654E-01 0.564011E-01
   Van der Waals               : -.367849E-02 -.298605E-02 -.572416E-04
   ----------------------------------------------------------------
   Total forces(  14)            : -.387541E+00 -.198998E+00 0.225324E+00
  atom #   15
   Hellmann-Feynman + Multipole  : -.800420E+00 -.477820E+00 0.154474E+01
   Pulay + GGA                   : -.427834E-01 -.373363E-02 0.682849E-01
   Van der Waals               : -.352270E-03 -.259628E-02 -.666008E-02
   ----------------------------------------------------------------
   Total forces(  15)            : -.843555E+00 -.484150E+00 0.160637E+01
  Timings for vdw_correction_hirshfeld (Tkatchenko-Scheffler 2009):
  | CPU time:        5.270 s, Wall clock time:        5.270 s.
  Removing unitary transformations (pure translations, rotations) from forces on atoms.
  Atomic forces before filtering:
  | Net force on center of mass :  0.414955E-02 -.137257E-03 0.717845E-02 eV/A
  | Net torque on center of mass:  -.924018E-03 0.218849E-02 0.107531E-02 eV
  Atomic forces after filtering:
  | Net force on center of mass :  -.178406E-15 0.267609E-15 0.107044E-14 eV/A
  | Net torque on center of mass:  0.283225E-14 0.151054E-14 0.169935E-14 eV
 
  Energy and forces in a compact form:
  | Total energy uncorrected      :         -0.104151253062964E+05 eV
  | Total energy corrected        :         -0.104151253062964E+05 eV  <-- do not rely on this value for anything but (periodic) metals
  | Electronic free energy        :         -0.104151253062964E+05 eV
  Total atomic forces (unitary forces cleaned) [eV/Ang]:
  |   1         -0.837360066209307E+00          0.244081283481237E+01         -0.895429543258725E+00
  |   2          0.198276376395624E+01         -0.338700741789660E+01          0.138260078031037E+01
  |   3         -0.178788565736263E+01         -0.524197171759183E+00         -0.197885209992319E+00
  |   4          0.346346119450485E-01          0.120343995831502E+01          0.254210747547571E+01
  |   5         -0.344500410585351E+00         -0.647794671859498E+00         -0.443788622387940E+00
  |   6         -0.259943382066299E+00          0.446475450518215E+00         -0.244313526844885E+01
  |   7          0.309597139845379E+01         -0.166562966164176E+00          0.104750436063720E+01
  |   8         -0.312312129404018E+00         -0.353000782792193E+00         -0.708206111911222E+00
  |   9         -0.161309116890219E+01          0.969228616082022E+00         -0.363218297990264E+00
  |  10         -0.156391859674643E+01          0.151036347495004E+01          0.180260496067589E+01
  |  11         -0.436945218496100E+00          0.277355241471325E+00         -0.212155507384336E+01
  |  12          0.171803266304523E+01         -0.186737501276201E+01          0.585132008016755E+00
  |  13          0.155622551954725E+01          0.781497001433532E+00         -0.201757338394265E+01
  |  14         -0.387812751434628E+00         -0.199055981658230E+00          0.224924324850084E+00
  |  15         -0.843858575740607E+00         -0.484178572690642E+00          0.160591760180931E+01
 
  ------------------------------------ 
  Start decomposition of the XC Energy 
  ------------------------------------ 
  Hartree-Fock part   :          0.000000000 Ha              0.000000000 eV
  ------------------------------------ 
  X Energy            :        -44.952495033 Ha          -1223.219626590 eV
  C Energy GGA        :         -1.640748446 Ha            -44.647036819 eV
  Total XC Energy     :        -46.593243479 Ha          -1267.866663409 eV
  LDA X and C from self-consistent density 
  X Energy LDA        :        -40.522370324 Ha          -1102.669799732 eV
  C Energy LDA        :         -3.300882338 Ha            -89.821578486 eV
  ------------------------------------ 
  End decomposition of the XC Energy 
  ------------------------------------ 
  Performing Hirshfeld analysis of fragment charges and moments.
  ----------------------------------------------------------------------
  | Atom     1: O
  |   Hirshfeld charge        :     -0.43475145
  |   Free atom volume        :     23.95238533
  |   Hirshfeld volume        :     25.50125658
  |   Hirshfeld dipole vector :      0.04502700       0.08078876      -0.01986631
  |   Hirshfeld dipole moment :      0.09459876
  |   Hirshfeld second moments:     -0.03001631      -0.03051651       0.02903462
  |                                 -0.03051651      -0.09339337      -0.02171664
  |                                  0.02903462      -0.02171664      -0.13674704
  ----------------------------------------------------------------------
  | Atom     2: H
  |   Hirshfeld charge        :      0.05284683
  |   Free atom volume        :     10.44207651
  |   Hirshfeld volume        :      8.90027078
  |   Hirshfeld dipole vector :     -0.01944513       0.04724431      -0.01996845
  |   Hirshfeld dipole moment :      0.05485323
  |   Hirshfeld second moments:      0.06165852       0.02500785       0.00238706
  |                                  0.02500785       0.01647149       0.01440792
  |                                  0.00238706       0.01440792       0.04961371
  ----------------------------------------------------------------------
  | Atom     3: H
  |   Hirshfeld charge        :      0.03976010
  |   Free atom volume        :     10.44207651
  |   Hirshfeld volume        :      9.18968796
  |   Hirshfeld dipole vector :      0.05000949       0.01646278       0.00681611
  |   Hirshfeld dipole moment :      0.05308891
  |   Hirshfeld second moments:      0.01042262      -0.03150398       0.00613630
  |                                 -0.03150398       0.05637514      -0.00495902
  |                                  0.00613630      -0.00495902       0.04067621
  ----------------------------------------------------------------------
  | Atom     4: O
  |   Hirshfeld charge        :     -0.17661600
  |   Free atom volume        :     23.95238533
  |   Hirshfeld volume        :     20.03375649
  |   Hirshfeld dipole vector :      0.03464508      -0.01057611      -0.01763457
  |   Hirshfeld dipole moment :      0.04028789
  |   Hirshfeld second moments:      0.04719299       0.02061802       0.02891511
  |                                  0.02061802       0.09102320       0.01394119
  |                                  0.02891511       0.01394119       0.10903598
  ----------------------------------------------------------------------
  | Atom     5: H
  |   Hirshfeld charge        :      0.17797437
  |   Free atom volume        :     10.44207651
  |   Hirshfeld volume        :      6.07560344
  |   Hirshfeld dipole vector :      0.05626641       0.08983219       0.04252253
  |   Hirshfeld dipole moment :      0.11420988
  |   Hirshfeld second moments:      0.10914761      -0.00323102      -0.00215272
  |                                 -0.00323102       0.12335080      -0.00354253
  |                                 -0.00215272      -0.00354253       0.14165246
  ----------------------------------------------------------------------
  | Atom     6: H
  |   Hirshfeld charge        :      0.17228699
  |   Free atom volume        :     10.44207651
  |   Hirshfeld volume        :      5.73050782
  |   Hirshfeld dipole vector :     -0.01644346       0.00775231      -0.12025557
  |   Hirshfeld dipole moment :      0.12162191
  |   Hirshfeld second moments:      0.12574140       0.01146748       0.00850434
  |                                  0.01146748       0.13959015       0.00489517
  |                                  0.00850434       0.00489517       0.12899063
  ----------------------------------------------------------------------
  | Atom     7: O
  |   Hirshfeld charge        :     -0.21741759
  |   Free atom volume        :     23.95238533
  |   Hirshfeld volume        :     21.23729805
  |   Hirshfeld dipole vector :     -0.02127392      -0.02656692       0.03473300
  |   Hirshfeld dipole moment :      0.04862882
  |   Hirshfeld second moments:      0.06105156      -0.02734311       0.00873921
  |                                 -0.02734311       0.05644459       0.02990622
  |                                  0.00873921       0.02990622       0.02121444
  ----------------------------------------------------------------------
  | Atom     8: H
  |   Hirshfeld charge        :      0.10435907
  |   Free atom volume        :     10.44207651
  |   Hirshfeld volume        :      7.63501983
  |   Hirshfeld dipole vector :      0.01124376       0.02062800       0.04530785
  |   Hirshfeld dipole moment :      0.05103663
  |   Hirshfeld second moments:      0.10357299      -0.00083029       0.00973719
  |                                 -0.00083029       0.06801534      -0.02552360
  |                                  0.00973719      -0.02552360       0.05695531
  ----------------------------------------------------------------------
  | Atom     9: H
  |   Hirshfeld charge        :      0.15276425
  |   Free atom volume        :     10.44207651
  |   Hirshfeld volume        :      6.20570019
  |   Hirshfeld dipole vector :      0.08868927      -0.07697436       0.01410570
  |   Hirshfeld dipole moment :      0.11827852
  |   Hirshfeld second moments:      0.11607710       0.00073140       0.00085381
  |                                  0.00073140       0.11837842       0.01396558
  |                                  0.00085381       0.01396558       0.11859196
  ----------------------------------------------------------------------
  | Atom    10: O
  |   Hirshfeld charge        :     -0.20379210
  |   Free atom volume        :     23.95238533
  |   Hirshfeld volume        :     20.61706536
  |   Hirshfeld dipole vector :      0.01170379       0.02586386       0.00409178
  |   Hirshfeld dipole moment :      0.02868206
  |   Hirshfeld second moments:      0.06079827      -0.03841483       0.00788066
  |                                 -0.03841483       0.03011839      -0.02559705
  |                                  0.00788066      -0.02559705       0.08522364
  ----------------------------------------------------------------------
  | Atom    11: H
  |   Hirshfeld charge        :      0.16899742
  |   Free atom volume        :     10.44207651
  |   Hirshfeld volume        :      5.69269867
  |   Hirshfeld dipole vector :      0.02290786      -0.01478925       0.11909011
  |   Hirshfeld dipole moment :      0.12217179
  |   Hirshfeld second moments:      0.13510742      -0.01420292      -0.00165178
  |                                 -0.01420292       0.12867304      -0.00574288
  |                                 -0.00165178      -0.00574288       0.12236428
  ----------------------------------------------------------------------
  | Atom    12: H
  |   Hirshfeld charge        :      0.17247184
  |   Free atom volume        :     10.44207651
  |   Hirshfeld volume        :      5.95284167
  |   Hirshfeld dipole vector :     -0.08391856       0.08350287      -0.02437319
  |   Hirshfeld dipole moment :      0.12086814
  |   Hirshfeld second moments:      0.12324458      -0.00397120       0.00144806
  |                                 -0.00397120       0.11163555      -0.00207865
  |                                  0.00144806      -0.00207865       0.13949301
  ----------------------------------------------------------------------
  | Atom    13: O
  |   Hirshfeld charge        :     -0.25742286
  |   Free atom volume        :     23.95238533
  |   Hirshfeld volume        :     20.90994180
  |   Hirshfeld dipole vector :      0.01489815      -0.02459839       0.02440015
  |   Hirshfeld dipole moment :      0.03771476
  |   Hirshfeld second moments:      0.06722027       0.03894690      -0.00850710
  |                                  0.03894690       0.03801126       0.01828538
  |                                 -0.00850710       0.01828538       0.04248635
  ----------------------------------------------------------------------
  | Atom    14: H
  |   Hirshfeld charge        :      0.15358758
  |   Free atom volume        :     10.44207651
  |   Hirshfeld volume        :      6.01466547
  |   Hirshfeld dipole vector :      0.09947379       0.06183791       0.03492644
  |   Hirshfeld dipole moment :      0.12222446
  |   Hirshfeld second moments:      0.11945931       0.00811903      -0.01072875
  |                                  0.00811903       0.11701196       0.00015610
  |                                 -0.01072875       0.00015610       0.12602152
  ----------------------------------------------------------------------
  | Atom    15: H
  |   Hirshfeld charge        :      0.09498168
  |   Free atom volume        :     10.44207651
  |   Hirshfeld volume        :      7.46120306
  |   Hirshfeld dipole vector :     -0.02075631      -0.01883279       0.03387790
  |   Hirshfeld dipole moment :      0.04396829
  |   Hirshfeld second moments:      0.07695049      -0.00916562       0.03264865
  |                                 -0.00916562       0.08499110       0.01662296
  |                                  0.03264865       0.01662296       0.07160555
  ----------------------------------------------------------------------


------------------------------------------------------------------------------
  Final output of selected total energy values:

  The following output summarizes some interesting total energy values
  at the end of a run (AFTER all relaxation, molecular dynamics, etc.).

  | Total energy of the DFT / Hartree-Fock s.c.f. calculation      :         -10415.125306296 eV
  | Final zero-broadening corrected energy (caution - metals only) :         -10415.125306296 eV
  | For reference only, the value of 1 Hartree used in FHI-aims is :             27.211384500 eV

  Before relying on these values, please be sure to understand exactly which
  total energy value is referred to by a given number. Different objects may
  all carry the same name 'total energy'. Definitions:

  Total energy of the DFT / Hartree-Fock s.c.f. calculation:
  | Note that this energy does not include ANY quantities calculated after the
  | s.c.f. cycle, in particular not ANY RPA, MP2, etc. many-body perturbation terms.

  Final zero-broadening corrected energy:
  | For metallic systems only, a broadening of the occupation numbers at the Fermi
  | level can be extrapolated back to zero broadening by an electron-gas inspired
  | formula. For all systems that are not real metals, this value can be
  | meaningless and should be avoided.

------------------------------------------------------------------------------

------------------------------------------------------------
          Leaving FHI-aims.
          Date     :  20150727, Time     :  121730.440

          Computational steps:
          | Number of self-consistency cycles          :           15

          Detailed time accounting                     :  max(cpu_time)    wall_clock(cpu1)
          | Total time                                 :       35.596 s          35.620 s
          | Preparation time                           :        0.173 s           0.490 s
          | Grid partitioning                          :        0.141 s           0.140 s
          | Preloading free-atom quantities on grid    :        0.013 s           0.013 s
          | Free-atom superposition energy             :        0.066 s           0.066 s
          | Total time for integrations                :       15.184 s          15.186 s
          | Total time for solution of K.-S. equations :        1.000 s           1.001 s
          | Total time for density & force components  :       12.230 s          12.229 s
          | Total time for mixing                      :        0.188 s           0.190 s
          | Total time for Hartree multipole update    :        0.074 s           0.072 s
          | Total time for Hartree multipole sum       :        5.924 s           5.922 s
          | Total time for total energy evaluation     :        0.004 s           0.004 s
          | Total time for scaled ZORA corrections     :        0.000 s           0.000 s
          | Total time for TS (2009) vdW correction    :        0.052 s           0.052 s

          Have a nice day.
------------------------------------------------------------
