  MPI-parallelism will be employed.
------------------------------------------------------------
          Invoking FHI-aims ...
          Version 081213
          Compiled on 2013/08/29 at 17:41:06 on host generoso.

          When using FHI-aims, please cite the following reference:

          Volker Blum, Ralf Gehrke, Felix Hanke, Paula Havu,
          Ville Havu, Xinguo Ren, Karsten Reuter, and Matthias Scheffler,
          'Ab Initio Molecular Simulations with Numeric Atom-Centered Orbitals: FHI-aims',
          Computer Physics Communications 180, 2175-2196 (2009)

          For any questions about FHI-aims, please visit the aimsclub website
          with its forums and wiki. Contributions to both the forums and the
          wiki are warmly encouraged - they are for you, and everyone is welcome there.

------------------------------------------------------------

  Date     :  20150727, Time     :  114907.644
  Time zero on CPU 1             :   0.419920000000000E-01  s.
  Internal wall clock time zero  :           207229747.644  s.

  Using        8 parallel tasks.
  Task        0 on host gen60 reporting.
  Task        1 on host gen60 reporting.
  Task        2 on host gen60 reporting.
  Task        3 on host gen60 reporting.
  Task        4 on host gen60 reporting.
  Task        5 on host gen60 reporting.
  Task        6 on host gen60 reporting.
  Task        7 on host gen60 reporting.

  Performing system and environment tests:
  | Environment variable OMP_NUM_THREADS correctly set to 1.
  | Checking for scalapack...
  | No scalapack compiled in.

  Obtaining array dimensions for all initial allocations:
  
  -----------------------------------------------------------------------
  Parsing control.in (first pass over file, find array dimensions only).
  The contents of control.in will be repeated verbatim below
  unless switched off by setting 'verbatim_writeout .false.' .
  in the first line of control.in .
  -----------------------------------------------------------------------
  
  #########################################################################################
  #
  #  Volker Blum, FHI 2008 : Test run input file control.in
  #
  #########################################################################################
  #
  #  Physical model
  #
    xc                 rpbe
    spin               none
    relativistic       atomic_zora scalar
    charge             0.
   vdw_correction_hirshfeld
  #
  #  SCF convergence
  #
    occupation_type    gaussian 0.01
    mixer              pulay
      n_max_pulay        10
      charge_mix_param   0.1
    sc_accuracy_rho    5E-5
    sc_accuracy_eev    5E-3
    sc_accuracy_etot   5E-6
    sc_iter_limit      3000
  #
  #  Eigenvalue solver
  #
    KS_method          lapack
      empty_states       8
      basis_threshold    0.e-5
  #
  #  Efficiency
  #
  #   all previous settings are now default, except stratmann still
  #   undecided. Continue to handle stratmann with care, if at all.
  #
  #  partition_type stratmann
    partition_type rho_r2
  #  hartree_partition_type stratmann
  #
  #  Oprions for large clusters (100's of atoms: memory saving / better scaling)
  #
  # for periodic systems:
  #
    density_update_method orbital
    packed_matrix_format none
  #  k_grid 6 6 6
  #  output k_eigenvalue 1
  #  distributed_spline_storage .true.
  #
  #  Relaxation
  #
  #  relax_geometry   bfgs 5.e-3
    sc_accuracy_forces 5.E-4
    final_forces_cleaned .true.
  #
  #  Output options
  #
  #  output mulliken
    output Hirshfeld
  #  output dipole
  
  #harmonic_length_scale 0.001
  
  ################################################################################
  #
  #  FHI-aims code project
  #  VB, Fritz-Haber Institut, 2007
  #
  #  Suggested "safe" defaults for H atom (to be pasted into control.in file)
  #  Basis constructed for a non-relativistic H2 molecule using the
  #  PW-LDA functional.
  #
  ################################################################################
    species        H
  #     global species definitions
      nucleus             1
      cut_pot             4.0  2.0  1.0
      cut_free_atom       finite 8.0
      logarithmic         0.00010000 100.00  1.0123
      basis_dep_cutoff    1d-4  # 1d-4 is safe default - please check 5d-4 if you wish!
      radial_base         24 7.0
      radial_multiplier   2
      angular_grids       specified
        division   0.2783  110
        division   0.3822  194
        division   0.5626  302
  #      division   0.5922  434
  #      division   0.6227  590
  #      division   0.7206  770
        outer_grid  302
      l_hartree           4
  ################################################################################
  #
  #  Definition of "minimal" basis
  #
  ################################################################################
  #     valence basis states
      valence      1  s   1.
  #     ion occupancy
      ion_occ      1  s   0.5
  ################################################################################
  #
  #  Suggested additional basis functions. For production calculations,
  #  uncomment them one after another (the most important basis functions are
  #  listed first).
  #
  ################################################################################
  #  "First tier" - improvements: -1014.90 meV to -62.69 meV
       hydro 2 s 2.1
       hydro 2 p 3.5
  #  "Second tier" - improvements: -12.89 meV to -1.83 meV
       hydro 1 s 0.85
       hydro 2 p 3.7
       hydro 2 s 1.2
       hydro 3 d 7
  #  "Third tier" - improvements: -0.25 meV to -0.12 meV
  #     hydro 4 f 11.2
  #     hydro 3 p 4.8
  #     hydro 4 d 9
  #     hydro 3 s 3.2
  
  ################################################################################
  #
  #  FHI-aims code project
  #  VB, Fritz-Haber Institut, 2007
  #
  #  Suggested "safe" defaults for O atom (to be pasted into control.in file)
  #  All values have been tested for a non-relativistic, non-spinpolarized O2
  #  molecule using the PW-LDA functional. Validity for PBE is expected.
  #
  #  Constructed for dimers: 1.0 A, 1.208 A, 1.5 A, 2.0 A, 3.0 A
  #
  ################################################################################
    species        O
  #     global species definitions
      nucleus             8
      mass                15.9994
      l_hartree           4
      cut_pot             4.0  2.0  1.0
      cut_free_atom       finite 8.0
      basis_dep_cutoff    1d-4  # 1d-4 is safe default - please check 5d-4 if you wish!
      logarithmic         0.00010000 100.00  1.0123
      radial_base         36 7.0
      radial_multiplier   2
       angular_grids specified
        division   0.4087  110
        division   0.5181  194
        division   0.6184  302
  #      division   0.7315  434
  #      division   0.7934  590
  #      division   0.9656  770
  #      division   1.4041  974
  #      outer_grid 974
        outer_grid 302
  ################################################################################
  #
  #  Definition of "minimal" basis
  #
  ################################################################################
  #     valence basis states
      valence      2  s   2.
      valence      2  p   4.
  #     ion occupancy
      ion_occ      2  s   1.
      ion_occ      2  p   3.
  ################################################################################
  #
  #  Suggested additional basis functions. For production calculations,
  #  uncomment them one after another (the most important basis functions are
  #  listed first).
  #
  ################################################################################
  #  "First tier" - improvements: -699.05 meV to -159.38 meV
       hydro 2 p 1.8
       hydro 3 d 7.6
       hydro 3 s 6.4
  #  "Second tier" - improvements: -49.91 meV to -5.39 meV
       hydro 4 f 11.6
       hydro 3 p 6.2
       hydro 3 d 5.6
       hydro 5 g 17.6
       hydro 1 s 0.75
  #  "Third tier" - improvements: -2.83 meV to -0.50 meV
  #     ionic 2 p auto
  #     hydro 4 f 10.8
  #     hydro 4 d 4.7
  #     hydro 2 s 6.8
  #  "Fourth tier" - improvements: -0.40 meV to -0.12 meV
  #     hydro 3 p 5
  #     hydro 3 s 3.3
  #     hydro 5 g 15.6
  #     hydro 4 f 17.6
  #     hydro 4 d 14
  # Further basis functions - -0.08 meV and below
  #     hydro 3 s 2.1
  #     hydro 4 d 11.6
  #     hydro 3 p 16
  #     hydro 2 s 17.2
  
  
  -----------------------------------------------------------------------
  Completed first pass over input file control.in .
  -----------------------------------------------------------------------
  
  
  -----------------------------------------------------------------------
  Parsing geometry.in (first pass over file, find array dimensions only).
  The contents of geometry.in will be repeated verbatim below
  unless switched off by setting 'verbatim_writeout .false.' .
  in the first line of geometry.in .
  -----------------------------------------------------------------------
  
  atom      -4.053030000      0.065001000     -1.525160000  O
  atom      -4.566710000      0.974813000     -1.912820000  H
  atom      -3.067820000      0.330172000     -1.477310000  H
  atom      -4.581760000     -0.256435000      0.939478000  O
  atom      -4.349860000      0.471090000      1.504340000  H
  atom      -5.393870000     -0.726611000      1.228070000  H
  atom      -5.293160000      2.192130000     -2.328800000  O
  atom      -4.829300000      2.988660000     -1.973850000  H
  atom      -5.428570000      2.328640000     -3.235170000  H
  atom      -3.818880000      2.024990000      2.187990000  O
  atom      -3.690880000      1.961360000      3.202150000  H
  atom      -4.546490000      2.751300000      2.045370000  H
  atom      -1.975360000      2.858040000      0.453140000  O
  atom      -1.223550000      3.375850000      0.786238000  H
  atom      -2.537520000      2.567960000      1.156120000  H
  
  -----------------------------------------------------------------------
  Completed first pass over input file geometry.in .
  -----------------------------------------------------------------------
  
 
  Basic array size parameters: 
  | Number of species                 :        2
  | Number of atoms                   :       15
  | Max. basis fn. angular momentum   :        4
  | Max. atomic/ionic basis occupied n:        2
  | Max. number of basis fn. types    :        2
  | Max. radial fns per species/type  :        8
  | Max. logarithmic grid size        :     1301
  | Max. radial integration grid size :       73
  | Max. angular integration grid size:      302
  | Max. angular grid division number :        8
  | Radial grid for Hartree potential :     1301
  | Number of spin channels           :        1

------------------------------------------------------------
          Reading file control.in.
------------------------------------------------------------
  XC: Using RPBE gradient-corrected functionals.
  Spin treatment: No spin polarisation.
  Scalar relativistic treatment of kinetic energy: on-site free-atom approximation to ZORA.
  Charge =   0.000000E+00: Neutral system requested explicitly.
  Using non-empirical van der Waals correction (Hirshfeld partitioning):
  Occupation type: Gaussian broadening, width =   0.100000E-01 eV.
  Using pulay charge density mixing.
  Pulay mixing - number of memorized iterations:   10
  Charge density mixing - mixing parameter:     0.1000
  Convergence accuracy of self-consistent charge density: 0.5000E-04
  Convergence accuracy of sum of eigenvalues: 0.5000E-02
  Convergence accuracy of total energy: 0.5000E-05
  Maximum number of s.-c. iterations  :  3000
  Kohn-Sham eigenvalues and eigenfunctions calculated by lapack diagonalisation (D&C).
  Number of empty states per atom:        8
  Threshold for basis singularities: 0.0000E+00
  Partition function in integrals calculations: rho / r^2
 Using packed matrix format           0
  Convergence accuracy of forces: 0.5000E-03
  Cleaning forces before final output.
  Hirshfeld charge analysis will be performed.
 
  Reading configuration options for species H                   .
  | Found nuclear charge :   1.0000
  | Found cutoff potl. onset [A], width [A], scale factor :    4.00000    2.00000    1.00000
  | Found cutoff specification for free atom: Cutoff potential begins at    8.00000 A.
  | Found logarithmic grid data [bohr] : 0.1000E-03 0.1000E+03 0.1012E+01
  | Threshold for basis-dependent cutoff potential is   0.100000E-03
  | Found data for basic radial integration grid :    24 points, outermost radius =    7.000 A
  | Found multiplier for basic radial grid :   2
  | Found angular grid specification: user-specified.
  | Specified grid contains     4 separate shells.
  | Check grid settings after all constraints further below.
  | Found l_max for Hartree potential  :   4
  | Found free-atom valence shell :  1 s   1.000
  | No ionic wave fns used. Skipping ion_occ.
  | Found hydrogenic basis function :  2 s   2.100
  | Found hydrogenic basis function :  2 p   3.500
  | Found hydrogenic basis function :  1 s   0.850
  | Found hydrogenic basis function :  2 p   3.700
  | Found hydrogenic basis function :  2 s   1.200
  | Found hydrogenic basis function :  3 d   7.000
  Species H                   : Missing cutoff potential type.
  Defaulting to exp(1/x)/(1-x)^2 type cutoff potential.
  Species H : On-site basis accuracy parameter (for Gram-Schmidt orthonormalisation) not specified.
  Using default value basis_acc =  0.1000000E-03.
  Species H                   : Using default innermost maximum threshold i_radial=  2 for radial functions.
  Species H                   : Basic radial grid will be enhanced according to radial_multiplier =   2, to contain    49 grid points.
 
  Reading configuration options for species O                   .
  | Found nuclear charge :   8.0000
  | Found atomic mass :    15.9994000000000      amu
  | Found l_max for Hartree potential  :   4
  | Found cutoff potl. onset [A], width [A], scale factor :    4.00000    2.00000    1.00000
  | Found cutoff specification for free atom: Cutoff potential begins at    8.00000 A.
  | Threshold for basis-dependent cutoff potential is   0.100000E-03
  | Found logarithmic grid data [bohr] : 0.1000E-03 0.1000E+03 0.1012E+01
  | Found data for basic radial integration grid :    36 points, outermost radius =    7.000 A
  | Found multiplier for basic radial grid :   2
  | Found angular grid specification: user-specified.
  | Specified grid contains     4 separate shells.
  | Check grid settings after all constraints further below.
  | Found free-atom valence shell :  2 s   2.000
  | Found free-atom valence shell :  2 p   4.000
  | No ionic wave fns used. Skipping ion_occ.
  | No ionic wave fns used. Skipping ion_occ.
  | Found hydrogenic basis function :  2 p   1.800
  | Found hydrogenic basis function :  3 d   7.600
  | Found hydrogenic basis function :  3 s   6.400
  | Found hydrogenic basis function :  4 f  11.600
  | Found hydrogenic basis function :  3 p   6.200
  | Found hydrogenic basis function :  3 d   5.600
  | Found hydrogenic basis function :  5 g  17.600
  | Found hydrogenic basis function :  1 s   0.750
  Species O                   : Missing cutoff potential type.
  Defaulting to exp(1/x)/(1-x)^2 type cutoff potential.
  Species O : On-site basis accuracy parameter (for Gram-Schmidt orthonormalisation) not specified.
  Using default value basis_acc =  0.1000000E-03.
  Species O                   : Using default innermost maximum threshold i_radial=  2 for radial functions.
  Species O                   : Basic radial grid will be enhanced according to radial_multiplier =   2, to contain    73 grid points.
 
  Finished reading input file 'control.in'. Consistency checks are next.
 
  Target number of points in a grid batch is not set. Defaulting to  100
  Method for grid partitioning is not set. Defaulting to parallel hash+maxmin partitioning.
  Batch size limit is not set. Defaulting to    200
  By default, will store active basis functions for each batch.
  If in need of memory, prune_basis_once .false. can be used to disable this option.
  communication_type for Hartree potential was not specified.
  Defaulting to calc_hartree .
  Pulay mixer: Number of initial linear mixing iterations not set.
  Defaulting to    0 iterations.
  Work space size for distributed Hartree potential not set.
  Defaulting to   0.200000E+03 MB.
  Algorithm-dependent basis array size parameters:
  | n_max_pulay                         :       10
  Geometry relaxation not requested: no relaxation will be performed.
  Handling of forces: Unphysical translation and rotation will be removed from forces.
  No accuracy limit for integral partition fn. given. Defaulting to 0.1000E-14.
  No threshold value for u(r) in integrations given. Defaulting to 0.1000E-05.
  No accuracy for occupation numbers given. Defaulting to 0.1000E-07.
  No threshold value for occupation numbers given. Defaulting to 0.0000E+00.
  No accuracy for fermi level given. Defaulting to 0.1000E-19.
  Maximum # of iterations to find E_F not set. Defaulting to  200.
  Will not use alltoall communication since running on < 1024 CPUs.
  Partitioning for Hartree potential was not defined. Using partition_type for integrals.
  | Reporting present value of keyword multip_moments_threshold  :       0.10000000E-09
  | This value may affect high angular momentum components of the Hartree potential in periodic systems.
  No q(lm)/r^(l+1) cutoff set for long-range Hartree potential.
  | Using default value of  0.100000E-09 .
  | Verify using the multipole_threshold keyword.
  Defaulting to new monopole extrapolation.
  Density update method: Loop over occupied states selected for charge density update.
------------------------------------------------------------


------------------------------------------------------------
          Reading geometry description geometry.in.
------------------------------------------------------------
  Input structure read successfully.
  The structure contains       15 atoms,  and a total of         50.000 electrons.

  Input geometry:
  | No unit cell requested.
  | Atomic structure:
  |       Atom                x [A]            y [A]            z [A]
  |    1: Species O             -4.053030         0.065001        -1.525160
  |    2: Species H             -4.566710         0.974813        -1.912820
  |    3: Species H             -3.067820         0.330172        -1.477310
  |    4: Species O             -4.581760        -0.256435         0.939478
  |    5: Species H             -4.349860         0.471090         1.504340
  |    6: Species H             -5.393870        -0.726611         1.228070
  |    7: Species O             -5.293160         2.192130        -2.328800
  |    8: Species H             -4.829300         2.988660        -1.973850
  |    9: Species H             -5.428570         2.328640        -3.235170
  |   10: Species O             -3.818880         2.024990         2.187990
  |   11: Species H             -3.690880         1.961360         3.202150
  |   12: Species H             -4.546490         2.751300         2.045370
  |   13: Species O             -1.975360         2.858040         0.453140
  |   14: Species H             -1.223550         3.375850         0.786238
  |   15: Species H             -2.537520         2.567960         1.156120
  |

  | The smallest distance between any two atoms is         0.92654057 AA.
  |
  | The first atom of this pair is atom number                      7 .
  | The second atom of this pair is atom number                     9 .

  Structure-dependent array size parameters: 
  | Maximum number of distinct radial functions  :       18
  | Maximum number of basis functions            :      345
  | Number of Kohn-Sham states (occupied + empty):       85
------------------------------------------------------------

------------------------------------------------------------
          Preparing all fixed parts of the calculation.
------------------------------------------------------------
  Determining machine precision:
    2.225073858507201E-308
  Setting up grids for atomic and cluster calculations.

  Creating wave function, potential, and density for free atoms.

  Species: H

  List of occupied orbitals and eigenvalues:
    n    l              occ      energy [Ha]    energy [eV]
    1    0           1.0000        -0.241408        -6.5691


  Species: O

  List of occupied orbitals and eigenvalues:
    n    l              occ      energy [Ha]    energy [eV]
    1    0           2.0000       -18.944147      -515.4965
    2    0           2.0000        -0.883529       -24.0421
    2    1           4.0000        -0.330176        -8.9845

  Creating fixed part of basis set: Ionic, confined, hydrogenic.
 
  H                    hydrogenic:
 
  List of hydrogenic basis orbitals: 
    n    l      effective z      eigenvalue [eV]  inner max. [A]     outer max. [A]     outer radius [A]   
    2    0         2.100000       -14.9965           0.193241           1.317192           5.372934
    2    1         3.500000       -41.6672           0.602363           0.602363           4.056010
    1    0         0.850000        -9.8292           0.624864           0.624864           5.372934
    2    1         3.700000       -46.5653           0.573616           0.573616           3.909951
    2    0         1.200000        -4.5995           0.334977           2.228160           5.505921
    3    2         7.000000       -74.0753           0.680692           0.680692           3.769152
 
 
  O                    hydrogenic:
 
  List of hydrogenic basis orbitals: 
    n    l      effective z      eigenvalue [eV]  inner max. [A]     outer max. [A]     outer radius [A]   
    2    1         1.800000       -11.0118           1.178546           1.178546           5.432516
    3    2         7.600000       -87.3182           0.624117           0.624117           3.541422
    3    0         6.400000       -61.9209           0.061166           1.081887           4.306510
    4    3        11.600000      -114.4238           0.731621           0.731621           3.584982
    3    1         6.200000       -58.1113           0.255677           1.030255           4.306510
    3    2         5.600000       -47.4081           0.847222           0.847222           4.413102
    5    4        17.600000      -168.5799           0.749730           0.749730           3.372413
    1    0         0.750000        -7.6499           0.705275           0.705275           5.366508
 

  Adding cutoff potential to free-atom effective potential.
  Creating atomic-like basis functions for current effective potential.

  Species H                   :

  List of atomic basis orbitals and eigenvalues:
    n    l      energy [Ha]    energy [eV]    outer radius [A]
    1    0        -0.241374        -6.5681       5.372934


  Species O                   :

  List of atomic basis orbitals and eigenvalues:
    n    l      energy [Ha]    energy [eV]    outer radius [A]
    1    0       -18.944147      -515.4965       1.415745
    2    0        -0.883529       -24.0421       5.048305
    2    1        -0.330173        -8.9845       5.301302

  Assembling full basis from fixed parts.
  | Species H :   atomic orbital   1 s accepted.
  | Species H :    hydro orbital   2 s accepted.
  | Species H :    hydro orbital   1 s accepted.
  | Species H :    hydro orbital   2 s accepted.
  | Species H :    hydro orbital   2 p accepted.
  | Species H :    hydro orbital   2 p accepted.
  | Species H :    hydro orbital   3 d accepted.
  | Species O :   atomic orbital   1 s accepted.
  | Species O :    hydro orbital   3 s accepted.
  | Species O :   atomic orbital   2 s accepted.
  | Species O :    hydro orbital   1 s accepted.
  | Species O :    hydro orbital   3 p accepted.
  | Species O :   atomic orbital   2 p accepted.
  | Species O :    hydro orbital   2 p accepted.
  | Species O :    hydro orbital   3 d accepted.
  | Species O :    hydro orbital   3 d accepted.
  | Species O :    hydro orbital   4 f accepted.
  | Species O :    hydro orbital   5 g accepted.
 
  Basis size parameters after reduction:
  | Total number of radial functions:       18
  | Total number of basis functions :      345
 
  Testing on-site integration grid accuracy.
  |  Species  Function  <phi|h_atom|phi> (log., in eV)  <phi|h_atom|phi> (rad., in eV)
           1        1                 -6.5683835025                 -6.5684759159
           1        2                 13.3711789951                 13.3708738703
           1        3                 23.6590910787                 23.6532055418
           1        4                 16.2963827186                 16.1870710655 ***
           1        5                 28.7627214838                 28.7627215090
           1        6                 59.5965249172                 59.5965950857
           1        7                 60.2220506392                 60.2220503827
           2        8               -515.4964576505               -515.4964530710
           2        9                 15.3030791347                 15.3030722972
           2       10                -21.7296094581                -21.7296135470
           2       11                 14.2969371730                 14.2969701621
           2       12                 21.0679693190                 21.0679697493
           2       13                 -2.3833606469                 -2.3833613176
           2       14                 13.7067136422                 13.7066766629
           2       15                 45.8013116808                 45.8013116965
           2       16                 52.2309815402                 52.2309831494
           2       17                 85.4120732416                 85.4120732763
           2       18                142.1019167745                142.1019167817
 * Note: Onsite integrals marked "***" above are less accurate than
 * onsite_accuracy_threshold =    0.03000 eV. Usually, this is harmless.
 * When in doubt, tighten the "radial" and/or "radial_multiplier" flags to check.

  Preparing densities etc. for the partition functions (integrals / Hartree potential).

  Preparations completed.
  max(cpu_time)          :      0.171 s.
  Wall clock time (cpu1) :      0.691 s.
------------------------------------------------------------

------------------------------------------------------------
          Begin self-consistency loop: Initialization.

          Date     :  20150727, Time     :  114908.365
------------------------------------------------------------

  Initializing index lists of integration centers etc. from given atomic structure:
  | Number of centers in hartree potential         :        15
  | Number of centers in hartree multipole         :        15
  | Number of centers in electron density summation:        15
  | Number of centers in basis integrals           :        15
  | Number of centers in integrals                 :        15
  Partitioning the integration grid into batches with parallel hashing+maxmin method.
  | Number of batches:     2012
  | Maximal batch size:     189
  | Minimal batch size:      54
  | Average batch size:      97.768
  | Standard deviation of batch sizes:      32.334

  Integration load balanced across     8 MPI tasks.
  Work distribution over tasks is as follows:
  Task     0 has      24566 integration points.
  Task     1 has      24652 integration points.
  Task     2 has      24610 integration points.
  Task     3 has      24519 integration points.
  Task     4 has      24565 integration points.
  Task     5 has      24594 integration points.
  Task     6 has      24611 integration points.
  Task     7 has      24593 integration points.
  Initializing partition tables, free-atom densities, potentials, etc. across the integration grid (initialize_grid_storage).
  | Net number of integration points:   196710
  | of which are non-zero points    :   196166
  Obtaining max. number of non-zero basis functions in each batch (get_n_compute_maxes).
  | Maximal number of non-zero basis functions:      342 in task     0
  | Maximal number of non-zero basis functions:      342 in task     1
  | Maximal number of non-zero basis functions:      342 in task     2
  | Maximal number of non-zero basis functions:      342 in task     3
  | Maximal number of non-zero basis functions:      342 in task     4
  | Maximal number of non-zero basis functions:      342 in task     5
  | Maximal number of non-zero basis functions:      342 in task     6
  | Maximal number of non-zero basis functions:      342 in task     7
  Integrating Hamiltonian matrix: batch-based integration.
  Time summed over all CPUs for integration: real work        7.145 s, elapsed        7.315 s
  Integrating overlap matrix.
  Time summed over all CPUs for integration: real work        3.903 s, elapsed        3.999 s

  Updating Kohn-Sham eigenvalues, eigenvectors, occupation numbers, and Fermi level.
  Solving generalized eigenproblem
  Updating Kohn-Sham eigenvalues and eigenfunctions.
  Transforming overlap matrix and checking for singularities.
  Overlap matrix is nonsingular:
  | Lowest eigenvalue:  0.292298E-03
  Solving real generalised eigenvalue problem by standard LAPACK (fast)
  Determining occupation numbers for Kohn-Sham eigenstates.
  | Chemical potential (Fermi level) in eV                 : -.36636349E+01
  | Error in electron count due to remaining E_F inaccuracy: 0.00000000E+00
  | Maximum occupation number of highest empty state:  0.00E+00

  Writing Kohn-Sham eigenvalues.

  State    Occupation    Eigenvalue [Ha]    Eigenvalue [eV]
      1       2.00000         -19.064785         -518.77920
      2       2.00000         -19.054641         -518.50315
      3       2.00000         -19.052094         -518.43386
      4       2.00000         -19.035948         -517.99450
      5       2.00000         -19.019669         -517.55153
      6       2.00000          -1.121151          -30.50808
      7       2.00000          -1.105834          -30.09126
      8       2.00000          -1.100127          -29.93597
      9       2.00000          -1.068757          -29.08234
     10       2.00000          -1.043465          -28.39413
     11       2.00000          -0.652049          -17.74314
     12       2.00000          -0.650072          -17.68936
     13       2.00000          -0.648359          -17.64274
     14       2.00000          -0.597453          -16.25753
     15       2.00000          -0.596413          -16.22924
     16       2.00000          -0.525245          -14.29266
     17       2.00000          -0.512576          -13.94790
     18       2.00000          -0.506349          -13.77845
     19       2.00000          -0.492679          -13.40647
     20       2.00000          -0.479257          -13.04125
     21       2.00000          -0.441756          -12.02078
     22       2.00000          -0.439243          -11.95242
     23       2.00000          -0.438373          -11.92873
     24       2.00000          -0.430917          -11.72585
     25       2.00000          -0.402526          -10.95329
     26       0.00000          -0.095896           -2.60946
     27       0.00000          -0.072388           -1.96977
     28       0.00000          -0.048973           -1.33263
     29       0.00000          -0.047042           -1.28009
     30       0.00000          -0.029452           -0.80143
     31       0.00000          -0.018534           -0.50433
     32       0.00000           0.000792            0.02156
     33       0.00000           0.037462            1.01939
     34       0.00000           0.048561            1.32142
     35       0.00000           0.060028            1.63346
     36       0.00000           0.070630            1.92194
     37       0.00000           0.087085            2.36970
     38       0.00000           0.092606            2.51995
     39       0.00000           0.096756            2.63286
     40       0.00000           0.104840            2.85284
     41       0.00000           0.109403            2.97701
     42       0.00000           0.117223            3.18981
     43       0.00000           0.119948            3.26394
     44       0.00000           0.125496            3.41493
     45       0.00000           0.134388            3.65689
     46       0.00000           0.139796            3.80403
     47       0.00000           0.148580            4.04307
     48       0.00000           0.159830            4.34921
     49       0.00000           0.163870            4.45913
     50       0.00000           0.183442            4.99172
     51       0.00000           0.197935            5.38608
     52       0.00000           0.218751            5.95252
     53       0.00000           0.234435            6.37930
     54       0.00000           0.241905            6.58258
     55       0.00000           0.257019            6.99384
     56       0.00000           0.265030            7.21184
     57       0.00000           0.271422            7.38578
     58       0.00000           0.284928            7.75329
     59       0.00000           0.314410            8.55554
     60       0.00000           0.328732            8.94525
     61       0.00000           0.340481            9.26496
     62       0.00000           0.346749            9.43552
     63       0.00000           0.367937           10.01207
     64       0.00000           0.377470           10.27147
     65       0.00000           0.389044           10.58644
     66       0.00000           0.398545           10.84497
     67       0.00000           0.422493           11.49663
     68       0.00000           0.427519           11.63338
     69       0.00000           0.435148           11.84099
     70       0.00000           0.444955           12.10784
     71       0.00000           0.460963           12.54343
     72       0.00000           0.475500           12.93900
     73       0.00000           0.486255           13.23167
     74       0.00000           0.506172           13.77365
     75       0.00000           0.520904           14.17453
     76       0.00000           0.542609           14.76513
     77       0.00000           0.559239           15.21767
     78       0.00000           0.574165           15.62383
     79       0.00000           0.579609           15.77196
     80       0.00000           0.601920           16.37907
     81       0.00000           0.621562           16.91357
     82       0.00000           0.666322           18.13153
     83       0.00000           0.683535           18.59992
     84       0.00000           0.730344           19.87367
     85       0.00000           0.742237           20.19730

  Highest occupied state (VBM) at    -10.95329209 eV
  | Occupation number:      2.00000000

  Lowest unoccupied state (CBM) at    -2.60946096 eV
  | Occupation number:      0.00000000

  Overall HOMO-LUMO gap:      8.34383112 eV.
  Calculating total energy contributions from superposition of free atom densities.

  Total energy components:
  | Sum of eigenvalues            :        -216.95947484 Ha       -5903.76769071 eV
  | XC energy correction          :         -45.57286774 Ha       -1240.10082681 eV
  | XC potential correction       :          58.23340707 Ha        1584.61163052 eV
  | Free-atom electrostatic energy:        -178.78618932 Ha       -4865.01974097 eV
  | Hartree energy correction     :           0.00000000 Ha           0.00000000 eV
  | van der Waals energy corr.    :           0.00000000 Ha           0.00000000 eV
  | Entropy correction            :           0.00000000 Ha           0.00000000 eV
  | ---------------------------
  | Total energy                  :        -383.08512483 Ha      -10424.27662797 eV
  | Total energy, T -> 0          :        -383.08512483 Ha      -10424.27662797 eV  <-- do not rely on this value for anything but (periodic) metals
  | Electronic free energy        :        -383.08512483 Ha      -10424.27662797 eV

  Derived energy quantities:
  | Kinetic energy                :         379.15520667 Ha       10317.33811385 eV
  | Electrostatic energy          :        -716.66746376 Ha      -19501.51391502 eV
  | Energy correction for multipole
  | error in Hartree potential    :           0.00000000 Ha           0.00000000 eV
  | Sum of eigenvalues per atom                           :        -393.58451271 eV
  | Total energy (T->0) per atom                          :        -694.95177520 eV  <-- do not rely on this value for anything but (periodic) metals
  | Electronic free energy per atom                       :        -694.95177520 eV
  Initialize hartree_potential_storage
  Max. number of atoms included in rho_multipole:           15

  End scf initialization - timings             :  max(cpu_time)    wall_clock(cpu1)
  | Time for scf. initialization               :        1.968 s           1.968 s
  | Boundary condition initialization          :        0.000 s           0.001 s
  | Integration                                :        1.418 s           1.418 s
  | Solution of K.-S. eqns.                    :        0.198 s           0.198 s
  | Grid partitioning                          :        0.138 s           0.138 s
  | Preloading free-atom quantities on grid    :        0.014 s           0.014 s
  | Free-atom superposition energy             :        0.065 s           0.065 s
  | Total energy evaluation                    :        0.000 s           0.000 s
------------------------------------------------------------

------------------------------------------------------------
          Begin self-consistency iteration #    1

  Date     :  20150727, Time     :  114910.333
------------------------------------------------------------
  Evaluating new KS density.
  Integration grid: deviation in total charge (<rho> - N_e) =  -2.131628E-14
  Pulay mixing of updated and previous charge densities.

  Evaluating partitioned Hartree potential by multipole expansion.
  | Analytical far-field extrapolation by fixed multipoles:
  | Hartree multipole sum: apparent total charge =  -0.217951E-05
  Summing up the Hartree potential.
  Time summed over all CPUs for potential: real work        2.566 s, elapsed        2.573 s
  | RMS charge density error from multipole expansion :   0.164810E-02

  Integrating Hamiltonian matrix: batch-based integration.
  Time summed over all CPUs for integration: real work        7.130 s, elapsed        7.296 s

  Updating Kohn-Sham eigenvalues, eigenvectors, occupation numbers, and Fermi level.
  Solving generalized eigenproblem
  Updating Kohn-Sham eigenvalues and eigenfunctions.
  Solving real generalised eigenvalue problem by standard LAPACK (fast)
  Determining occupation numbers for Kohn-Sham eigenstates.
  | Chemical potential (Fermi level) in eV                 : -.31908218E+01
  | Error in electron count due to remaining E_F inaccuracy: 0.00000000E+00
  | Maximum occupation number of highest empty state:  0.00E+00

  Writing Kohn-Sham eigenvalues.

  State    Occupation    Eigenvalue [Ha]    Eigenvalue [eV]
      1       2.00000         -18.996684         -516.92608
      2       2.00000         -18.976500         -516.37683
      3       2.00000         -18.969179         -516.17761
      4       2.00000         -18.959846         -515.92367
      5       2.00000         -18.927069         -515.03174
      6       2.00000          -1.088810          -29.62802
      7       2.00000          -1.063521          -28.93988
      8       2.00000          -1.052286          -28.63416
      9       2.00000          -1.038437          -28.25732
     10       2.00000          -0.991314          -26.97502
     11       2.00000          -0.622309          -16.93388
     12       2.00000          -0.614663          -16.72584
     13       2.00000          -0.605506          -16.47666
     14       2.00000          -0.575227          -15.65273
     15       2.00000          -0.557996          -15.18383
     16       2.00000          -0.483512          -13.15703
     17       2.00000          -0.479049          -13.03558
     18       2.00000          -0.461116          -12.54761
     19       2.00000          -0.451232          -12.27864
     20       2.00000          -0.437655          -11.90920
     21       2.00000          -0.402372          -10.94911
     22       2.00000          -0.395327          -10.75738
     23       2.00000          -0.392292          -10.67480
     24       2.00000          -0.387149          -10.53485
     25       2.00000          -0.347832           -9.46499
     26       0.00000          -0.088718           -2.41413
     27       0.00000          -0.064925           -1.76670
     28       0.00000          -0.038676           -1.05243
     29       0.00000          -0.036858           -1.00297
     30       0.00000          -0.017470           -0.47537
     31       0.00000          -0.013852           -0.37693
     32       0.00000           0.006530            0.17768
     33       0.00000           0.047671            1.29719
     34       0.00000           0.058976            1.60481
     35       0.00000           0.066296            1.80400
     36       0.00000           0.082691            2.25014
     37       0.00000           0.095219            2.59104
     38       0.00000           0.103554            2.81786
     39       0.00000           0.109986            2.99287
     40       0.00000           0.115035            3.13025
     41       0.00000           0.121468            3.30532
     42       0.00000           0.129338            3.51946
     43       0.00000           0.129796            3.53193
     44       0.00000           0.138689            3.77392
     45       0.00000           0.149672            4.07278
     46       0.00000           0.153380            4.17367
     47       0.00000           0.161197            4.38639
     48       0.00000           0.170721            4.64556
     49       0.00000           0.172700            4.69941
     50       0.00000           0.198992            5.41485
     51       0.00000           0.210733            5.73434
     52       0.00000           0.231442            6.29786
     53       0.00000           0.242670            6.60339
     54       0.00000           0.254676            6.93010
     55       0.00000           0.267126            7.26888
     56       0.00000           0.273720            7.44829
     57       0.00000           0.285217            7.76115
     58       0.00000           0.294966            8.02644
     59       0.00000           0.323762            8.81000
     60       0.00000           0.341578            9.29480
     61       0.00000           0.350712            9.54336
     62       0.00000           0.356049            9.68858
     63       0.00000           0.378668           10.30408
     64       0.00000           0.388799           10.57977
     65       0.00000           0.398670           10.84838
     66       0.00000           0.412581           11.22690
     67       0.00000           0.432926           11.78050
     68       0.00000           0.437792           11.91294
     69       0.00000           0.445414           12.12033
     70       0.00000           0.453705           12.34593
     71       0.00000           0.468198           12.74031
     72       0.00000           0.487776           13.27307
     73       0.00000           0.499895           13.60283
     74       0.00000           0.519544           14.13752
     75       0.00000           0.534985           14.55767
     76       0.00000           0.557654           15.17453
     77       0.00000           0.572808           15.58689
     78       0.00000           0.586967           15.97219
     79       0.00000           0.594528           16.17792
     80       0.00000           0.619668           16.86203
     81       0.00000           0.636245           17.31312
     82       0.00000           0.681260           18.53803
     83       0.00000           0.699048           19.02206
     84       0.00000           0.746351           20.30924
     85       0.00000           0.757263           20.60618

  Highest occupied state (VBM) at     -9.46498566 eV
  | Occupation number:      2.00000000

  Lowest unoccupied state (CBM) at    -2.41412989 eV
  | Occupation number:      0.00000000

  Overall HOMO-LUMO gap:      7.05085577 eV.

  Total energy components:
  | Sum of eigenvalues            :        -214.55376235 Ha       -5838.30492315 eV
  | XC energy correction          :         -45.81771457 Ha       -1246.76344819 eV
  | XC potential correction       :          58.55378805 Ha        1593.32964044 eV
  | Free-atom electrostatic energy:        -178.78618932 Ha       -4865.01974097 eV
  | Hartree energy correction     :          -2.32659777 Ha         -63.30994656 eV
  | van der Waals energy corr.    :           0.00000000 Ha           0.00000000 eV
  | Entropy correction            :           0.00000000 Ha           0.00000000 eV
  | ---------------------------
  | Total energy                  :        -382.93047597 Ha      -10420.06841843 eV
  | Total energy, T -> 0          :        -382.93047597 Ha      -10420.06841843 eV  <-- do not rely on this value for anything but (periodic) metals
  | Electronic free energy        :        -382.93047597 Ha      -10420.06841843 eV

  Derived energy quantities:
  | Kinetic energy                :         380.62021233 Ha       10357.20294620 eV
  | Electrostatic energy          :        -717.73297373 Ha      -19530.50791644 eV
  | Energy correction for multipole
  | error in Hartree potential    :           0.00001778 Ha           0.00048372 eV
  | Sum of eigenvalues per atom                           :        -389.22032821 eV
  | Total energy (T->0) per atom                          :        -694.67122790 eV  <-- do not rely on this value for anything but (periodic) metals
  | Electronic free energy per atom                       :        -694.67122790 eV

  Self-consistency convergence accuracy:
  | Change of charge density      : 0.6726E+00
  | Change of sum of eigenvalues  : 0.6546E+02 eV
  | Change of total energy        : 0.4208E+01 eV

  End self-consistency iteration #     1       :  max(cpu_time)    wall_clock(cpu1)
  | Time for this iteration                    :        1.941 s           1.941 s
  | Charge density update                      :        0.641 s           0.641 s
  | Density mixing                             :        0.003 s           0.003 s
  | Hartree multipole update                   :        0.005 s           0.005 s
  | Hartree multipole summation                :        0.323 s           0.323 s
  | Integration                                :        0.914 s           0.913 s
  | Solution of K.-S. eqns.                    :        0.054 s           0.055 s
  | Total energy evaluation                    :        0.001 s           0.001 s
------------------------------------------------------------

------------------------------------------------------------
          Begin self-consistency iteration #    2

  Date     :  20150727, Time     :  114912.274
------------------------------------------------------------
  Evaluating new KS density.
  Integration grid: deviation in total charge (<rho> - N_e) =   1.421085E-14
  Pulay mixing of updated and previous charge densities.

  Evaluating partitioned Hartree potential by multipole expansion.
  | Analytical far-field extrapolation by fixed multipoles:
  | Hartree multipole sum: apparent total charge =  -0.652088E-05
  Summing up the Hartree potential.
  Time summed over all CPUs for potential: real work        2.566 s, elapsed        2.573 s
  | RMS charge density error from multipole expansion :   0.661889E-02

  Integrating Hamiltonian matrix: batch-based integration.
  Time summed over all CPUs for integration: real work        7.131 s, elapsed        7.285 s

  Updating Kohn-Sham eigenvalues, eigenvectors, occupation numbers, and Fermi level.
  Solving generalized eigenproblem
  Updating Kohn-Sham eigenvalues and eigenfunctions.
  Solving real generalised eigenvalue problem by standard LAPACK (fast)
  Determining occupation numbers for Kohn-Sham eigenstates.
  | Chemical potential (Fermi level) in eV                 : -.21362748E+01
  | Error in electron count due to remaining E_F inaccuracy: 0.00000000E+00
  | Maximum occupation number of highest empty state:  0.00E+00

  Highest occupied state (VBM) at     -5.88007723 eV
  | Occupation number:      2.00000000

  Lowest unoccupied state (CBM) at    -2.03761312 eV
  | Occupation number:      0.00000000

  Overall HOMO-LUMO gap:      3.84246411 eV.

  Total energy components:
  | Sum of eigenvalues            :        -208.81336467 Ha       -5682.10075470 eV
  | XC energy correction          :         -46.42579225 Ha       -1263.31008355 eV
  | XC potential correction       :          59.34878492 Ha        1614.96260617 eV
  | Free-atom electrostatic energy:        -178.78618932 Ha       -4865.01974097 eV
  | Hartree energy correction     :          -8.07106274 Ha        -219.62479167 eV
  | van der Waals energy corr.    :           0.00000000 Ha           0.00000000 eV
  | Entropy correction            :           0.00000000 Ha           0.00000000 eV
  | ---------------------------
  | Total energy                  :        -382.74762406 Ha      -10415.09276472 eV
  | Total energy, T -> 0          :        -382.74762406 Ha      -10415.09276472 eV  <-- do not rely on this value for anything but (periodic) metals
  | Electronic free energy        :        -382.74762406 Ha      -10415.09276472 eV

  Derived energy quantities:
  | Kinetic energy                :         383.57931242 Ha       10437.72415640 eV
  | Electrostatic energy          :        -719.90114423 Ha      -19589.50683757 eV
  | Energy correction for multipole
  | error in Hartree potential    :          -0.00070607 Ha          -0.01921309 eV
  | Sum of eigenvalues per atom                           :        -378.80671698 eV
  | Total energy (T->0) per atom                          :        -694.33951765 eV  <-- do not rely on this value for anything but (periodic) metals
  | Electronic free energy per atom                       :        -694.33951765 eV

  Self-consistency convergence accuracy:
  | Change of charge density      : 0.5091E+00
  | Change of sum of eigenvalues  : 0.1562E+03 eV
  | Change of total energy        : 0.4976E+01 eV

  End self-consistency iteration #     2       :  max(cpu_time)    wall_clock(cpu1)
  | Time for this iteration                    :        1.934 s           1.933 s
  | Charge density update                      :        0.635 s           0.634 s
  | Density mixing                             :        0.005 s           0.006 s
  | Hartree multipole update                   :        0.005 s           0.005 s
  | Hartree multipole summation                :        0.322 s           0.322 s
  | Integration                                :        0.913 s           0.912 s
  | Solution of K.-S. eqns.                    :        0.053 s           0.054 s
  | Total energy evaluation                    :        0.000 s           0.000 s
------------------------------------------------------------

------------------------------------------------------------
          Begin self-consistency iteration #    3

  Date     :  20150727, Time     :  114914.208
------------------------------------------------------------
  Evaluating new KS density.
  Integration grid: deviation in total charge (<rho> - N_e) =   4.973799E-14
  Pulay mixing of updated and previous charge densities.

  Evaluating partitioned Hartree potential by multipole expansion.
  | Analytical far-field extrapolation by fixed multipoles:
  | Hartree multipole sum: apparent total charge =  -0.688529E-05
  Summing up the Hartree potential.
  Time summed over all CPUs for potential: real work        2.565 s, elapsed        2.572 s
  | RMS charge density error from multipole expansion :   0.130432E-01

  Integrating Hamiltonian matrix: batch-based integration.
  Time summed over all CPUs for integration: real work        7.131 s, elapsed        7.289 s

  Updating Kohn-Sham eigenvalues, eigenvectors, occupation numbers, and Fermi level.
  Solving generalized eigenproblem
  Updating Kohn-Sham eigenvalues and eigenfunctions.
  Solving real generalised eigenvalue problem by standard LAPACK (fast)
  Determining occupation numbers for Kohn-Sham eigenstates.
  | Chemical potential (Fermi level) in eV                 : -.31790309E+01
  | Error in electron count due to remaining E_F inaccuracy: 0.00000000E+00
  | Maximum occupation number of highest empty state:  0.00E+00

  Highest occupied state (VBM) at     -5.73878737 eV
  | Occupation number:      2.00000000

  Lowest unoccupied state (CBM) at    -2.05108590 eV
  | Occupation number:      0.00000000

  Overall HOMO-LUMO gap:      3.68770147 eV.

  Total energy components:
  | Sum of eigenvalues            :        -209.08320673 Ha       -5689.44353075 eV
  | XC energy correction          :         -46.38329100 Ha       -1262.15356584 eV
  | XC potential correction       :          59.28825468 Ha        1613.31549451 eV
  | Free-atom electrostatic energy:        -178.78618932 Ha       -4865.01974097 eV
  | Hartree energy correction     :          -7.77801800 Ha        -211.65063833 eV
  | van der Waals energy corr.    :           0.00000000 Ha           0.00000000 eV
  | Entropy correction            :           0.00000000 Ha           0.00000000 eV
  | ---------------------------
  | Total energy                  :        -382.74245037 Ha      -10414.95198137 eV
  | Total energy, T -> 0          :        -382.74245037 Ha      -10414.95198137 eV  <-- do not rely on this value for anything but (periodic) metals
  | Electronic free energy        :        -382.74245037 Ha      -10414.95198137 eV

  Derived energy quantities:
  | Kinetic energy                :         381.49457593 Ha       10380.99559037 eV
  | Electrostatic energy          :        -717.85373530 Ha      -19533.79400590 eV
  | Energy correction for multipole
  | error in Hartree potential    :          -0.00460607 Ha          -0.12533753 eV
  | Sum of eigenvalues per atom                           :        -379.29623538 eV
  | Total energy (T->0) per atom                          :        -694.33013209 eV  <-- do not rely on this value for anything but (periodic) metals
  | Electronic free energy per atom                       :        -694.33013209 eV

  Self-consistency convergence accuracy:
  | Change of charge density      : 0.2535E+00
  | Change of sum of eigenvalues  : -.7343E+01 eV
  | Change of total energy        : 0.1408E+00 eV

  End self-consistency iteration #     3       :  max(cpu_time)    wall_clock(cpu1)
  | Time for this iteration                    :        1.934 s           1.933 s
  | Charge density update                      :        0.632 s           0.631 s
  | Density mixing                             :        0.007 s           0.007 s
  | Hartree multipole update                   :        0.005 s           0.005 s
  | Hartree multipole summation                :        0.322 s           0.322 s
  | Integration                                :        0.913 s           0.913 s
  | Solution of K.-S. eqns.                    :        0.054 s           0.054 s
  | Total energy evaluation                    :        0.000 s           0.001 s
------------------------------------------------------------

------------------------------------------------------------
          Begin self-consistency iteration #    4

  Date     :  20150727, Time     :  114916.141
------------------------------------------------------------
  Evaluating new KS density.
  Integration grid: deviation in total charge (<rho> - N_e) =   3.552714E-14
  Pulay mixing of updated and previous charge densities.

  Evaluating partitioned Hartree potential by multipole expansion.
  | Analytical far-field extrapolation by fixed multipoles:
  | Hartree multipole sum: apparent total charge =  -0.856889E-05
  Summing up the Hartree potential.
  Time summed over all CPUs for potential: real work        2.564 s, elapsed        2.570 s
  | RMS charge density error from multipole expansion :   0.173792E-01

  Integrating Hamiltonian matrix: batch-based integration.
  Time summed over all CPUs for integration: real work        7.116 s, elapsed        7.281 s

  Updating Kohn-Sham eigenvalues, eigenvectors, occupation numbers, and Fermi level.
  Solving generalized eigenproblem
  Updating Kohn-Sham eigenvalues and eigenfunctions.
  Solving real generalised eigenvalue problem by standard LAPACK (fast)
  Determining occupation numbers for Kohn-Sham eigenstates.
  | Chemical potential (Fermi level) in eV                 : -.26579574E+01
  | Error in electron count due to remaining E_F inaccuracy: 0.00000000E+00
  | Maximum occupation number of highest empty state:  0.00E+00

  Highest occupied state (VBM) at     -4.36025793 eV
  | Occupation number:      2.00000000

  Lowest unoccupied state (CBM) at    -1.92823388 eV
  | Occupation number:      0.00000000

  Overall HOMO-LUMO gap:      2.43202405 eV.

  Total energy components:
  | Sum of eigenvalues            :        -207.12889742 Ha       -5636.26406868 eV
  | XC energy correction          :         -46.60774159 Ha       -1268.26117704 eV
  | XC potential correction       :          59.58063566 Ha        1621.27158578 eV
  | Free-atom electrostatic energy:        -178.78618932 Ha       -4865.01974097 eV
  | Hartree energy correction     :          -9.78644916 Ha        -266.30283102 eV
  | van der Waals energy corr.    :           0.00000000 Ha           0.00000000 eV
  | Entropy correction            :           0.00000000 Ha           0.00000000 eV
  | ---------------------------
  | Total energy                  :        -382.72864183 Ha      -10414.57623193 eV
  | Total energy, T -> 0          :        -382.72864183 Ha      -10414.57623193 eV  <-- do not rely on this value for anything but (periodic) metals
  | Electronic free energy        :        -382.72864183 Ha      -10414.57623193 eV

  Derived energy quantities:
  | Kinetic energy                :         381.70301547 Ha       10386.66751888 eV
  | Electrostatic energy          :        -717.82391571 Ha      -19532.98257377 eV
  | Energy correction for multipole
  | error in Hartree potential    :          -0.00647562 Ha          -0.17621057 eV
  | Sum of eigenvalues per atom                           :        -375.75093791 eV
  | Total energy (T->0) per atom                          :        -694.30508213 eV  <-- do not rely on this value for anything but (periodic) metals
  | Electronic free energy per atom                       :        -694.30508213 eV

  Self-consistency convergence accuracy:
  | Change of charge density      : 0.1469E+00
  | Change of sum of eigenvalues  : 0.5318E+02 eV
  | Change of total energy        : 0.3757E+00 eV

  End self-consistency iteration #     4       :  max(cpu_time)    wall_clock(cpu1)
  | Time for this iteration                    :        1.932 s           1.932 s
  | Charge density update                      :        0.631 s           0.631 s
  | Density mixing                             :        0.008 s           0.008 s
  | Hartree multipole update                   :        0.005 s           0.005 s
  | Hartree multipole summation                :        0.322 s           0.322 s
  | Integration                                :        0.912 s           0.912 s
  | Solution of K.-S. eqns.                    :        0.054 s           0.054 s
  | Total energy evaluation                    :        0.000 s           0.000 s
------------------------------------------------------------

------------------------------------------------------------
          Begin self-consistency iteration #    5

  Date     :  20150727, Time     :  114918.073
------------------------------------------------------------
  Evaluating new KS density.
  Integration grid: deviation in total charge (<rho> - N_e) =  -1.421085E-14
  Pulay mixing of updated and previous charge densities.

  Evaluating partitioned Hartree potential by multipole expansion.
  | Analytical far-field extrapolation by fixed multipoles:
  | Hartree multipole sum: apparent total charge =  -0.855750E-05
  Summing up the Hartree potential.
  Time summed over all CPUs for potential: real work        2.564 s, elapsed        2.570 s
  | RMS charge density error from multipole expansion :   0.178463E-01

  Integrating Hamiltonian matrix: batch-based integration.
  Time summed over all CPUs for integration: real work        7.117 s, elapsed        7.297 s

  Updating Kohn-Sham eigenvalues, eigenvectors, occupation numbers, and Fermi level.
  Solving generalized eigenproblem
  Updating Kohn-Sham eigenvalues and eigenfunctions.
  Solving real generalised eigenvalue problem by standard LAPACK (fast)
  Determining occupation numbers for Kohn-Sham eigenstates.
  | Chemical potential (Fermi level) in eV                 : -.26404788E+01
  | Error in electron count due to remaining E_F inaccuracy: 0.00000000E+00
  | Maximum occupation number of highest empty state:  0.00E+00

  Highest occupied state (VBM) at     -4.23076236 eV
  | Occupation number:      2.00000000

  Lowest unoccupied state (CBM) at    -1.90841336 eV
  | Occupation number:      0.00000000

  Overall HOMO-LUMO gap:      2.32234900 eV.

  Total energy components:
  | Sum of eigenvalues            :        -207.10408629 Ha       -5635.58892351 eV
  | XC energy correction          :         -46.61490694 Ha       -1268.45615605 eV
  | XC potential correction       :          59.58940705 Ha        1621.51026746 eV
  | Free-atom electrostatic energy:        -178.78618932 Ha       -4865.01974097 eV
  | Hartree energy correction     :          -9.81262172 Ha        -267.01502269 eV
  | van der Waals energy corr.    :           0.00000000 Ha           0.00000000 eV
  | Entropy correction            :           0.00000000 Ha           0.00000000 eV
  | ---------------------------
  | Total energy                  :        -382.72839722 Ha      -10414.56957574 eV
  | Total energy, T -> 0          :        -382.72839722 Ha      -10414.56957574 eV  <-- do not rely on this value for anything but (periodic) metals
  | Electronic free energy        :        -382.72839722 Ha      -10414.56957574 eV

  Derived energy quantities:
  | Kinetic energy                :         381.72483607 Ha       10387.26128738 eV
  | Electrostatic energy          :        -717.83832635 Ha      -19533.37470708 eV
  | Energy correction for multipole
  | error in Hartree potential    :          -0.00649003 Ha          -0.17660268 eV
  | Sum of eigenvalues per atom                           :        -375.70592823 eV
  | Total energy (T->0) per atom                          :        -694.30463838 eV  <-- do not rely on this value for anything but (periodic) metals
  | Electronic free energy per atom                       :        -694.30463838 eV

  Self-consistency convergence accuracy:
  | Change of charge density      : 0.3087E-01
  | Change of sum of eigenvalues  : 0.6751E+00 eV
  | Change of total energy        : 0.6656E-02 eV

  End self-consistency iteration #     5       :  max(cpu_time)    wall_clock(cpu1)
  | Time for this iteration                    :        1.935 s           1.936 s
  | Charge density update                      :        0.630 s           0.631 s
  | Density mixing                             :        0.010 s           0.009 s
  | Hartree multipole update                   :        0.005 s           0.004 s
  | Hartree multipole summation                :        0.322 s           0.322 s
  | Integration                                :        0.914 s           0.914 s
  | Solution of K.-S. eqns.                    :        0.054 s           0.054 s
  | Total energy evaluation                    :        0.000 s           0.000 s
------------------------------------------------------------

------------------------------------------------------------
          Begin self-consistency iteration #    6

  Date     :  20150727, Time     :  114920.009
------------------------------------------------------------
  Evaluating new KS density.
  Integration grid: deviation in total charge (<rho> - N_e) =  -7.105427E-15
  Pulay mixing of updated and previous charge densities.

  Evaluating partitioned Hartree potential by multipole expansion.
  | Analytical far-field extrapolation by fixed multipoles:
  | Hartree multipole sum: apparent total charge =  -0.858310E-05
  Summing up the Hartree potential.
  Time summed over all CPUs for potential: real work        2.564 s, elapsed        2.570 s
  | RMS charge density error from multipole expansion :   0.180498E-01

  Integrating Hamiltonian matrix: batch-based integration.
  Time summed over all CPUs for integration: real work        7.124 s, elapsed        7.314 s

  Updating Kohn-Sham eigenvalues, eigenvectors, occupation numbers, and Fermi level.
  Solving generalized eigenproblem
  Updating Kohn-Sham eigenvalues and eigenfunctions.
  Solving real generalised eigenvalue problem by standard LAPACK (fast)
  Determining occupation numbers for Kohn-Sham eigenstates.
  | Chemical potential (Fermi level) in eV                 : -.26303268E+01
  | Error in electron count due to remaining E_F inaccuracy: 0.00000000E+00
  | Maximum occupation number of highest empty state:  0.00E+00

  Highest occupied state (VBM) at     -4.20836461 eV
  | Occupation number:      2.00000000

  Lowest unoccupied state (CBM) at    -1.90253561 eV
  | Occupation number:      0.00000000

  Overall HOMO-LUMO gap:      2.30582900 eV.

  Total energy components:
  | Sum of eigenvalues            :        -207.06634159 Ha       -5634.56183803 eV
  | XC energy correction          :         -46.62052249 Ha       -1268.60896302 eV
  | XC potential correction       :          59.59657811 Ha        1621.70540191 eV
  | Free-atom electrostatic energy:        -178.78618932 Ha       -4865.01974097 eV
  | Hartree energy correction     :          -9.85197604 Ha        -268.08590803 eV
  | van der Waals energy corr.    :           0.00000000 Ha           0.00000000 eV
  | Entropy correction            :           0.00000000 Ha           0.00000000 eV
  | ---------------------------
  | Total energy                  :        -382.72845133 Ha      -10414.57104813 eV
  | Total energy, T -> 0          :        -382.72845133 Ha      -10414.57104813 eV  <-- do not rely on this value for anything but (periodic) metals
  | Electronic free energy        :        -382.72845133 Ha      -10414.57104813 eV

  Derived energy quantities:
  | Kinetic energy                :         381.73274557 Ha       10387.47651608 eV
  | Electrostatic energy          :        -717.84067441 Ha      -19533.43860119 eV
  | Energy correction for multipole
  | error in Hartree potential    :          -0.00652983 Ha          -0.17768564 eV
  | Sum of eigenvalues per atom                           :        -375.63745587 eV
  | Total energy (T->0) per atom                          :        -694.30473654 eV  <-- do not rely on this value for anything but (periodic) metals
  | Electronic free energy per atom                       :        -694.30473654 eV

  Self-consistency convergence accuracy:
  | Change of charge density      : 0.1196E-01
  | Change of sum of eigenvalues  : 0.1027E+01 eV
  | Change of total energy        : -.1472E-02 eV

  End self-consistency iteration #     6       :  max(cpu_time)    wall_clock(cpu1)
  | Time for this iteration                    :        1.945 s           1.944 s
  | Charge density update                      :        0.636 s           0.636 s
  | Density mixing                             :        0.011 s           0.011 s
  | Hartree multipole update                   :        0.005 s           0.005 s
  | Hartree multipole summation                :        0.322 s           0.322 s
  | Integration                                :        0.916 s           0.916 s
  | Solution of K.-S. eqns.                    :        0.054 s           0.054 s
  | Total energy evaluation                    :        0.000 s           0.000 s
------------------------------------------------------------

------------------------------------------------------------
          Begin self-consistency iteration #    7

  Date     :  20150727, Time     :  114921.953
------------------------------------------------------------
  Evaluating new KS density.
  Integration grid: deviation in total charge (<rho> - N_e) =   2.131628E-14
  Pulay mixing of updated and previous charge densities.

  Evaluating partitioned Hartree potential by multipole expansion.
  | Analytical far-field extrapolation by fixed multipoles:
  | Hartree multipole sum: apparent total charge =  -0.835504E-05
  Summing up the Hartree potential.
  Time summed over all CPUs for potential: real work        2.564 s, elapsed        2.570 s
  | RMS charge density error from multipole expansion :   0.180448E-01

  Integrating Hamiltonian matrix: batch-based integration.
  Time summed over all CPUs for integration: real work        7.120 s, elapsed        7.313 s

  Updating Kohn-Sham eigenvalues, eigenvectors, occupation numbers, and Fermi level.
  Solving generalized eigenproblem
  Updating Kohn-Sham eigenvalues and eigenfunctions.
  Solving real generalised eigenvalue problem by standard LAPACK (fast)
  Determining occupation numbers for Kohn-Sham eigenstates.
  | Chemical potential (Fermi level) in eV                 : -.26869466E+01
  | Error in electron count due to remaining E_F inaccuracy: 0.00000000E+00
  | Maximum occupation number of highest empty state:  0.00E+00

  Highest occupied state (VBM) at     -4.37590556 eV
  | Occupation number:      2.00000000

  Lowest unoccupied state (CBM) at    -1.91015441 eV
  | Occupation number:      0.00000000

  Overall HOMO-LUMO gap:      2.46575115 eV.

  Total energy components:
  | Sum of eigenvalues            :        -207.23597157 Ha       -5639.17770465 eV
  | XC energy correction          :         -46.60536112 Ha       -1268.19640114 eV
  | XC potential correction       :          59.57614725 Ha        1621.14944973 eV
  | Free-atom electrostatic energy:        -178.78618932 Ha       -4865.01974097 eV
  | Hartree energy correction     :          -9.67693525 Ha        -263.32280574 eV
  | van der Waals energy corr.    :           0.00000000 Ha           0.00000000 eV
  | Entropy correction            :           0.00000000 Ha           0.00000000 eV
  | ---------------------------
  | Total energy                  :        -382.72831001 Ha      -10414.56720277 eV
  | Total energy, T -> 0          :        -382.72831001 Ha      -10414.56720277 eV  <-- do not rely on this value for anything but (periodic) metals
  | Electronic free energy        :        -382.72831001 Ha      -10414.56720277 eV

  Derived energy quantities:
  | Kinetic energy                :         381.79598316 Ha       10389.19729836 eV
  | Electrostatic energy          :        -717.91893206 Ha      -19535.56809998 eV
  | Energy correction for multipole
  | error in Hartree potential    :          -0.00625781 Ha          -0.17028362 eV
  | Sum of eigenvalues per atom                           :        -375.94518031 eV
  | Total energy (T->0) per atom                          :        -694.30448018 eV  <-- do not rely on this value for anything but (periodic) metals
  | Electronic free energy per atom                       :        -694.30448018 eV

  Self-consistency convergence accuracy:
  | Change of charge density      : 0.1179E-01
  | Change of sum of eigenvalues  : -.4616E+01 eV
  | Change of total energy        : 0.3845E-02 eV

  End self-consistency iteration #     7       :  max(cpu_time)    wall_clock(cpu1)
  | Time for this iteration                    :        1.941 s           1.941 s
  | Charge density update                      :        0.632 s           0.632 s
  | Density mixing                             :        0.012 s           0.013 s
  | Hartree multipole update                   :        0.005 s           0.004 s
  | Hartree multipole summation                :        0.322 s           0.322 s
  | Integration                                :        0.916 s           0.916 s
  | Solution of K.-S. eqns.                    :        0.054 s           0.054 s
  | Total energy evaluation                    :        0.000 s           0.000 s
------------------------------------------------------------

------------------------------------------------------------
          Begin self-consistency iteration #    8

  Date     :  20150727, Time     :  114923.894
------------------------------------------------------------
  Evaluating new KS density.
  Integration grid: deviation in total charge (<rho> - N_e) =   2.131628E-14
  Pulay mixing of updated and previous charge densities.

  Evaluating partitioned Hartree potential by multipole expansion.
  | Analytical far-field extrapolation by fixed multipoles:
  | Hartree multipole sum: apparent total charge =  -0.836754E-05
  Summing up the Hartree potential.
  Time summed over all CPUs for potential: real work        2.564 s, elapsed        2.570 s
  | RMS charge density error from multipole expansion :   0.180953E-01

  Integrating Hamiltonian matrix: batch-based integration.
  Time summed over all CPUs for integration: real work        7.114 s, elapsed        7.309 s

  Updating Kohn-Sham eigenvalues, eigenvectors, occupation numbers, and Fermi level.
  Solving generalized eigenproblem
  Updating Kohn-Sham eigenvalues and eigenfunctions.
  Solving real generalised eigenvalue problem by standard LAPACK (fast)
  Determining occupation numbers for Kohn-Sham eigenstates.
  | Chemical potential (Fermi level) in eV                 : -.26822446E+01
  | Error in electron count due to remaining E_F inaccuracy: 0.00000000E+00
  | Maximum occupation number of highest empty state:  0.00E+00

  Highest occupied state (VBM) at     -4.34939814 eV
  | Occupation number:      2.00000000

  Lowest unoccupied state (CBM) at    -1.91116822 eV
  | Occupation number:      0.00000000

  Overall HOMO-LUMO gap:      2.43822993 eV.

  Total energy components:
  | Sum of eigenvalues            :        -207.21866942 Ha       -5638.70688905 eV
  | XC energy correction          :         -46.60703702 Ha       -1268.24200486 eV
  | XC potential correction       :          59.57831800 Ha        1621.20851896 eV
  | Free-atom electrostatic energy:        -178.78618932 Ha       -4865.01974097 eV
  | Hartree energy correction     :          -9.69473140 Ha        -263.80706374 eV
  | van der Waals energy corr.    :           0.00000000 Ha           0.00000000 eV
  | Entropy correction            :           0.00000000 Ha           0.00000000 eV
  | ---------------------------
  | Total energy                  :        -382.72830916 Ha      -10414.56717966 eV
  | Total energy, T -> 0          :        -382.72830916 Ha      -10414.56717966 eV  <-- do not rely on this value for anything but (periodic) metals
  | Electronic free energy        :        -382.72830916 Ha      -10414.56717966 eV

  Derived energy quantities:
  | Kinetic energy                :         381.79809740 Ha       10389.25482960 eV
  | Electrostatic energy          :        -717.91936953 Ha      -19535.58000441 eV
  | Energy correction for multipole
  | error in Hartree potential    :          -0.00628776 Ha          -0.17109871 eV
  | Sum of eigenvalues per atom                           :        -375.91379260 eV
  | Total energy (T->0) per atom                          :        -694.30447864 eV  <-- do not rely on this value for anything but (periodic) metals
  | Electronic free energy per atom                       :        -694.30447864 eV

  Self-consistency convergence accuracy:
  | Change of charge density      : 0.2063E-02
  | Change of sum of eigenvalues  : 0.4708E+00 eV
  | Change of total energy        : 0.2311E-04 eV

  End self-consistency iteration #     8       :  max(cpu_time)    wall_clock(cpu1)
  | Time for this iteration                    :        1.943 s           1.942 s
  | Charge density update                      :        0.632 s           0.632 s
  | Density mixing                             :        0.014 s           0.014 s
  | Hartree multipole update                   :        0.005 s           0.005 s
  | Hartree multipole summation                :        0.322 s           0.322 s
  | Integration                                :        0.915 s           0.915 s
  | Solution of K.-S. eqns.                    :        0.054 s           0.054 s
  | Total energy evaluation                    :        0.000 s           0.000 s
------------------------------------------------------------

------------------------------------------------------------
          Begin self-consistency iteration #    9

  Date     :  20150727, Time     :  114925.836
------------------------------------------------------------
  Evaluating new KS density.
  Integration grid: deviation in total charge (<rho> - N_e) =   0.000000E+00
  Pulay mixing of updated and previous charge densities.

  Evaluating partitioned Hartree potential by multipole expansion.
  | Analytical far-field extrapolation by fixed multipoles:
  | Hartree multipole sum: apparent total charge =  -0.836432E-05
  Summing up the Hartree potential.
  Time summed over all CPUs for potential: real work        2.564 s, elapsed        2.570 s
  | RMS charge density error from multipole expansion :   0.180964E-01

  Integrating Hamiltonian matrix: batch-based integration.
  Time summed over all CPUs for integration: real work        7.121 s, elapsed        7.296 s

  Updating Kohn-Sham eigenvalues, eigenvectors, occupation numbers, and Fermi level.
  Solving generalized eigenproblem
  Updating Kohn-Sham eigenvalues and eigenfunctions.
  Solving real generalised eigenvalue problem by standard LAPACK (fast)
  Determining occupation numbers for Kohn-Sham eigenstates.
  | Chemical potential (Fermi level) in eV                 : -.26829550E+01
  | Error in electron count due to remaining E_F inaccuracy: 0.00000000E+00
  | Maximum occupation number of highest empty state:  0.00E+00

  Highest occupied state (VBM) at     -4.35387031 eV
  | Occupation number:      2.00000000

  Lowest unoccupied state (CBM) at    -1.91173841 eV
  | Occupation number:      0.00000000

  Overall HOMO-LUMO gap:      2.44213190 eV.

  Total energy components:
  | Sum of eigenvalues            :        -207.21934003 Ha       -5638.72513731 eV
  | XC energy correction          :         -46.60692265 Ha       -1268.23889253 eV
  | XC potential correction       :          59.57816038 Ha        1621.20422998 eV
  | Free-atom electrostatic energy:        -178.78618932 Ha       -4865.01974097 eV
  | Hartree energy correction     :          -9.69401672 Ha        -263.78761626 eV
  | van der Waals energy corr.    :           0.00000000 Ha           0.00000000 eV
  | Entropy correction            :           0.00000000 Ha           0.00000000 eV
  | ---------------------------
  | Total energy                  :        -382.72830833 Ha      -10414.56715709 eV
  | Total energy, T -> 0          :        -382.72830833 Ha      -10414.56715709 eV  <-- do not rely on this value for anything but (periodic) metals
  | Electronic free energy        :        -382.72830833 Ha      -10414.56715709 eV

  Derived energy quantities:
  | Kinetic energy                :         381.80033028 Ha       10389.31558958 eV
  | Electrostatic energy          :        -717.92171597 Ha      -19535.64385414 eV
  | Energy correction for multipole
[...]
   ----------------------------------------------------------------
   Total forces(   4)            : -.715199E+00 -.187173E+01 -.451151E+00
  atom #    5
   Hellmann-Feynman + Multipole  : -.301715E+00 0.541533E+00 0.833176E+00
   Pulay + GGA                   : 0.323053E-02 0.376102E-01 0.889293E-01
   Van der Waals               : -.655455E-03 -.139010E-02 -.196502E-02
   ----------------------------------------------------------------
   Total forces(   5)            : -.299140E+00 0.577753E+00 0.920140E+00
  atom #    6
   Hellmann-Feynman + Multipole  : 0.730615E+00 0.736230E+00 0.141363E+00
   Pulay + GGA                   : -.105854E+00 -.444763E-01 0.687964E-01
   Van der Waals               : 0.235171E-02 0.463958E-02 0.235594E-03
   ----------------------------------------------------------------
   Total forces(   6)            : 0.627113E+00 0.696393E+00 0.210395E+00
  atom #    7
   Hellmann-Feynman + Multipole  : -.587355E+01 -.911337E+01 0.920214E+01
   Pulay + GGA                   : 0.596701E+01 0.102006E+02 -.664150E+01
   Van der Waals               : -.101853E-02 0.198906E-02 0.378164E-02
   ----------------------------------------------------------------
   Total forces(   7)            : 0.924468E-01 0.108918E+01 0.256442E+01
  atom #    8
   Hellmann-Feynman + Multipole  : -.374744E+00 -.760461E+00 -.451287E+00
   Pulay + GGA                   : 0.417823E-01 0.120142E+00 0.367443E-01
   Van der Waals               : 0.249461E-02 0.160162E-03 0.353699E-02
   ----------------------------------------------------------------
   Total forces(   8)            : -.330467E+00 -.640159E+00 -.411005E+00
  atom #    9
   Hellmann-Feynman + Multipole  : -.227928E+00 0.398588E+00 -.231309E+01
   Pulay + GGA                   : -.418640E-01 0.429704E-01 -.125768E+00
   Van der Waals               : 0.933073E-03 -.592099E-03 0.100721E-02
   ----------------------------------------------------------------
   Total forces(   9)            : -.268859E+00 0.440966E+00 -.243785E+01
  atom #   10
   Hellmann-Feynman + Multipole  : 0.515755E+01 -.653510E+01 -.803795E+01
   Pulay + GGA                   : -.676757E+01 0.836118E+01 0.102078E+02
   Van der Waals               : -.781183E-03 -.915519E-03 -.346722E-02
   ----------------------------------------------------------------
   Total forces(  10)            : -.161080E+01 0.182517E+01 0.216636E+01
  atom #   11
   Hellmann-Feynman + Multipole  : -.386164E+00 0.275873E+00 -.219742E+01
   Pulay + GGA                   : 0.115317E-01 0.912564E-02 0.124047E+00
   Van der Waals               : 0.253354E-03 -.904358E-03 -.222659E-02
   ----------------------------------------------------------------
   Total forces(  11)            : -.374379E+00 0.284094E+00 -.207560E+01
  atom #   12
   Hellmann-Feynman + Multipole  : 0.182160E+01 -.190185E+01 0.555668E+00
   Pulay + GGA                   : -.874459E-01 0.948765E-01 -.108550E-01
   Van der Waals               : -.184478E-02 -.123425E-02 -.123784E-02
   ----------------------------------------------------------------
   Total forces(  12)            : 0.173231E+01 -.180821E+01 0.543575E+00
  atom #   13
   Hellmann-Feynman + Multipole  : -.186646E+01 -.367043E+01 -.161213E+02
   Pulay + GGA                   : 0.315351E+01 0.442752E+01 0.141384E+02
   Van der Waals               : -.669812E-02 -.733366E-02 -.468283E-02
   ----------------------------------------------------------------
   Total forces(  13)            : 0.128034E+01 0.749762E+00 -.198760E+01
  atom #   14
   Hellmann-Feynman + Multipole  : -.487474E+00 -.326818E+00 0.182874E+00
   Pulay + GGA                   : 0.851592E-01 0.728790E-01 0.606467E-01
   Van der Waals               : -.417848E-02 -.239024E-02 0.989623E-03
   ----------------------------------------------------------------
   Total forces(  14)            : -.406493E+00 -.256329E+00 0.244510E+00
  atom #   15
   Hellmann-Feynman + Multipole  : -.422811E+00 -.315977E+00 0.127971E+01
   Pulay + GGA                   : -.438494E-01 -.734003E-02 0.654551E-01
   Van der Waals               : -.763354E-04 -.177181E-02 -.663950E-02
   ----------------------------------------------------------------
   Total forces(  15)            : -.466737E+00 -.325089E+00 0.133853E+01
  Timings for vdw_correction_hirshfeld (Tkatchenko-Scheffler 2009):
  | CPU time:        5.267 s, Wall clock time:        5.268 s.
  Removing unitary transformations (pure translations, rotations) from forces on atoms.
  Atomic forces before filtering:
  | Net force on center of mass :  0.795696E-02 -.217757E-02 0.110978E-01 eV/A
  | Net torque on center of mass:  0.980273E-02 -.148728E-01 0.493758E-04 eV
  Atomic forces after filtering:
  | Net force on center of mass :  -.356812E-15 0.713624E-15 -.356812E-15 eV/A
  | Net torque on center of mass:  0.165215E-14 0.264344E-14 -.122731E-14 eV
 
  Energy and forces in a compact form:
  | Total energy uncorrected      :         -0.104146348491497E+05 eV
  | Total energy corrected        :         -0.104146348491497E+05 eV  <-- do not rely on this value for anything but (periodic) metals
  | Electronic free energy        :         -0.104146348491497E+05 eV
  Total atomic forces (unitary forces cleaned) [eV/Ang]:
  |   1          0.819509706651763E+00          0.275426457700000E+01         -0.178766551405490E+01
  |   2          0.199631672053524E+01         -0.308102741197743E+01          0.127520257823193E+01
  |   3         -0.207062840738710E+01         -0.437329662959532E+00         -0.103043343041891E+00
  |   4         -0.715619943349801E+00         -0.187147101335683E+01         -0.451580120286948E+00
  |   5         -0.299438790424860E+00          0.578061544405889E+00          0.919591505346184E+00
  |   6          0.626732589094368E+00          0.696699587450837E+00          0.210164032823275E+00
  |   7          0.914960395739237E-01          0.108910287049540E+01          0.256385903661443E+01
  |   8         -0.331332641049972E+00         -0.640209536019946E+00         -0.411735488439915E+00
  |   9         -0.269970584305126E+00          0.440796980571826E+00         -0.243840495897016E+01
  |  10         -0.161092980561371E+01          0.182553302373043E+01          0.216554689287868E+01
  |  11         -0.374330415219550E+00          0.284566323597484E+00         -0.207642779249447E+01
  |  12          0.173217145232767E+01         -0.180784050553385E+01          0.542819157561890E+00
  |  13          0.127991597592409E+01          0.749896736261761E+00         -0.198883520296268E+01
  |  14         -0.406847067772694E+00         -0.256179008700379E+00          0.243083152974764E+00
  |  15         -0.467044828984242E+00         -0.324864504965655E+00          0.133742606381981E+01
 
  ------------------------------------ 
  Start decomposition of the XC Energy 
  ------------------------------------ 
  Hartree-Fock part   :          0.000000000 Ha              0.000000000 eV
  ------------------------------------ 
  X Energy            :        -44.968935789 Ha          -1223.667002323 eV
  C Energy GGA        :         -1.637345868 Ha            -44.554447970 eV
  Total XC Energy     :        -46.606281657 Ha          -1268.221450293 eV
  LDA X and C from self-consistent density 
  X Energy LDA        :        -40.528958238 Ha          -1102.849065993 eV
  C Energy LDA        :         -3.300585539 Ha            -89.813502168 eV
  ------------------------------------ 
  End decomposition of the XC Energy 
  ------------------------------------ 
  Performing Hirshfeld analysis of fragment charges and moments.
  ----------------------------------------------------------------------
  | Atom     1: O
  |   Hirshfeld charge        :     -0.35025099
  |   Free atom volume        :     23.95238533
  |   Hirshfeld volume        :     23.73085474
  |   Hirshfeld dipole vector :      0.01512494       0.05784770       0.03100866
  |   Hirshfeld dipole moment :      0.06735471
  |   Hirshfeld second moments:      0.02542252      -0.01287743       0.01682819
  |                                 -0.01287743      -0.05286481      -0.03168399
  |                                  0.01682819      -0.03168399      -0.07918593
  ----------------------------------------------------------------------
  | Atom     2: H
  |   Hirshfeld charge        :      0.06531533
  |   Free atom volume        :     10.44207651
  |   Hirshfeld volume        :      8.36694196
  |   Hirshfeld dipole vector :     -0.02493270       0.03881580      -0.00869706
  |   Hirshfeld dipole moment :      0.04694619
  |   Hirshfeld second moments:      0.07111173       0.03035113       0.00102041
  |                                  0.03035113       0.02850312       0.00780553
  |                                  0.00102041       0.00780553       0.06299660
  ----------------------------------------------------------------------
  | Atom     3: H
  |   Hirshfeld charge        :      0.09840118
  |   Free atom volume        :     10.44207651
  |   Hirshfeld volume        :      7.91856006
  |   Hirshfeld dipole vector :      0.10654825       0.02410062       0.01827436
  |   Hirshfeld dipole moment :      0.11075794
  |   Hirshfeld second moments:      0.08559644      -0.01748703      -0.00362784
  |                                 -0.01748703       0.07607565      -0.01540898
  |                                 -0.00362784      -0.01540898       0.06391702
  ----------------------------------------------------------------------
  | Atom     4: O
  |   Hirshfeld charge        :     -0.30584998
  |   Free atom volume        :     23.95238533
  |   Hirshfeld volume        :     22.34214210
  |   Hirshfeld dipole vector :     -0.02656634       0.02061007       0.01241187
  |   Hirshfeld dipole moment :      0.03584132
  |   Hirshfeld second moments:      0.01929020       0.05485213      -0.01056811
  |                                  0.05485213       0.01256922       0.01812835
  |                                 -0.01056811       0.01812835      -0.01093774
  ----------------------------------------------------------------------
  | Atom     5: H
  |   Hirshfeld charge        :      0.07270348
  |   Free atom volume        :     10.44207651
  |   Hirshfeld volume        :      7.90530413
  |   Hirshfeld dipole vector :      0.01741508       0.04456199       0.03150362
  |   Hirshfeld dipole moment :      0.05728467
  |   Hirshfeld second moments:      0.08726190      -0.00035242      -0.01080702
  |                                 -0.00035242       0.04061462      -0.01864866
  |                                 -0.01080702      -0.01864866       0.07123504
  ----------------------------------------------------------------------
  | Atom     6: H
  |   Hirshfeld charge        :      0.12415142
  |   Free atom volume        :     10.44207651
  |   Hirshfeld volume        :      6.86347676
  |   Hirshfeld dipole vector :     -0.10116178      -0.06185986       0.01931826
  |   Hirshfeld dipole moment :      0.12013969
  |   Hirshfeld second moments:      0.09303011       0.01329395      -0.00001842
  |                                  0.01329395       0.10730805       0.01232174
  |                                 -0.00001842       0.01232174       0.09713800
  ----------------------------------------------------------------------
  | Atom     7: O
  |   Hirshfeld charge        :     -0.17494449
  |   Free atom volume        :     23.95238533
  |   Hirshfeld volume        :     19.93141537
  |   Hirshfeld dipole vector :      0.03289457      -0.00918543      -0.01565272
  |   Hirshfeld dipole moment :      0.03756904
  |   Hirshfeld second moments:      0.04831942       0.02040538       0.02921867
  |                                  0.02040538       0.09463741       0.01214177
  |                                  0.02921867       0.01214177       0.11159217
  ----------------------------------------------------------------------
  | Atom     8: H
  |   Hirshfeld charge        :      0.18125325
  |   Free atom volume        :     10.44207651
  |   Hirshfeld volume        :      6.04338144
  |   Hirshfeld dipole vector :      0.05439777       0.09051481       0.04211474
  |   Hirshfeld dipole moment :      0.11369125
  |   Hirshfeld second moments:      0.10898723      -0.00433867      -0.00371663
  |                                 -0.00433867       0.12528672      -0.00487531
  |                                 -0.00371663      -0.00487531       0.14251376
  ----------------------------------------------------------------------
  | Atom     9: H
  |   Hirshfeld charge        :      0.17400670
  |   Free atom volume        :     10.44207651
  |   Hirshfeld volume        :      5.67313450
  |   Hirshfeld dipole vector :     -0.01752139       0.00917101      -0.12015536
  |   Hirshfeld dipole moment :      0.12177199
  |   Hirshfeld second moments:      0.12677189       0.01163654       0.00855812
  |                                  0.01163654       0.14115247       0.00427599
  |                                  0.00855812       0.00427599       0.13000817
  ----------------------------------------------------------------------
  | Atom    10: O
  |   Hirshfeld charge        :     -0.14595701
  |   Free atom volume        :     23.95238533
  |   Hirshfeld volume        :     19.66821231
  |   Hirshfeld dipole vector :      0.00395509      -0.00922535      -0.01291611
  |   Hirshfeld dipole moment :      0.01635774
  |   Hirshfeld second moments:      0.08456902      -0.02727625       0.01234798
  |                                 -0.02727625       0.08183290      -0.00978264
  |                                  0.01234798      -0.00978264       0.11028871
  ----------------------------------------------------------------------
  | Atom    11: H
  |   Hirshfeld charge        :      0.18303517
  |   Free atom volume        :     10.44207651
  |   Hirshfeld volume        :      5.47443500
  |   Hirshfeld dipole vector :      0.02240516      -0.01634834       0.11565213
  |   Hirshfeld dipole moment :      0.11893138
  |   Hirshfeld second moments:      0.14134284      -0.01062403       0.00058582
  |                                 -0.01062403       0.13722502      -0.00057308
  |                                  0.00058582      -0.00057308       0.12973911
  ----------------------------------------------------------------------
  | Atom    12: H
  |   Hirshfeld charge        :      0.18603109
  |   Free atom volume        :     10.44207651
  |   Hirshfeld volume        :      5.72119720
  |   Hirshfeld dipole vector :     -0.08326859       0.07920304      -0.02459016
  |   Hirshfeld dipole moment :      0.11752215
  |   Hirshfeld second moments:      0.12650403      -0.00333345       0.00203496
  |                                 -0.00333345       0.12529166       0.00140104
  |                                  0.00203496       0.00140104       0.14391628
  ----------------------------------------------------------------------
  | Atom    13: O
  |   Hirshfeld charge        :     -0.32489801
  |   Free atom volume        :     23.95238533
  |   Hirshfeld volume        :     22.19131196
  |   Hirshfeld dipole vector :      0.00972953      -0.00167622       0.05784505
  |   Hirshfeld dipole moment :      0.05868154
  |   Hirshfeld second moments:      0.03709486       0.05539986      -0.00511822
  |                                  0.05539986      -0.01201410       0.00240240
  |                                 -0.00511822       0.00240240      -0.00662327
  ----------------------------------------------------------------------
  | Atom    14: H
  |   Hirshfeld charge        :      0.13489575
  |   Free atom volume        :     10.44207651
  |   Hirshfeld volume        :      6.50706637
  |   Hirshfeld dipole vector :      0.10092904       0.06436614       0.03842056
  |   Hirshfeld dipole moment :      0.12572116
  |   Hirshfeld second moments:      0.11063603       0.01279880      -0.01132707
  |                                  0.01279880       0.09875114      -0.00499599
  |                                 -0.01132707      -0.00499599       0.11244739
  ----------------------------------------------------------------------
  | Atom    15: H
  |   Hirshfeld charge        :      0.08210445
  |   Free atom volume        :     10.44207651
  |   Hirshfeld volume        :      7.67701528
  |   Hirshfeld dipole vector :     -0.02812759      -0.02252595       0.04156154
  |   Hirshfeld dipole moment :      0.05500856
  |   Hirshfeld second moments:      0.07258497      -0.00146116       0.03372510
  |                                 -0.00146116       0.07845061       0.01478126
  |                                  0.03372510       0.01478126       0.06382269
  ----------------------------------------------------------------------


------------------------------------------------------------------------------
  Final output of selected total energy values:

  The following output summarizes some interesting total energy values
  at the end of a run (AFTER all relaxation, molecular dynamics, etc.).

  | Total energy of the DFT / Hartree-Fock s.c.f. calculation      :         -10414.634849150 eV
  | Final zero-broadening corrected energy (caution - metals only) :         -10414.634849150 eV
  | For reference only, the value of 1 Hartree used in FHI-aims is :             27.211384500 eV

  Before relying on these values, please be sure to understand exactly which
  total energy value is referred to by a given number. Different objects may
  all carry the same name 'total energy'. Definitions:

  Total energy of the DFT / Hartree-Fock s.c.f. calculation:
  | Note that this energy does not include ANY quantities calculated after the
  | s.c.f. cycle, in particular not ANY RPA, MP2, etc. many-body perturbation terms.

  Final zero-broadening corrected energy:
  | For metallic systems only, a broadening of the occupation numbers at the Fermi
  | level can be extrapolated back to zero broadening by an electron-gas inspired
  | formula. For all systems that are not real metals, this value can be
  | meaningless and should be avoided.

------------------------------------------------------------------------------

------------------------------------------------------------
          Leaving FHI-aims.
          Date     :  20150727, Time     :  114945.391

          Computational steps:
          | Number of self-consistency cycles          :           16

          Detailed time accounting                     :  max(cpu_time)    wall_clock(cpu1)
          | Total time                                 :       37.722 s          37.747 s
          | Preparation time                           :        0.171 s           0.691 s
          | Grid partitioning                          :        0.138 s           0.138 s
          | Preloading free-atom quantities on grid    :        0.014 s           0.014 s
          | Free-atom superposition energy             :        0.065 s           0.065 s
          | Total time for integrations                :       16.049 s          16.047 s
          | Total time for solution of K.-S. equations :        1.061 s           1.063 s
          | Total time for density & force components  :       12.904 s          12.904 s
          | Total time for mixing                      :        0.208 s           0.208 s
          | Total time for Hartree multipole update    :        0.079 s           0.076 s
          | Total time for Hartree multipole sum       :        6.223 s           6.225 s
          | Total time for total energy evaluation     :        0.003 s           0.008 s
          | Total time for scaled ZORA corrections     :        0.000 s           0.000 s
          | Total time for TS (2009) vdW correction    :        0.051 s           0.052 s

          Have a nice day.
------------------------------------------------------------
