  MPI-parallelism will be employed.
------------------------------------------------------------
          Invoking FHI-aims ...
          Version 081213
          Compiled on 2013/08/29 at 17:41:06 on host generoso.

          When using FHI-aims, please cite the following reference:

          Volker Blum, Ralf Gehrke, Felix Hanke, Paula Havu,
          Ville Havu, Xinguo Ren, Karsten Reuter, and Matthias Scheffler,
          'Ab Initio Molecular Simulations with Numeric Atom-Centered Orbitals: FHI-aims',
          Computer Physics Communications 180, 2175-2196 (2009)

          For any questions about FHI-aims, please visit the aimsclub website
          with its forums and wiki. Contributions to both the forums and the
          wiki are warmly encouraged - they are for you, and everyone is welcome there.

------------------------------------------------------------

  Date     :  20150727, Time     :  121156.588
  Time zero on CPU 1             :   0.419930000000000E-01  s.
  Internal wall clock time zero  :           207231116.588  s.

  Using        8 parallel tasks.
  Task        0 on host gen60 reporting.
  Task        1 on host gen60 reporting.
  Task        2 on host gen60 reporting.
  Task        3 on host gen60 reporting.
  Task        4 on host gen60 reporting.
  Task        5 on host gen60 reporting.
  Task        6 on host gen60 reporting.
  Task        7 on host gen60 reporting.

  Performing system and environment tests:
  | Environment variable OMP_NUM_THREADS correctly set to 1.
  | Checking for scalapack...
  | No scalapack compiled in.

  Obtaining array dimensions for all initial allocations:
  
  -----------------------------------------------------------------------
  Parsing control.in (first pass over file, find array dimensions only).
  The contents of control.in will be repeated verbatim below
  unless switched off by setting 'verbatim_writeout .false.' .
  in the first line of control.in .
  -----------------------------------------------------------------------
  
  #########################################################################################
  #
  #  Volker Blum, FHI 2008 : Test run input file control.in
  #
  #########################################################################################
  #
  #  Physical model
  #
    xc                 rpbe
    spin               none
    relativistic       atomic_zora scalar
    charge             0.
   vdw_correction_hirshfeld
  #
  #  SCF convergence
  #
    occupation_type    gaussian 0.01
    mixer              pulay
      n_max_pulay        10
      charge_mix_param   0.1
    sc_accuracy_rho    5E-5
    sc_accuracy_eev    5E-3
    sc_accuracy_etot   5E-6
    sc_iter_limit      3000
  #
  #  Eigenvalue solver
  #
    KS_method          lapack
      empty_states       8
      basis_threshold    0.e-5
  #
  #  Efficiency
  #
  #   all previous settings are now default, except stratmann still
  #   undecided. Continue to handle stratmann with care, if at all.
  #
  #  partition_type stratmann
    partition_type rho_r2
  #  hartree_partition_type stratmann
  #
  #  Oprions for large clusters (100's of atoms: memory saving / better scaling)
  #
  # for periodic systems:
  #
    density_update_method orbital
    packed_matrix_format none
  #  k_grid 6 6 6
  #  output k_eigenvalue 1
  #  distributed_spline_storage .true.
  #
  #  Relaxation
  #
  #  relax_geometry   bfgs 5.e-3
    sc_accuracy_forces 5.E-4
    final_forces_cleaned .true.
  #
  #  Output options
  #
  #  output mulliken
    output Hirshfeld
  #  output dipole
  
  #harmonic_length_scale 0.001
  
  ################################################################################
  #
  #  FHI-aims code project
  #  VB, Fritz-Haber Institut, 2007
  #
  #  Suggested "safe" defaults for H atom (to be pasted into control.in file)
  #  Basis constructed for a non-relativistic H2 molecule using the
  #  PW-LDA functional.
  #
  ################################################################################
    species        H
  #     global species definitions
      nucleus             1
      cut_pot             4.0  2.0  1.0
      cut_free_atom       finite 8.0
      logarithmic         0.00010000 100.00  1.0123
      basis_dep_cutoff    1d-4  # 1d-4 is safe default - please check 5d-4 if you wish!
      radial_base         24 7.0
      radial_multiplier   2
      angular_grids       specified
        division   0.2783  110
        division   0.3822  194
        division   0.5626  302
  #      division   0.5922  434
  #      division   0.6227  590
  #      division   0.7206  770
        outer_grid  302
      l_hartree           4
  ################################################################################
  #
  #  Definition of "minimal" basis
  #
  ################################################################################
  #     valence basis states
      valence      1  s   1.
  #     ion occupancy
      ion_occ      1  s   0.5
  ################################################################################
  #
  #  Suggested additional basis functions. For production calculations,
  #  uncomment them one after another (the most important basis functions are
  #  listed first).
  #
  ################################################################################
  #  "First tier" - improvements: -1014.90 meV to -62.69 meV
       hydro 2 s 2.1
       hydro 2 p 3.5
  #  "Second tier" - improvements: -12.89 meV to -1.83 meV
       hydro 1 s 0.85
       hydro 2 p 3.7
       hydro 2 s 1.2
       hydro 3 d 7
  #  "Third tier" - improvements: -0.25 meV to -0.12 meV
  #     hydro 4 f 11.2
  #     hydro 3 p 4.8
  #     hydro 4 d 9
  #     hydro 3 s 3.2
  
  ################################################################################
  #
  #  FHI-aims code project
  #  VB, Fritz-Haber Institut, 2007
  #
  #  Suggested "safe" defaults for O atom (to be pasted into control.in file)
  #  All values have been tested for a non-relativistic, non-spinpolarized O2
  #  molecule using the PW-LDA functional. Validity for PBE is expected.
  #
  #  Constructed for dimers: 1.0 A, 1.208 A, 1.5 A, 2.0 A, 3.0 A
  #
  ################################################################################
    species        O
  #     global species definitions
      nucleus             8
      mass                15.9994
      l_hartree           4
      cut_pot             4.0  2.0  1.0
      cut_free_atom       finite 8.0
      basis_dep_cutoff    1d-4  # 1d-4 is safe default - please check 5d-4 if you wish!
      logarithmic         0.00010000 100.00  1.0123
      radial_base         36 7.0
      radial_multiplier   2
       angular_grids specified
        division   0.4087  110
        division   0.5181  194
        division   0.6184  302
  #      division   0.7315  434
  #      division   0.7934  590
  #      division   0.9656  770
  #      division   1.4041  974
  #      outer_grid 974
        outer_grid 302
  ################################################################################
  #
  #  Definition of "minimal" basis
  #
  ################################################################################
  #     valence basis states
      valence      2  s   2.
      valence      2  p   4.
  #     ion occupancy
      ion_occ      2  s   1.
      ion_occ      2  p   3.
  ################################################################################
  #
  #  Suggested additional basis functions. For production calculations,
  #  uncomment them one after another (the most important basis functions are
  #  listed first).
  #
  ################################################################################
  #  "First tier" - improvements: -699.05 meV to -159.38 meV
       hydro 2 p 1.8
       hydro 3 d 7.6
       hydro 3 s 6.4
  #  "Second tier" - improvements: -49.91 meV to -5.39 meV
       hydro 4 f 11.6
       hydro 3 p 6.2
       hydro 3 d 5.6
       hydro 5 g 17.6
       hydro 1 s 0.75
  #  "Third tier" - improvements: -2.83 meV to -0.50 meV
  #     ionic 2 p auto
  #     hydro 4 f 10.8
  #     hydro 4 d 4.7
  #     hydro 2 s 6.8
  #  "Fourth tier" - improvements: -0.40 meV to -0.12 meV
  #     hydro 3 p 5
  #     hydro 3 s 3.3
  #     hydro 5 g 15.6
  #     hydro 4 f 17.6
  #     hydro 4 d 14
  # Further basis functions - -0.08 meV and below
  #     hydro 3 s 2.1
  #     hydro 4 d 11.6
  #     hydro 3 p 16
  #     hydro 2 s 17.2
  
  
  -----------------------------------------------------------------------
  Completed first pass over input file control.in .
  -----------------------------------------------------------------------
  
  
  -----------------------------------------------------------------------
  Parsing geometry.in (first pass over file, find array dimensions only).
  The contents of geometry.in will be repeated verbatim below
  unless switched off by setting 'verbatim_writeout .false.' .
  in the first line of geometry.in .
  -----------------------------------------------------------------------
  
  atom      -4.053030000      0.065001000     -1.525160000  O
  atom      -4.566710000      0.974813000     -1.912820000  H
  atom      -3.067820000      0.330172000     -1.477310000  H
  atom      -4.581760000     -0.256435000      0.939478000  O
  atom      -4.349860000      0.471090000      1.504340000  H
  atom      -5.393870000     -0.726611000      1.228070000  H
  atom      -1.975360000      2.858040000      0.453140000  O
  atom      -1.223550000      3.375850000      0.786238000  H
  atom      -2.537520000      2.567960000      1.156120000  H
  atom      -4.066610000      4.258280000     -0.900064000  O
  atom      -3.224110000      3.876870000     -0.569443000  H
  atom      -3.737450000      5.116530000     -1.322720000  H
  
  -----------------------------------------------------------------------
  Completed first pass over input file geometry.in .
  -----------------------------------------------------------------------
  
 
  Basic array size parameters: 
  | Number of species                 :        2
  | Number of atoms                   :       12
  | Max. basis fn. angular momentum   :        4
  | Max. atomic/ionic basis occupied n:        2
  | Max. number of basis fn. types    :        2
  | Max. radial fns per species/type  :        8
  | Max. logarithmic grid size        :     1301
  | Max. radial integration grid size :       73
  | Max. angular integration grid size:      302
  | Max. angular grid division number :        8
  | Radial grid for Hartree potential :     1301
  | Number of spin channels           :        1

------------------------------------------------------------
          Reading file control.in.
------------------------------------------------------------
  XC: Using RPBE gradient-corrected functionals.
  Spin treatment: No spin polarisation.
  Scalar relativistic treatment of kinetic energy: on-site free-atom approximation to ZORA.
  Charge =   0.000000E+00: Neutral system requested explicitly.
  Using non-empirical van der Waals correction (Hirshfeld partitioning):
  Occupation type: Gaussian broadening, width =   0.100000E-01 eV.
  Using pulay charge density mixing.
  Pulay mixing - number of memorized iterations:   10
  Charge density mixing - mixing parameter:     0.1000
  Convergence accuracy of self-consistent charge density: 0.5000E-04
  Convergence accuracy of sum of eigenvalues: 0.5000E-02
  Convergence accuracy of total energy: 0.5000E-05
  Maximum number of s.-c. iterations  :  3000
  Kohn-Sham eigenvalues and eigenfunctions calculated by lapack diagonalisation (D&C).
  Number of empty states per atom:        8
  Threshold for basis singularities: 0.0000E+00
  Partition function in integrals calculations: rho / r^2
 Using packed matrix format           0
  Convergence accuracy of forces: 0.5000E-03
  Cleaning forces before final output.
  Hirshfeld charge analysis will be performed.
 
  Reading configuration options for species H                   .
  | Found nuclear charge :   1.0000
  | Found cutoff potl. onset [A], width [A], scale factor :    4.00000    2.00000    1.00000
  | Found cutoff specification for free atom: Cutoff potential begins at    8.00000 A.
  | Found logarithmic grid data [bohr] : 0.1000E-03 0.1000E+03 0.1012E+01
  | Threshold for basis-dependent cutoff potential is   0.100000E-03
  | Found data for basic radial integration grid :    24 points, outermost radius =    7.000 A
  | Found multiplier for basic radial grid :   2
  | Found angular grid specification: user-specified.
  | Specified grid contains     4 separate shells.
  | Check grid settings after all constraints further below.
  | Found l_max for Hartree potential  :   4
  | Found free-atom valence shell :  1 s   1.000
  | No ionic wave fns used. Skipping ion_occ.
  | Found hydrogenic basis function :  2 s   2.100
  | Found hydrogenic basis function :  2 p   3.500
  | Found hydrogenic basis function :  1 s   0.850
  | Found hydrogenic basis function :  2 p   3.700
  | Found hydrogenic basis function :  2 s   1.200
  | Found hydrogenic basis function :  3 d   7.000
  Species H                   : Missing cutoff potential type.
  Defaulting to exp(1/x)/(1-x)^2 type cutoff potential.
  Species H : On-site basis accuracy parameter (for Gram-Schmidt orthonormalisation) not specified.
  Using default value basis_acc =  0.1000000E-03.
  Species H                   : Using default innermost maximum threshold i_radial=  2 for radial functions.
  Species H                   : Basic radial grid will be enhanced according to radial_multiplier =   2, to contain    49 grid points.
 
  Reading configuration options for species O                   .
  | Found nuclear charge :   8.0000
  | Found atomic mass :    15.9994000000000      amu
  | Found l_max for Hartree potential  :   4
  | Found cutoff potl. onset [A], width [A], scale factor :    4.00000    2.00000    1.00000
  | Found cutoff specification for free atom: Cutoff potential begins at    8.00000 A.
  | Threshold for basis-dependent cutoff potential is   0.100000E-03
  | Found logarithmic grid data [bohr] : 0.1000E-03 0.1000E+03 0.1012E+01
  | Found data for basic radial integration grid :    36 points, outermost radius =    7.000 A
  | Found multiplier for basic radial grid :   2
  | Found angular grid specification: user-specified.
  | Specified grid contains     4 separate shells.
  | Check grid settings after all constraints further below.
  | Found free-atom valence shell :  2 s   2.000
  | Found free-atom valence shell :  2 p   4.000
  | No ionic wave fns used. Skipping ion_occ.
  | No ionic wave fns used. Skipping ion_occ.
  | Found hydrogenic basis function :  2 p   1.800
  | Found hydrogenic basis function :  3 d   7.600
  | Found hydrogenic basis function :  3 s   6.400
  | Found hydrogenic basis function :  4 f  11.600
  | Found hydrogenic basis function :  3 p   6.200
  | Found hydrogenic basis function :  3 d   5.600
  | Found hydrogenic basis function :  5 g  17.600
  | Found hydrogenic basis function :  1 s   0.750
  Species O                   : Missing cutoff potential type.
  Defaulting to exp(1/x)/(1-x)^2 type cutoff potential.
  Species O : On-site basis accuracy parameter (for Gram-Schmidt orthonormalisation) not specified.
  Using default value basis_acc =  0.1000000E-03.
  Species O                   : Using default innermost maximum threshold i_radial=  2 for radial functions.
  Species O                   : Basic radial grid will be enhanced according to radial_multiplier =   2, to contain    73 grid points.
 
  Finished reading input file 'control.in'. Consistency checks are next.
 
  Target number of points in a grid batch is not set. Defaulting to  100
  Method for grid partitioning is not set. Defaulting to parallel hash+maxmin partitioning.
  Batch size limit is not set. Defaulting to    200
  By default, will store active basis functions for each batch.
  If in need of memory, prune_basis_once .false. can be used to disable this option.
  communication_type for Hartree potential was not specified.
  Defaulting to calc_hartree .
  Pulay mixer: Number of initial linear mixing iterations not set.
  Defaulting to    0 iterations.
  Work space size for distributed Hartree potential not set.
  Defaulting to   0.200000E+03 MB.
  Algorithm-dependent basis array size parameters:
  | n_max_pulay                         :       10
  Geometry relaxation not requested: no relaxation will be performed.
  Handling of forces: Unphysical translation and rotation will be removed from forces.
  No accuracy limit for integral partition fn. given. Defaulting to 0.1000E-14.
  No threshold value for u(r) in integrations given. Defaulting to 0.1000E-05.
  No accuracy for occupation numbers given. Defaulting to 0.1000E-07.
  No threshold value for occupation numbers given. Defaulting to 0.0000E+00.
  No accuracy for fermi level given. Defaulting to 0.1000E-19.
  Maximum # of iterations to find E_F not set. Defaulting to  200.
  Will not use alltoall communication since running on < 1024 CPUs.
  Partitioning for Hartree potential was not defined. Using partition_type for integrals.
  | Reporting present value of keyword multip_moments_threshold  :       0.10000000E-09
  | This value may affect high angular momentum components of the Hartree potential in periodic systems.
  No q(lm)/r^(l+1) cutoff set for long-range Hartree potential.
  | Using default value of  0.100000E-09 .
  | Verify using the multipole_threshold keyword.
  Defaulting to new monopole extrapolation.
  Density update method: Loop over occupied states selected for charge density update.
------------------------------------------------------------


------------------------------------------------------------
          Reading geometry description geometry.in.
------------------------------------------------------------
  Input structure read successfully.
  The structure contains       12 atoms,  and a total of         40.000 electrons.

  Input geometry:
  | No unit cell requested.
  | Atomic structure:
  |       Atom                x [A]            y [A]            z [A]
  |    1: Species O             -4.053030         0.065001        -1.525160
  |    2: Species H             -4.566710         0.974813        -1.912820
  |    3: Species H             -3.067820         0.330172        -1.477310
  |    4: Species O             -4.581760        -0.256435         0.939478
  |    5: Species H             -4.349860         0.471090         1.504340
  |    6: Species H             -5.393870        -0.726611         1.228070
  |    7: Species O             -1.975360         2.858040         0.453140
  |    8: Species H             -1.223550         3.375850         0.786238
  |    9: Species H             -2.537520         2.567960         1.156120
  |   10: Species O             -4.066610         4.258280        -0.900064
  |   11: Species H             -3.224110         3.876870        -0.569443
  |   12: Species H             -3.737450         5.116530        -1.322720
  |

  | The smallest distance between any two atoms is         0.94570141 AA.
  |
  | The first atom of this pair is atom number                      7 .
  | The second atom of this pair is atom number                     9 .

  Structure-dependent array size parameters: 
  | Maximum number of distinct radial functions  :       18
  | Maximum number of basis functions            :      276
  | Number of Kohn-Sham states (occupied + empty):       68
------------------------------------------------------------

------------------------------------------------------------
          Preparing all fixed parts of the calculation.
------------------------------------------------------------
  Determining machine precision:
    2.225073858507201E-308
  Setting up grids for atomic and cluster calculations.

  Creating wave function, potential, and density for free atoms.

  Species: H

  List of occupied orbitals and eigenvalues:
    n    l              occ      energy [Ha]    energy [eV]
    1    0           1.0000        -0.241408        -6.5691


  Species: O

  List of occupied orbitals and eigenvalues:
    n    l              occ      energy [Ha]    energy [eV]
    1    0           2.0000       -18.944147      -515.4965
    2    0           2.0000        -0.883529       -24.0421
    2    1           4.0000        -0.330176        -8.9845

  Creating fixed part of basis set: Ionic, confined, hydrogenic.
 
  H                    hydrogenic:
 
  List of hydrogenic basis orbitals: 
    n    l      effective z      eigenvalue [eV]  inner max. [A]     outer max. [A]     outer radius [A]   
    2    0         2.100000       -14.9965           0.193241           1.317192           5.372934
    2    1         3.500000       -41.6672           0.602363           0.602363           4.056010
    1    0         0.850000        -9.8292           0.624864           0.624864           5.372934
    2    1         3.700000       -46.5653           0.573616           0.573616           3.909951
    2    0         1.200000        -4.5995           0.334977           2.228160           5.505921
    3    2         7.000000       -74.0753           0.680692           0.680692           3.769152
 
 
  O                    hydrogenic:
 
  List of hydrogenic basis orbitals: 
    n    l      effective z      eigenvalue [eV]  inner max. [A]     outer max. [A]     outer radius [A]   
    2    1         1.800000       -11.0118           1.178546           1.178546           5.432516
    3    2         7.600000       -87.3182           0.624117           0.624117           3.541422
    3    0         6.400000       -61.9209           0.061166           1.081887           4.306510
    4    3        11.600000      -114.4238           0.731621           0.731621           3.584982
    3    1         6.200000       -58.1113           0.255677           1.030255           4.306510
    3    2         5.600000       -47.4081           0.847222           0.847222           4.413102
    5    4        17.600000      -168.5799           0.749730           0.749730           3.372413
    1    0         0.750000        -7.6499           0.705275           0.705275           5.366508
 

  Adding cutoff potential to free-atom effective potential.
  Creating atomic-like basis functions for current effective potential.

  Species H                   :

  List of atomic basis orbitals and eigenvalues:
    n    l      energy [Ha]    energy [eV]    outer radius [A]
    1    0        -0.241374        -6.5681       5.372934


  Species O                   :

  List of atomic basis orbitals and eigenvalues:
    n    l      energy [Ha]    energy [eV]    outer radius [A]
    1    0       -18.944147      -515.4965       1.415745
    2    0        -0.883529       -24.0421       5.048305
    2    1        -0.330173        -8.9845       5.301302

  Assembling full basis from fixed parts.
  | Species H :   atomic orbital   1 s accepted.
  | Species H :    hydro orbital   2 s accepted.
  | Species H :    hydro orbital   1 s accepted.
  | Species H :    hydro orbital   2 s accepted.
  | Species H :    hydro orbital   2 p accepted.
  | Species H :    hydro orbital   2 p accepted.
  | Species H :    hydro orbital   3 d accepted.
  | Species O :   atomic orbital   1 s accepted.
  | Species O :    hydro orbital   3 s accepted.
  | Species O :   atomic orbital   2 s accepted.
  | Species O :    hydro orbital   1 s accepted.
  | Species O :    hydro orbital   3 p accepted.
  | Species O :   atomic orbital   2 p accepted.
  | Species O :    hydro orbital   2 p accepted.
  | Species O :    hydro orbital   3 d accepted.
  | Species O :    hydro orbital   3 d accepted.
  | Species O :    hydro orbital   4 f accepted.
  | Species O :    hydro orbital   5 g accepted.
 
  Basis size parameters after reduction:
  | Total number of radial functions:       18
  | Total number of basis functions :      276
 
  Testing on-site integration grid accuracy.
  |  Species  Function  <phi|h_atom|phi> (log., in eV)  <phi|h_atom|phi> (rad., in eV)
           1        1                 -6.5683835025                 -6.5684759159
           1        2                 13.3711789951                 13.3708738703
           1        3                 23.6590910787                 23.6532055418
           1        4                 16.2963827186                 16.1870710655 ***
           1        5                 28.7627214838                 28.7627215090
           1        6                 59.5965249172                 59.5965950857
           1        7                 60.2220506392                 60.2220503827
           2        8               -515.4964576505               -515.4964530710
           2        9                 15.3030791347                 15.3030722972
           2       10                -21.7296094581                -21.7296135470
           2       11                 14.2969371730                 14.2969701621
           2       12                 21.0679693190                 21.0679697493
           2       13                 -2.3833606469                 -2.3833613176
           2       14                 13.7067136422                 13.7066766629
           2       15                 45.8013116808                 45.8013116965
           2       16                 52.2309815402                 52.2309831494
           2       17                 85.4120732416                 85.4120732763
           2       18                142.1019167745                142.1019167817
 * Note: Onsite integrals marked "***" above are less accurate than
 * onsite_accuracy_threshold =    0.03000 eV. Usually, this is harmless.
 * When in doubt, tighten the "radial" and/or "radial_multiplier" flags to check.

  Preparing densities etc. for the partition functions (integrals / Hartree potential).

  Preparations completed.
  max(cpu_time)          :      0.169 s.
  Wall clock time (cpu1) :      0.558 s.
------------------------------------------------------------

------------------------------------------------------------
          Begin self-consistency loop: Initialization.

          Date     :  20150727, Time     :  121157.172
------------------------------------------------------------

  Initializing index lists of integration centers etc. from given atomic structure:
  | Number of centers in hartree potential         :        12
  | Number of centers in hartree multipole         :        12
  | Number of centers in electron density summation:        12
  | Number of centers in basis integrals           :        12
  | Number of centers in integrals                 :        12
  Partitioning the integration grid into batches with parallel hashing+maxmin method.
  | Number of batches:     1590
  | Maximal batch size:     200
  | Minimal batch size:      49
  | Average batch size:      98.974
  | Standard deviation of batch sizes:      27.913

  Integration load balanced across     8 MPI tasks.
  Work distribution over tasks is as follows:
  Task     0 has      19681 integration points.
  Task     1 has      19716 integration points.
  Task     2 has      19613 integration points.
  Task     3 has      19725 integration points.
  Task     4 has      19620 integration points.
  Task     5 has      19715 integration points.
  Task     6 has      19678 integration points.
  Task     7 has      19620 integration points.
  Initializing partition tables, free-atom densities, potentials, etc. across the integration grid (initialize_grid_storage).
  | Net number of integration points:   157368
  | of which are non-zero points    :   156831
  Obtaining max. number of non-zero basis functions in each batch (get_n_compute_maxes).
  | Maximal number of non-zero basis functions:      274 in task     0
  | Maximal number of non-zero basis functions:      274 in task     1
  | Maximal number of non-zero basis functions:      273 in task     2
  | Maximal number of non-zero basis functions:      273 in task     3
  | Maximal number of non-zero basis functions:      274 in task     4
  | Maximal number of non-zero basis functions:      274 in task     5
  | Maximal number of non-zero basis functions:      273 in task     6
  | Maximal number of non-zero basis functions:      274 in task     7
  Integrating Hamiltonian matrix: batch-based integration.
  Time summed over all CPUs for integration: real work        4.262 s, elapsed        4.328 s
  Integrating overlap matrix.
  Time summed over all CPUs for integration: real work        2.264 s, elapsed        2.316 s

  Updating Kohn-Sham eigenvalues, eigenvectors, occupation numbers, and Fermi level.
  Solving generalized eigenproblem
  Updating Kohn-Sham eigenvalues and eigenfunctions.
  Transforming overlap matrix and checking for singularities.
  Overlap matrix is nonsingular:
  | Lowest eigenvalue:  0.373540E-03
  Solving real generalised eigenvalue problem by standard LAPACK (fast)
  Determining occupation numbers for Kohn-Sham eigenstates.
  | Chemical potential (Fermi level) in eV                 : -.61470021E+01
  | Error in electron count due to remaining E_F inaccuracy: 0.00000000E+00
  | Maximum occupation number of highest empty state:  0.00E+00

  Writing Kohn-Sham eigenvalues.

  State    Occupation    Eigenvalue [Ha]    Eigenvalue [eV]
      1       2.00000         -19.056646         -518.55773
      2       2.00000         -19.051948         -518.42987
      3       2.00000         -19.040117         -518.10794
      4       2.00000         -19.019443         -517.54537
      5       2.00000          -1.107296          -30.13107
      6       2.00000          -1.098545          -29.89292
      7       2.00000          -1.082884          -29.46676
      8       2.00000          -1.043125          -28.38486
      9       2.00000          -0.649334          -17.66927
     10       2.00000          -0.644393          -17.53482
     11       2.00000          -0.606382          -16.50050
     12       2.00000          -0.569983          -15.51003
     13       2.00000          -0.512668          -13.95042
     14       2.00000          -0.505304          -13.75002
     15       2.00000          -0.499113          -13.58156
     16       2.00000          -0.474615          -12.91492
     17       2.00000          -0.443231          -12.06092
     18       2.00000          -0.438922          -11.94368
     19       2.00000          -0.426587          -11.60804
     20       2.00000          -0.402361          -10.94881
     21       0.00000          -0.098643           -2.68422
     22       0.00000          -0.069428           -1.88923
     23       0.00000          -0.061317           -1.66853
     24       0.00000          -0.042822           -1.16525
     25       0.00000          -0.019063           -0.51872
     26       0.00000          -0.012525           -0.34083
     27       0.00000           0.037924            1.03196
     28       0.00000           0.047665            1.29704
     29       0.00000           0.072817            1.98146
     30       0.00000           0.077884            2.11933
     31       0.00000           0.089509            2.43567
     32       0.00000           0.091180            2.48113
     33       0.00000           0.102935            2.80099
     34       0.00000           0.106516            2.89844
     35       0.00000           0.117083            3.18600
     36       0.00000           0.118962            3.23712
     37       0.00000           0.129582            3.52610
     38       0.00000           0.146110            3.97587
     39       0.00000           0.151131            4.11247
     40       0.00000           0.168929            4.59680
     41       0.00000           0.178413            4.85486
     42       0.00000           0.181613            4.94195
     43       0.00000           0.232906            6.33771
     44       0.00000           0.247022            6.72181
     45       0.00000           0.261977            7.12875
     46       0.00000           0.263325            7.16543
     47       0.00000           0.281853            7.66962
     48       0.00000           0.301994            8.21768
     49       0.00000           0.326953            8.89685
     50       0.00000           0.345786            9.40931
     51       0.00000           0.356943            9.71290
     52       0.00000           0.377426           10.27029
     53       0.00000           0.384484           10.46233
     54       0.00000           0.400355           10.89422
     55       0.00000           0.413699           11.25732
     56       0.00000           0.419216           11.40744
     57       0.00000           0.422927           11.50843
     58       0.00000           0.440790           11.99450
     59       0.00000           0.455448           12.39337
     60       0.00000           0.461255           12.55140
     61       0.00000           0.484878           13.19420
     62       0.00000           0.514808           14.00864
     63       0.00000           0.536404           14.59629
     64       0.00000           0.553883           15.07192
     65       0.00000           0.570385           15.52097
     66       0.00000           0.607436           16.52917
     67       0.00000           0.623526           16.96701
     68       0.00000           0.647172           17.61045

  Highest occupied state (VBM) at    -10.94881064 eV
  | Occupation number:      2.00000000

  Lowest unoccupied state (CBM) at    -2.68422394 eV
  | Occupation number:      0.00000000

  Overall HOMO-LUMO gap:      8.26458670 eV.
  Calculating total energy contributions from superposition of free atom densities.

  Total energy components:
  | Sum of eigenvalues            :        -173.34579384 Ha       -4716.97904767 eV
  | XC energy correction          :         -36.40235424 Ha        -990.55845782 eV
  | XC potential correction       :          46.50373730 Ha        1265.43107644 eV
  | Free-atom electrostatic energy:        -143.22018066 Ha       -3897.21940397 eV
  | Hartree energy correction     :           0.00000000 Ha           0.00000000 eV
  | van der Waals energy corr.    :           0.00000000 Ha           0.00000000 eV
  | Entropy correction            :           0.00000000 Ha           0.00000000 eV
  | ---------------------------
  | Total energy                  :        -306.46459143 Ha       -8339.32583302 eV
  | Total energy, T -> 0          :        -306.46459143 Ha       -8339.32583302 eV  <-- do not rely on this value for anything but (periodic) metals
  | Electronic free energy        :        -306.46459143 Ha       -8339.32583302 eV

  Derived energy quantities:
  | Kinetic energy                :         303.20992773 Ha        8250.76192770 eV
  | Electrostatic energy          :        -573.27216492 Ha      -15599.52930290 eV
  | Energy correction for multipole
  | error in Hartree potential    :           0.00000000 Ha           0.00000000 eV
  | Sum of eigenvalues per atom                           :        -393.08158731 eV
  | Total energy (T->0) per atom                          :        -694.94381942 eV  <-- do not rely on this value for anything but (periodic) metals
  | Electronic free energy per atom                       :        -694.94381942 eV
  Initialize hartree_potential_storage
  Max. number of atoms included in rho_multipole:           12

  End scf initialization - timings             :  max(cpu_time)    wall_clock(cpu1)
  | Time for scf. initialization               :        1.223 s           1.213 s
  | Boundary condition initialization          :        0.000 s           0.000 s
  | Integration                                :        0.834 s           0.833 s
  | Solution of K.-S. eqns.                    :        0.119 s           0.119 s
  | Grid partitioning                          :        0.112 s           0.113 s
  | Preloading free-atom quantities on grid    :        0.013 s           0.014 s
  | Free-atom superposition energy             :        0.046 s           0.045 s
  | Total energy evaluation                    :        0.000 s           0.001 s
------------------------------------------------------------

------------------------------------------------------------
          Begin self-consistency iteration #    1

  Date     :  20150727, Time     :  121158.394
------------------------------------------------------------
  Evaluating new KS density.
  Integration grid: deviation in total charge (<rho> - N_e) =   1.421085E-14
  Pulay mixing of updated and previous charge densities.

  Evaluating partitioned Hartree potential by multipole expansion.
  | Analytical far-field extrapolation by fixed multipoles:
  | Hartree multipole sum: apparent total charge =  -0.132902E-05
  Summing up the Hartree potential.
  Time summed over all CPUs for potential: real work        1.654 s, elapsed        1.665 s
  | RMS charge density error from multipole expansion :   0.144550E-02

  Integrating Hamiltonian matrix: batch-based integration.
  Time summed over all CPUs for integration: real work        4.253 s, elapsed        4.332 s

  Updating Kohn-Sham eigenvalues, eigenvectors, occupation numbers, and Fermi level.
  Solving generalized eigenproblem
  Updating Kohn-Sham eigenvalues and eigenfunctions.
  Solving real generalised eigenvalue problem by standard LAPACK (fast)
  Determining occupation numbers for Kohn-Sham eigenstates.
  | Chemical potential (Fermi level) in eV                 : -.57434969E+01
  | Error in electron count due to remaining E_F inaccuracy: 0.00000000E+00
  | Maximum occupation number of highest empty state:  0.00E+00

  Writing Kohn-Sham eigenvalues.

  State    Occupation    Eigenvalue [Ha]    Eigenvalue [eV]
      1       2.00000         -18.984068         -516.58277
      2       2.00000         -18.967562         -516.13362
      3       2.00000         -18.961192         -515.96029
      4       2.00000         -18.940479         -515.39665
      5       2.00000          -1.073372          -29.20793
      6       2.00000          -1.055708          -28.72727
      7       2.00000          -1.043004          -28.38159
      8       2.00000          -1.000810          -27.23342
      9       2.00000          -0.620572          -16.88662
     10       2.00000          -0.607648          -16.53494
     11       2.00000          -0.572214          -15.57073
     12       2.00000          -0.534736          -14.55089
     13       2.00000          -0.476657          -12.97050
     14       2.00000          -0.461886          -12.56855
     15       2.00000          -0.461144          -12.54838
     16       2.00000          -0.432264          -11.76251
     17       2.00000          -0.407106          -11.07791
     18       2.00000          -0.394155          -10.72550
     19       2.00000          -0.385006          -10.47654
     20       2.00000          -0.356853           -9.71046
     21       0.00000          -0.089300           -2.42997
     22       0.00000          -0.059683           -1.62406
     23       0.00000          -0.052907           -1.43968
     24       0.00000          -0.035164           -0.95686
     25       0.00000          -0.008551           -0.23268
     26       0.00000          -0.004608           -0.12538
     27       0.00000           0.047885            1.30301
     28       0.00000           0.054276            1.47694
     29       0.00000           0.082459            2.24382
     30       0.00000           0.088470            2.40740
     31       0.00000           0.097301            2.64770
     32       0.00000           0.099524            2.70818
     33       0.00000           0.111148            3.02448
     34       0.00000           0.114186            3.10717
     35       0.00000           0.127233            3.46218
     36       0.00000           0.128534            3.49758
     37       0.00000           0.138525            3.76946
     38       0.00000           0.154683            4.20913
     39       0.00000           0.160961            4.37996
     40       0.00000           0.178038            4.84466
     41       0.00000           0.188847            5.13879
     42       0.00000           0.189698            5.16196
     43       0.00000           0.242880            6.60909
     44       0.00000           0.258192            7.02576
     45       0.00000           0.269127            7.32333
     46       0.00000           0.273207            7.43435
     47       0.00000           0.291044            7.91971
     48       0.00000           0.312867            8.51356
     49       0.00000           0.335340            9.12507
     50       0.00000           0.352884            9.60246
     51       0.00000           0.365910            9.95691
     52       0.00000           0.386845           10.52659
     53       0.00000           0.393932           10.71943
     54       0.00000           0.409925           11.15463
     55       0.00000           0.424098           11.54030
     56       0.00000           0.430363           11.71077
     57       0.00000           0.432563           11.77063
     58       0.00000           0.449570           12.23342
     59       0.00000           0.466240           12.68703
     60       0.00000           0.471668           12.83473
     61       0.00000           0.496791           13.51836
     62       0.00000           0.525717           14.30550
     63       0.00000           0.547680           14.90313
     64       0.00000           0.567375           15.43907
     65       0.00000           0.583141           15.86807
     66       0.00000           0.617878           16.81331
     67       0.00000           0.638441           17.37286
     68       0.00000           0.659323           17.94110

  Highest occupied state (VBM) at     -9.71046076 eV
  | Occupation number:      2.00000000

  Lowest unoccupied state (CBM) at    -2.42996598 eV
  | Occupation number:      0.00000000

  Overall HOMO-LUMO gap:      7.28049478 eV.

  Total energy components:
  | Sum of eigenvalues            :        -171.47286774 Ha       -4666.01413529 eV
  | XC energy correction          :         -36.60223816 Ha        -995.99757620 eV
  | XC potential correction       :          46.76570597 Ha        1272.55960651 eV
  | Free-atom electrostatic energy:        -143.22018066 Ha       -3897.21940397 eV
  | Hartree energy correction     :          -1.81080271 Ha         -49.27444887 eV
  | van der Waals energy corr.    :           0.00000000 Ha           0.00000000 eV
  | Entropy correction            :           0.00000000 Ha           0.00000000 eV
  | ---------------------------
  | Total energy                  :        -306.34038330 Ha       -8335.94595782 eV
  | Total energy, T -> 0          :        -306.34038330 Ha       -8335.94595782 eV  <-- do not rely on this value for anything but (periodic) metals
  | Electronic free energy        :        -306.34038330 Ha       -8335.94595782 eV

  Derived energy quantities:
  | Kinetic energy                :         304.39608222 Ha        8283.03883350 eV
  | Electrostatic energy          :        -574.13422735 Ha      -15622.98721512 eV
  | Energy correction for multipole
  | error in Hartree potential    :          -0.00002898 Ha          -0.00078857 eV
  | Sum of eigenvalues per atom                           :        -388.83451127 eV
  | Total energy (T->0) per atom                          :        -694.66216315 eV  <-- do not rely on this value for anything but (periodic) metals
  | Electronic free energy per atom                       :        -694.66216315 eV

  Self-consistency convergence accuracy:
  | Change of charge density      : 0.6087E+00
  | Change of sum of eigenvalues  : 0.5096E+02 eV
  | Change of total energy        : 0.3380E+01 eV

  End self-consistency iteration #     1       :  max(cpu_time)    wall_clock(cpu1)
  | Time for this iteration                    :        1.158 s           1.158 s
  | Charge density update                      :        0.368 s           0.369 s
  | Density mixing                             :        0.002 s           0.002 s
  | Hartree multipole update                   :        0.004 s           0.005 s
  | Hartree multipole summation                :        0.208 s           0.209 s
  | Integration                                :        0.543 s           0.542 s
  | Solution of K.-S. eqns.                    :        0.030 s           0.031 s
  | Total energy evaluation                    :        0.000 s           0.000 s
------------------------------------------------------------

------------------------------------------------------------
          Begin self-consistency iteration #    2

  Date     :  20150727, Time     :  121159.552
------------------------------------------------------------
  Evaluating new KS density.
  Integration grid: deviation in total charge (<rho> - N_e) =   2.131628E-14
  Pulay mixing of updated and previous charge densities.

  Evaluating partitioned Hartree potential by multipole expansion.
  | Analytical far-field extrapolation by fixed multipoles:
  | Hartree multipole sum: apparent total charge =  -0.348710E-05
  Summing up the Hartree potential.
  Time summed over all CPUs for potential: real work        1.654 s, elapsed        1.665 s
  | RMS charge density error from multipole expansion :   0.570887E-02

  Integrating Hamiltonian matrix: batch-based integration.
  Time summed over all CPUs for integration: real work        4.241 s, elapsed        4.373 s

  Updating Kohn-Sham eigenvalues, eigenvectors, occupation numbers, and Fermi level.
  Solving generalized eigenproblem
  Updating Kohn-Sham eigenvalues and eigenfunctions.
  Solving real generalised eigenvalue problem by standard LAPACK (fast)
  Determining occupation numbers for Kohn-Sham eigenstates.
  | Chemical potential (Fermi level) in eV                 : -.47322678E+01
  | Error in electron count due to remaining E_F inaccuracy: 0.00000000E+00
  | Maximum occupation number of highest empty state:  0.00E+00

  Highest occupied state (VBM) at     -6.87234339 eV
  | Occupation number:      2.00000000

  Lowest unoccupied state (CBM) at    -1.89589954 eV
  | Occupation number:      0.00000000

  Overall HOMO-LUMO gap:      4.97644384 eV.

  Total energy components:
  | Sum of eigenvalues            :        -167.18013757 Ha       -4549.20300419 eV
  | XC energy correction          :         -37.08151601 Ha       -1009.03938991 eV
  | XC potential correction       :          47.39342709 Ha        1289.64076745 eV
  | Free-atom electrostatic energy:        -143.22018066 Ha       -3897.21940397 eV
  | Hartree energy correction     :          -6.11235903 Ha        -166.32575190 eV
  | van der Waals energy corr.    :           0.00000000 Ha           0.00000000 eV
  | Entropy correction            :           0.00000000 Ha           0.00000000 eV
  | ---------------------------
  | Total energy                  :        -306.20076617 Ha       -8332.14678252 eV
  | Total energy, T -> 0          :        -306.20076617 Ha       -8332.14678252 eV  <-- do not rely on this value for anything but (periodic) metals
  | Electronic free energy        :        -306.20076617 Ha       -8332.14678252 eV

  Derived energy quantities:
  | Kinetic energy                :         306.70485603 Ha        8345.86376532 eV
  | Electrostatic energy          :        -575.82410619 Ha      -15668.97115793 eV
  | Energy correction for multipole
  | error in Hartree potential    :          -0.00066820 Ha          -0.01818265 eV
  | Sum of eigenvalues per atom                           :        -379.10025035 eV
  | Total energy (T->0) per atom                          :        -694.34556521 eV  <-- do not rely on this value for anything but (periodic) metals
  | Electronic free energy per atom                       :        -694.34556521 eV

  Self-consistency convergence accuracy:
  | Change of charge density      : 0.4591E+00
  | Change of sum of eigenvalues  : 0.1168E+03 eV
  | Change of total energy        : 0.3799E+01 eV

  End self-consistency iteration #     2       :  max(cpu_time)    wall_clock(cpu1)
  | Time for this iteration                    :        1.162 s           1.161 s
  | Charge density update                      :        0.366 s           0.365 s
  | Density mixing                             :        0.004 s           0.004 s
  | Hartree multipole update                   :        0.004 s           0.004 s
  | Hartree multipole summation                :        0.209 s           0.209 s
  | Integration                                :        0.548 s           0.548 s
  | Solution of K.-S. eqns.                    :        0.030 s           0.030 s
  | Total energy evaluation                    :        0.001 s           0.001 s
------------------------------------------------------------

------------------------------------------------------------
          Begin self-consistency iteration #    3

  Date     :  20150727, Time     :  121200.714
------------------------------------------------------------
  Evaluating new KS density.
  Integration grid: deviation in total charge (<rho> - N_e) =  -7.105427E-15
  Pulay mixing of updated and previous charge densities.

  Evaluating partitioned Hartree potential by multipole expansion.
  | Analytical far-field extrapolation by fixed multipoles:
  | Hartree multipole sum: apparent total charge =  -0.232030E-05
  Summing up the Hartree potential.
  Time summed over all CPUs for potential: real work        1.654 s, elapsed        1.665 s
  | RMS charge density error from multipole expansion :   0.117820E-01

  Integrating Hamiltonian matrix: batch-based integration.
  Time summed over all CPUs for integration: real work        4.281 s, elapsed        4.415 s

  Updating Kohn-Sham eigenvalues, eigenvectors, occupation numbers, and Fermi level.
  Solving generalized eigenproblem
  Updating Kohn-Sham eigenvalues and eigenfunctions.
  Solving real generalised eigenvalue problem by standard LAPACK (fast)
  Determining occupation numbers for Kohn-Sham eigenstates.
  | Chemical potential (Fermi level) in eV                 : -.44960321E+01
  | Error in electron count due to remaining E_F inaccuracy: 0.00000000E+00
  | Maximum occupation number of highest empty state:  0.00E+00

  Highest occupied state (VBM) at     -6.93964174 eV
  | Occupation number:      2.00000000

  Lowest unoccupied state (CBM) at    -1.80562789 eV
  | Occupation number:      0.00000000

  Overall HOMO-LUMO gap:      5.13401385 eV.

  Total energy components:
  | Sum of eigenvalues            :        -167.43117588 Ha       -4556.03410421 eV
  | XC energy correction          :         -37.05517296 Ha       -1008.32255920 eV
  | XC potential correction       :          47.35538298 Ha        1288.60553449 eV
  | Free-atom electrostatic energy:        -143.22018066 Ha       -3897.21940397 eV
  | Hartree energy correction     :          -5.84592792 Ha        -159.07579240 eV
  | van der Waals energy corr.    :           0.00000000 Ha           0.00000000 eV
  | Entropy correction            :           0.00000000 Ha           0.00000000 eV
  | ---------------------------
  | Total energy                  :        -306.19707444 Ha       -8332.04632528 eV
  | Total energy, T -> 0          :        -306.19707444 Ha       -8332.04632528 eV  <-- do not rely on this value for anything but (periodic) metals
  | Electronic free energy        :        -306.19707444 Ha       -8332.04632528 eV

  Derived energy quantities:
  | Kinetic energy                :         304.99364065 Ha        8299.29922568 eV
  | Electrostatic energy          :        -574.13554212 Ha      -15623.02299176 eV
  | Energy correction for multipole
  | error in Hartree potential    :          -0.00385781 Ha          -0.10497625 eV
  | Sum of eigenvalues per atom                           :        -379.66950868 eV
  | Total energy (T->0) per atom                          :        -694.33719377 eV  <-- do not rely on this value for anything but (periodic) metals
  | Electronic free energy per atom                       :        -694.33719377 eV

  Self-consistency convergence accuracy:
  | Change of charge density      : 0.2350E+00
  | Change of sum of eigenvalues  : -.6831E+01 eV
  | Change of total energy        : 0.1005E+00 eV

  End self-consistency iteration #     3       :  max(cpu_time)    wall_clock(cpu1)
  | Time for this iteration                    :        1.167 s           1.167 s
  | Charge density update                      :        0.363 s           0.363 s
  | Density mixing                             :        0.005 s           0.005 s
  | Hartree multipole update                   :        0.004 s           0.005 s
  | Hartree multipole summation                :        0.209 s           0.208 s
  | Integration                                :        0.553 s           0.553 s
  | Solution of K.-S. eqns.                    :        0.031 s           0.032 s
  | Total energy evaluation                    :        0.000 s           0.000 s
------------------------------------------------------------

------------------------------------------------------------
          Begin self-consistency iteration #    4

  Date     :  20150727, Time     :  121201.881
------------------------------------------------------------
  Evaluating new KS density.
  Integration grid: deviation in total charge (<rho> - N_e) =   7.105427E-15
  Pulay mixing of updated and previous charge densities.

  Evaluating partitioned Hartree potential by multipole expansion.
  | Analytical far-field extrapolation by fixed multipoles:
  | Hartree multipole sum: apparent total charge =  -0.264420E-05
  Summing up the Hartree potential.
  Time summed over all CPUs for potential: real work        1.669 s, elapsed        1.781 s
  | RMS charge density error from multipole expansion :   0.149957E-01

  Integrating Hamiltonian matrix: batch-based integration.
  Time summed over all CPUs for integration: real work        4.230 s, elapsed        4.314 s

  Updating Kohn-Sham eigenvalues, eigenvectors, occupation numbers, and Fermi level.
  Solving generalized eigenproblem
  Updating Kohn-Sham eigenvalues and eigenfunctions.
  Solving real generalised eigenvalue problem by standard LAPACK (fast)
  Determining occupation numbers for Kohn-Sham eigenstates.
  | Chemical potential (Fermi level) in eV                 : -.40901170E+01
  | Error in electron count due to remaining E_F inaccuracy: 0.00000000E+00
  | Maximum occupation number of highest empty state:  0.00E+00

  Highest occupied state (VBM) at     -5.97165740 eV
  | Occupation number:      2.00000000

  Lowest unoccupied state (CBM) at    -1.65370719 eV
  | Occupation number:      0.00000000

  Overall HOMO-LUMO gap:      4.31795021 eV.

  Total energy components:
  | Sum of eigenvalues            :        -166.10531291 Ha       -4519.95553700 eV
  | XC energy correction          :         -37.21916065 Ha       -1012.78489132 eV
  | XC potential correction       :          47.56985730 Ha        1294.44167762 eV
  | Free-atom electrostatic energy:        -143.22018066 Ha       -3897.21940397 eV
  | Hartree energy correction     :          -7.21130956 Ha        -196.22971708 eV
  | van der Waals energy corr.    :           0.00000000 Ha           0.00000000 eV
  | Entropy correction            :           0.00000000 Ha           0.00000000 eV
  | ---------------------------
  | Total energy                  :        -306.18610647 Ha       -8331.74787174 eV
  | Total energy, T -> 0          :        -306.18610647 Ha       -8331.74787174 eV  <-- do not rely on this value for anything but (periodic) metals
  | Electronic free energy        :        -306.18610647 Ha       -8331.74787174 eV

  Derived energy quantities:
  | Kinetic energy                :         305.21353172 Ha        8305.28276625 eV
  | Electrostatic energy          :        -574.18047754 Ha      -15624.24574668 eV
  | Energy correction for multipole
  | error in Hartree potential    :          -0.00505309 Ha          -0.13750161 eV
  | Sum of eigenvalues per atom                           :        -376.66296142 eV
  | Total energy (T->0) per atom                          :        -694.31232265 eV  <-- do not rely on this value for anything but (periodic) metals
  | Electronic free energy per atom                       :        -694.31232265 eV

  Self-consistency convergence accuracy:
  | Change of charge density      : 0.1322E+00
  | Change of sum of eigenvalues  : 0.3608E+02 eV
  | Change of total energy        : 0.2985E+00 eV

  End self-consistency iteration #     4       :  max(cpu_time)    wall_clock(cpu1)
  | Time for this iteration                    :        1.169 s           1.168 s
  | Charge density update                      :        0.363 s           0.363 s
  | Density mixing                             :        0.007 s           0.006 s
  | Hartree multipole update                   :        0.004 s           0.005 s
  | Hartree multipole summation                :        0.223 s           0.223 s
  | Integration                                :        0.541 s           0.540 s
  | Solution of K.-S. eqns.                    :        0.030 s           0.031 s
  | Total energy evaluation                    :        0.000 s           0.000 s
------------------------------------------------------------

------------------------------------------------------------
          Begin self-consistency iteration #    5

  Date     :  20150727, Time     :  121203.049
------------------------------------------------------------
  Evaluating new KS density.
  Integration grid: deviation in total charge (<rho> - N_e) =  -7.105427E-15
  Pulay mixing of updated and previous charge densities.

  Evaluating partitioned Hartree potential by multipole expansion.
  | Analytical far-field extrapolation by fixed multipoles:
  | Hartree multipole sum: apparent total charge =  -0.252612E-05
  Summing up the Hartree potential.
  Time summed over all CPUs for potential: real work        1.653 s, elapsed        1.664 s
  | RMS charge density error from multipole expansion :   0.156643E-01

  Integrating Hamiltonian matrix: batch-based integration.
  Time summed over all CPUs for integration: real work        4.234 s, elapsed        4.300 s

  Updating Kohn-Sham eigenvalues, eigenvectors, occupation numbers, and Fermi level.
  Solving generalized eigenproblem
  Updating Kohn-Sham eigenvalues and eigenfunctions.
  Solving real generalised eigenvalue problem by standard LAPACK (fast)
  Determining occupation numbers for Kohn-Sham eigenstates.
  | Chemical potential (Fermi level) in eV                 : -.40778257E+01
  | Error in electron count due to remaining E_F inaccuracy: 0.00000000E+00
  | Maximum occupation number of highest empty state:  0.00E+00

  Highest occupied state (VBM) at     -5.71459840 eV
  | Occupation number:      2.00000000

  Lowest unoccupied state (CBM) at    -1.65399930 eV
  | Occupation number:      0.00000000

  Overall HOMO-LUMO gap:      4.06059910 eV.

  Total energy components:
  | Sum of eigenvalues            :        -166.00031433 Ha       -4517.09838044 eV
  | XC energy correction          :         -37.23461807 Ha       -1013.20550891 eV
  | XC potential correction       :          47.58978596 Ha        1294.98396413 eV
  | Free-atom electrostatic energy:        -143.22018066 Ha       -3897.21940397 eV
  | Hartree energy correction     :          -7.32040168 Ha        -199.19826480 eV
  | van der Waals energy corr.    :           0.00000000 Ha           0.00000000 eV
  | Entropy correction            :           0.00000000 Ha           0.00000000 eV
  | ---------------------------
  | Total energy                  :        -306.18572877 Ha       -8331.73759398 eV
  | Total energy, T -> 0          :        -306.18572877 Ha       -8331.73759398 eV  <-- do not rely on this value for anything but (periodic) metals
  | Electronic free energy        :        -306.18572877 Ha       -8331.73759398 eV

  Derived energy quantities:
  | Kinetic energy                :         305.21784389 Ha        8305.40010648 eV
  | Electrostatic energy          :        -574.16895460 Ha      -15623.93219155 eV
  | Energy correction for multipole
  | error in Hartree potential    :          -0.00521105 Ha          -0.14179977 eV
  | Sum of eigenvalues per atom                           :        -376.42486504 eV
  | Total energy (T->0) per atom                          :        -694.31146617 eV  <-- do not rely on this value for anything but (periodic) metals
  | Electronic free energy per atom                       :        -694.31146617 eV

  Self-consistency convergence accuracy:
  | Change of charge density      : 0.3384E-01
  | Change of sum of eigenvalues  : 0.2857E+01 eV
  | Change of total energy        : 0.1028E-01 eV

  End self-consistency iteration #     5       :  max(cpu_time)    wall_clock(cpu1)
  | Time for this iteration                    :        1.153 s           1.153 s
  | Charge density update                      :        0.363 s           0.363 s
  | Density mixing                             :        0.008 s           0.008 s
  | Hartree multipole update                   :        0.004 s           0.004 s
  | Hartree multipole summation                :        0.208 s           0.209 s
  | Integration                                :        0.538 s           0.538 s
  | Solution of K.-S. eqns.                    :        0.031 s           0.031 s
  | Total energy evaluation                    :        0.000 s           0.000 s
------------------------------------------------------------

------------------------------------------------------------
          Begin self-consistency iteration #    6

  Date     :  20150727, Time     :  121204.202
------------------------------------------------------------
  Evaluating new KS density.
  Integration grid: deviation in total charge (<rho> - N_e) =   1.421085E-14
  Pulay mixing of updated and previous charge densities.

  Evaluating partitioned Hartree potential by multipole expansion.
  | Analytical far-field extrapolation by fixed multipoles:
  | Hartree multipole sum: apparent total charge =  -0.250799E-05
  Summing up the Hartree potential.
  Time summed over all CPUs for potential: real work        1.653 s, elapsed        1.664 s
  | RMS charge density error from multipole expansion :   0.159329E-01

  Integrating Hamiltonian matrix: batch-based integration.
  Time summed over all CPUs for integration: real work        4.233 s, elapsed        4.307 s

  Updating Kohn-Sham eigenvalues, eigenvectors, occupation numbers, and Fermi level.
  Solving generalized eigenproblem
  Updating Kohn-Sham eigenvalues and eigenfunctions.
  Solving real generalised eigenvalue problem by standard LAPACK (fast)
  Determining occupation numbers for Kohn-Sham eigenstates.
  | Chemical potential (Fermi level) in eV                 : -.40518481E+01
  | Error in electron count due to remaining E_F inaccuracy: 0.00000000E+00
  | Maximum occupation number of highest empty state:  0.00E+00

  Highest occupied state (VBM) at     -5.67297595 eV
  | Occupation number:      2.00000000

  Lowest unoccupied state (CBM) at    -1.64352132 eV
  | Occupation number:      0.00000000

  Overall HOMO-LUMO gap:      4.02945462 eV.

  Total energy components:
  | Sum of eigenvalues            :        -165.92634540 Ha       -4515.08558324 eV
  | XC energy correction          :         -37.24445071 Ha       -1013.47306865 eV
  | XC potential correction       :          47.60259827 Ha        1295.33260465 eV
  | Free-atom electrostatic energy:        -143.22018066 Ha       -3897.21940397 eV
  | Hartree energy correction     :          -7.39743143 Ha        -201.29435105 eV
  | van der Waals energy corr.    :           0.00000000 Ha           0.00000000 eV
  | Entropy correction            :           0.00000000 Ha           0.00000000 eV
  | ---------------------------
  | Total energy                  :        -306.18580992 Ha       -8331.73980226 eV
  | Total energy, T -> 0          :        -306.18580992 Ha       -8331.73980226 eV  <-- do not rely on this value for anything but (periodic) metals
  | Electronic free energy        :        -306.18580992 Ha       -8331.73980226 eV

  Derived energy quantities:
  | Kinetic energy                :         305.22495998 Ha        8305.59374515 eV
  | Electrostatic energy          :        -574.16631920 Ha      -15623.86047876 eV
  | Energy correction for multipole
  | error in Hartree potential    :          -0.00529489 Ha          -0.14408131 eV
  | Sum of eigenvalues per atom                           :        -376.25713194 eV
  | Total energy (T->0) per atom                          :        -694.31165019 eV  <-- do not rely on this value for anything but (periodic) metals
  | Electronic free energy per atom                       :        -694.31165019 eV

  Self-consistency convergence accuracy:
  | Change of charge density      : 0.8302E-02
  | Change of sum of eigenvalues  : 0.2013E+01 eV
  | Change of total energy        : -.2208E-02 eV

  End self-consistency iteration #     6       :  max(cpu_time)    wall_clock(cpu1)
  | Time for this iteration                    :        1.155 s           1.155 s
  | Charge density update                      :        0.363 s           0.363 s
  | Density mixing                             :        0.008 s           0.009 s
  | Hartree multipole update                   :        0.005 s           0.004 s
  | Hartree multipole summation                :        0.208 s           0.209 s
  | Integration                                :        0.540 s           0.539 s
  | Solution of K.-S. eqns.                    :        0.030 s           0.030 s
  | Total energy evaluation                    :        0.000 s           0.000 s
------------------------------------------------------------

------------------------------------------------------------
          Begin self-consistency iteration #    7

  Date     :  20150727, Time     :  121205.357
------------------------------------------------------------
  Evaluating new KS density.
  Integration grid: deviation in total charge (<rho> - N_e) =   1.421085E-14
  Pulay mixing of updated and previous charge densities.

  Evaluating partitioned Hartree potential by multipole expansion.
  | Analytical far-field extrapolation by fixed multipoles:
  | Hartree multipole sum: apparent total charge =  -0.229387E-05
  Summing up the Hartree potential.
  Time summed over all CPUs for potential: real work        1.653 s, elapsed        1.664 s
  | RMS charge density error from multipole expansion :   0.159345E-01

  Integrating Hamiltonian matrix: batch-based integration.
  Time summed over all CPUs for integration: real work        4.231 s, elapsed        4.300 s

  Updating Kohn-Sham eigenvalues, eigenvectors, occupation numbers, and Fermi level.
  Solving generalized eigenproblem
  Updating Kohn-Sham eigenvalues and eigenfunctions.
  Solving real generalised eigenvalue problem by standard LAPACK (fast)
  Determining occupation numbers for Kohn-Sham eigenstates.
  | Chemical potential (Fermi level) in eV                 : -.41000156E+01
  | Error in electron count due to remaining E_F inaccuracy: 0.00000000E+00
  | Maximum occupation number of highest empty state:  0.00E+00

  Highest occupied state (VBM) at     -5.76756282 eV
  | Occupation number:      2.00000000

  Lowest unoccupied state (CBM) at    -1.66497330 eV
  | Occupation number:      0.00000000

  Overall HOMO-LUMO gap:      4.10258952 eV.

  Total energy components:
  | Sum of eigenvalues            :        -166.04399343 Ha       -4518.28694908 eV
  | XC energy correction          :         -37.23113525 Ha       -1013.11073669 eV
  | XC potential correction       :          47.58474379 Ha        1294.84675955 eV
  | Free-atom electrostatic energy:        -143.22018066 Ha       -3897.21940397 eV
  | Hartree energy correction     :          -7.27514710 Ha        -197.96682509 eV
  | van der Waals energy corr.    :           0.00000000 Ha           0.00000000 eV
  | Entropy correction            :           0.00000000 Ha           0.00000000 eV
  | ---------------------------
  | Total energy                  :        -306.18571265 Ha       -8331.73715527 eV
  | Total energy, T -> 0          :        -306.18571265 Ha       -8331.73715527 eV  <-- do not rely on this value for anything but (periodic) metals
  | Electronic free energy        :        -306.18571265 Ha       -8331.73715527 eV

  Derived energy quantities:
  | Kinetic energy                :         305.27175123 Ha        8306.86699971 eV
  | Electrostatic energy          :        -574.22632863 Ha      -15625.49341829 eV
  | Energy correction for multipole
  | error in Hartree potential    :          -0.00509901 Ha          -0.13875115 eV
  | Sum of eigenvalues per atom                           :        -376.52391242 eV
  | Total energy (T->0) per atom                          :        -694.31142961 eV  <-- do not rely on this value for anything but (periodic) metals
  | Electronic free energy per atom                       :        -694.31142961 eV

  Self-consistency convergence accuracy:
  | Change of charge density      : 0.9762E-02
  | Change of sum of eigenvalues  : -.3201E+01 eV
  | Change of total energy        : 0.2647E-02 eV

  End self-consistency iteration #     7       :  max(cpu_time)    wall_clock(cpu1)
  | Time for this iteration                    :        1.154 s           1.154 s
  | Charge density update                      :        0.362 s           0.362 s
  | Density mixing                             :        0.009 s           0.009 s
  | Hartree multipole update                   :        0.004 s           0.004 s
  | Hartree multipole summation                :        0.209 s           0.209 s
  | Integration                                :        0.539 s           0.539 s
  | Solution of K.-S. eqns.                    :        0.030 s           0.030 s
  | Total energy evaluation                    :        0.001 s           0.001 s
------------------------------------------------------------

------------------------------------------------------------
          Begin self-consistency iteration #    8

  Date     :  20150727, Time     :  121206.511
------------------------------------------------------------
  Evaluating new KS density.
  Integration grid: deviation in total charge (<rho> - N_e) =   0.000000E+00
  Pulay mixing of updated and previous charge densities.

  Evaluating partitioned Hartree potential by multipole expansion.
  | Analytical far-field extrapolation by fixed multipoles:
  | Hartree multipole sum: apparent total charge =  -0.228818E-05
  Summing up the Hartree potential.
  Time summed over all CPUs for potential: real work        1.653 s, elapsed        1.665 s
  | RMS charge density error from multipole expansion :   0.159464E-01

  Integrating Hamiltonian matrix: batch-based integration.
  Time summed over all CPUs for integration: real work        4.233 s, elapsed        4.309 s

  Updating Kohn-Sham eigenvalues, eigenvectors, occupation numbers, and Fermi level.
  Solving generalized eigenproblem
  Updating Kohn-Sham eigenvalues and eigenfunctions.
  Solving real generalised eigenvalue problem by standard LAPACK (fast)
  Determining occupation numbers for Kohn-Sham eigenstates.
  | Chemical potential (Fermi level) in eV                 : -.40998018E+01
  | Error in electron count due to remaining E_F inaccuracy: 0.00000000E+00
  | Maximum occupation number of highest empty state:  0.00E+00

  Highest occupied state (VBM) at     -5.76275078 eV
  | Occupation number:      2.00000000

  Lowest unoccupied state (CBM) at    -1.66497939 eV
  | Occupation number:      0.00000000

  Overall HOMO-LUMO gap:      4.09777140 eV.

  Total energy components:
  | Sum of eigenvalues            :        -166.04308355 Ha       -4518.26219001 eV
  | XC energy correction          :         -37.23123959 Ha       -1013.11357585 eV
  | XC potential correction       :          47.58486970 Ha        1294.85018585 eV
  | Free-atom electrostatic energy:        -143.22018066 Ha       -3897.21940397 eV
  | Hartree energy correction     :          -7.27607845 Ha        -197.99216845 eV
  | van der Waals energy corr.    :           0.00000000 Ha           0.00000000 eV
  | Entropy correction            :           0.00000000 Ha           0.00000000 eV
  | ---------------------------
  | Total energy                  :        -306.18571254 Ha       -8331.73715243 eV
  | Total energy, T -> 0          :        -306.18571254 Ha       -8331.73715243 eV  <-- do not rely on this value for anything but (periodic) metals
  | Electronic free energy        :        -306.18571254 Ha       -8331.73715243 eV

  Derived energy quantities:
  | Kinetic energy                :         305.27271691 Ha        8306.89327714 eV
  | Electrostatic energy          :        -574.22718986 Ha      -15625.51685371 eV
  | Energy correction for multipole
  | error in Hartree potential    :          -0.00509805 Ha          -0.13872499 eV
  | Sum of eigenvalues per atom                           :        -376.52184917 eV
  | Total energy (T->0) per atom                          :        -694.31142937 eV  <-- do not rely on this value for anything but (periodic) metals
  | Electronic free energy per atom                       :        -694.31142937 eV

  Self-consistency convergence accuracy:
  | Change of charge density      : 0.1201E-02
  | Change of sum of eigenvalues  : 0.2476E-01 eV
  | Change of total energy        : 0.2841E-05 eV

  End self-consistency iteration #     8       :  max(cpu_time)    wall_clock(cpu1)
  | Time for this iteration                    :        1.155 s           1.155 s
  | Charge density update                      :        0.361 s           0.361 s
  | Density mixing                             :        0.011 s           0.010 s
  | Hartree multipole update                   :        0.004 s           0.004 s
  | Hartree multipole summation                :        0.209 s           0.208 s
  | Integration                                :        0.539 s           0.539 s
  | Solution of K.-S. eqns.                    :        0.031 s           0.031 s
  | Total energy evaluation                    :        0.000 s           0.000 s
------------------------------------------------------------

------------------------------------------------------------
          Begin self-consistency iteration #    9

  Date     :  20150727, Time     :  121207.666
------------------------------------------------------------
  Evaluating new KS density.
  Integration grid: deviation in total charge (<rho> - N_e) =   1.421085E-14
  Pulay mixing of updated and previous charge densities.

  Evaluating partitioned Hartree potential by multipole expansion.
  | Analytical far-field extrapolation by fixed multipoles:
  | Hartree multipole sum: apparent total charge =  -0.227347E-05
  Summing up the Hartree potential.
  Time summed over all CPUs for potential: real work        1.653 s, elapsed        1.664 s
  | RMS charge density error from multipole expansion :   0.159370E-01

  Integrating Hamiltonian matrix: batch-based integration.
  Time summed over all CPUs for integration: real work        4.229 s, elapsed        4.303 s

  Updating Kohn-Sham eigenvalues, eigenvectors, occupation numbers, and Fermi level.
  Solving generalized eigenproblem
  Updating Kohn-Sham eigenvalues and eigenfunctions.
  Solving real generalised eigenvalue problem by standard LAPACK (fast)
  Determining occupation numbers for Kohn-Sham eigenstates.
  | Chemical potential (Fermi level) in eV                 : -.41022403E+01
  | Error in electron count due to remaining E_F inaccuracy: 0.00000000E+00
  | Maximum occupation number of highest empty state:  0.00E+00

  Highest occupied state (VBM) at     -5.77162360 eV
  | Occupation number:      2.00000000

  Lowest unoccupied state (CBM) at    -1.66599506 eV
  | Occupation number:      0.00000000

  Overall HOMO-LUMO gap:      4.10562854 eV.

  Total energy components:
  | Sum of eigenvalues            :        -166.05128231 Ha       -4518.48528969 eV
  | XC energy correction          :         -37.23015344 Ha       -1013.08402028 eV
  | XC potential correction       :          47.58342400 Ha        1294.81084618 eV
  | Free-atom electrostatic energy:        -143.22018066 Ha       -3897.21940397 eV
  | Hartree energy correction     :          -7.26751844 Ha        -197.75923877 eV
  | van der Waals energy corr.    :           0.00000000 Ha           0.00000000 eV
  | Entropy correction            :           0.00000000 Ha           0.00000000 eV
  | ---------------------------
  | Total energy                  :        -306.18571086 Ha       -8331.73710652 eV
  | Total energy, T -> 0          :        -306.18571086 Ha       -8331.73710652 eV  <-- do not rely on this value for anything but (periodic) metals
  | Electronic free energy        :        -306.18571086 Ha       -8331.73710652 eV

  Derived energy quantities:
  | Kinetic energy                :         305.27639563 Ha        8306.99338016 eV
  | Electrostatic energy          :        -574.23195304 Ha      -15625.64646640 eV
  | Energy correction for multipole
  | error in Hartree potential    :          -0.00508075 Ha          -0.13825419 eV
  | Sum of eigenvalues per atom                           :        -376.54044081 eV
  | Total energy (T->0) per atom                          :        -694.31142554 eV  <-- do not rely on this value for anything but (periodic) metals
  | Electronic free energy per atom                       :        -694.31142554 eV

  Self-consistency convergence accuracy:
  | Change of charge density      : 0.9607E-03
  | Change of sum of eigenvalues  : -.2231E+00 eV
  | Change of total energy        : 0.4591E-04 eV

  End self-consistency iteration #     9       :  max(cpu_time)    wall_clock(cpu1)
  | Time for this iteration                    :        1.156 s           1.156 s
  | Charge density update                      :        0.361 s           0.362 s
  | Density mixing                             :        0.012 s           0.011 s
  | Hartree multipole update                   :        0.004 s           0.005 s
  | Hartree multipole summation                :        0.209 s           0.208 s
  | Integration                                :        0.539 s           0.539 s
  | Solution of K.-S. eqns.                    :        0.030 s           0.031 s
  | Total energy evaluation                    :        0.000 s           0.000 s
------------------------------------------------------------

------------------------------------------------------------
          Begin self-consistency iteration #   10

  Date     :  20150727, Time     :  121208.822
------------------------------------------------------------
  Evaluating new KS density.
  Integration grid: deviation in total charge (<rho> - N_e) =   7.105427E-15
  Pulay mixing of updated and previous charge densities.

  Evaluating partitioned Hartree potential by multipole expansion.
  | Analytical far-field extrapolation by fixed multipoles:
  | Hartree multipole sum: apparent total charge =  -0.227129E-05
  Summing up the Hartree potential.
  Time summed over all CPUs for potential: real work        1.653 s, elapsed        1.664 s
  | RMS charge density error from multipole expansion :   0.159453E-01

  Integrating Hamiltonian matrix: batch-based integration.
  Time summed over all CPUs for integration: real work        4.221 s, elapsed        4.295 s

  Updating Kohn-Sham eigenvalues, eigenvectors, occupation numbers, and Fermi level.
  Solving generalized eigenproblem
[...]
  |                                 -0.00952914       0.10810447      -0.00915595
  |                                  0.00947682      -0.00915595       0.09671176
  ----------------------------------------------------------------------


  Total energy components:
  | Sum of eigenvalues            :        -166.04825794 Ha       -4518.40299240 eV
  | XC energy correction          :         -37.23046647 Ha       -1013.09253822 eV
  | XC potential correction       :          47.58382981 Ha        1294.82188891 eV
  | Free-atom electrostatic energy:        -143.22018066 Ha       -3897.21940397 eV
  | Hartree energy correction     :          -7.27063558 Ha        -197.84406021 eV
  | van der Waals energy corr.    :          -0.00165397 Ha          -0.04500685 eV
  | Entropy correction            :           0.00000000 Ha           0.00000000 eV
  | ---------------------------
  | Total energy                  :        -306.18736480 Ha       -8331.78211274 eV
  | Total energy, T -> 0          :        -306.18736480 Ha       -8331.78211274 eV  <-- do not rely on this value for anything but (periodic) metals
  | Electronic free energy        :        -306.18736480 Ha       -8331.78211274 eV

  Derived energy quantities:
  | Kinetic energy                :         305.27743188 Ha        8307.02157818 eV
  | Electrostatic energy          :        -574.23267625 Ha      -15625.66614585 eV
  | Energy correction for multipole
  | error in Hartree potential    :          -0.00508069 Ha          -0.13825272 eV
  | Sum of eigenvalues per atom                           :        -376.53358270 eV
  | Total energy (T->0) per atom                          :        -694.31517606 eV  <-- do not rely on this value for anything but (periodic) metals
  | Electronic free energy per atom                       :        -694.31517606 eV

  atomic forces [eV/Ang]:
  -----------------------
  atom #    1
   Hellmann-Feynman + Multipole  : -.747701E+01 -.116949E+02 0.372696E+01
   Pulay + GGA                   : 0.741246E+01 0.154584E+02 -.583488E+01
   Van der Waals               : 0.286199E-02 0.613838E-02 -.108865E-02
   ----------------------------------------------------------------
   Total forces(   1)            : -.616858E-01 0.376959E+01 -.210901E+01
  atom #    2
   Hellmann-Feynman + Multipole  : 0.234861E+01 -.346647E+01 0.154656E+01
   Pulay + GGA                   : -.449891E-01 0.916230E-01 -.610623E-01
   Van der Waals               : 0.207106E-02 0.507547E-02 0.308135E-02
   ----------------------------------------------------------------
   Total forces(   2)            : 0.230569E+01 -.336977E+01 0.148858E+01
  atom #    3
   Hellmann-Feynman + Multipole  : -.218917E+01 -.263244E+00 -.200880E+00
   Pulay + GGA                   : 0.135297E+00 0.345086E-01 -.254070E-02
   Van der Waals               : 0.160485E-02 0.597268E-02 0.202375E-02
   ----------------------------------------------------------------
   Total forces(   3)            : -.205227E+01 -.222763E+00 -.201397E+00
  atom #    4
   Hellmann-Feynman + Multipole  : 0.848959E+01 -.516097E+01 -.153298E+02
   Pulay + GGA                   : -.884335E+01 0.378116E+01 0.149118E+02
   Van der Waals               : 0.759886E-03 0.309595E-02 0.601661E-02
   ----------------------------------------------------------------
   Total forces(   4)            : -.353002E+00 -.137671E+01 -.411985E+00
  atom #    5
   Hellmann-Feynman + Multipole  : -.475123E+00 0.350298E+00 0.845507E+00
   Pulay + GGA                   : 0.413552E-01 0.100967E+00 0.117082E+00
   Van der Waals               : 0.113052E-02 0.177418E-02 -.185325E-02
   ----------------------------------------------------------------
   Total forces(   5)            : -.432637E+00 0.453039E+00 0.960736E+00
  atom #    6
   Hellmann-Feynman + Multipole  : 0.697331E+00 0.841700E+00 0.258562E+00
   Pulay + GGA                   : -.113735E+00 -.591611E-01 0.618731E-01
   Van der Waals               : 0.108871E-02 0.121925E-02 -.147343E-02
   ----------------------------------------------------------------
   Total forces(   6)            : 0.584685E+00 0.783758E+00 0.318961E+00
  atom #    7
   Hellmann-Feynman + Multipole  : -.991470E+00 -.417977E+01 -.157128E+02
   Pulay + GGA                   : 0.185921E+01 0.448919E+01 0.142032E+02
   Van der Waals               : -.431428E-02 -.783080E-02 -.165766E-02
   ----------------------------------------------------------------
   Total forces(   7)            : 0.863427E+00 0.301587E+00 -.151126E+01
  atom #    8
   Hellmann-Feynman + Multipole  : -.461807E+00 -.297832E+00 0.340356E+00
   Pulay + GGA                   : 0.103998E+00 0.562539E-01 0.552467E-01
   Van der Waals               : -.149715E-02 -.268625E-03 -.790124E-03
   ----------------------------------------------------------------
   Total forces(   8)            : -.359306E+00 -.241846E+00 0.394813E+00
  atom #    9
   Hellmann-Feynman + Multipole  : -.273967E+00 -.735182E-01 0.106489E+01
   Pulay + GGA                   : -.757667E-01 -.555572E-01 0.105670E+00
   Van der Waals               : -.354371E-03 -.357416E-02 -.127479E-02
   ----------------------------------------------------------------
   Total forces(   9)            : -.350088E+00 -.132650E+00 0.116928E+01
  atom #   10
   Hellmann-Feynman + Multipole  : -.138346E+02 -.488447E+01 0.668152E+00
   Pulay + GGA                   : 0.146684E+02 0.650356E+01 -.145431E+01
   Van der Waals               : -.198717E-02 -.415515E-02 -.246636E-02
   ----------------------------------------------------------------
   Total forces(  10)            : 0.831817E+00 0.161494E+01 -.788623E+00
  atom #   11
   Hellmann-Feynman + Multipole  : -.298071E+00 -.111108E+00 0.142255E-01
   Pulay + GGA                   : 0.838450E-01 -.306219E-01 0.185942E-01
   Van der Waals               : -.334006E-02 -.399768E-02 -.277570E-02
   ----------------------------------------------------------------
   Total forces(  11)            : -.217566E+00 -.145728E+00 0.300440E-01
  atom #   12
   Hellmann-Feynman + Multipole  : -.813906E+00 -.154417E+01 0.708709E+00
   Pulay + GGA                   : 0.569791E-01 0.110526E+00 -.557512E-01
   Van der Waals               : 0.197601E-02 -.344949E-02 0.225825E-02
   ----------------------------------------------------------------
   Total forces(  12)            : -.754951E+00 -.143709E+01 0.655216E+00
  Timings for vdw_correction_hirshfeld (Tkatchenko-Scheffler 2009):
  | CPU time:        3.053 s, Wall clock time:        3.052 s.
  Removing unitary transformations (pure translations, rotations) from forces on atoms.
  Atomic forces before filtering:
  | Net force on center of mass :  0.411294E-02 -.364223E-02 -.463961E-02 eV/A
  | Net torque on center of mass:  0.106071E-01 -.636448E-02 -.108078E-01 eV
  Atomic forces after filtering:
  | Net force on center of mass :  0.178406E-15 0.535218E-15 0.178406E-15 eV/A
  | Net torque on center of mass:  -.151054E-14 -.113290E-14 -.226580E-14 eV
 
  Energy and forces in a compact form:
  | Total energy uncorrected      :         -0.833178211274442E+04 eV
  | Total energy corrected        :         -0.833178211274442E+04 eV  <-- do not rely on this value for anything but (periodic) metals
  | Electronic free energy        :         -0.833178211274442E+04 eV
  Total atomic forces (unitary forces cleaned) [eV/Ang]:
  |   1         -0.618611479976257E-01          0.376961315131981E+01         -0.210830298336975E+01
  |   2          0.230532586338156E+01         -0.336989489106546E+01          0.148920228250955E+01
  |   3         -0.205248728170156E+01         -0.222570749233945E+00         -0.200831292704553E+00
  |   4         -0.352872461092020E+00         -0.137642113295242E+01         -0.411180063573390E+00
  |   5         -0.432571983967560E+00          0.453449768333120E+00          0.961411714423151E+00
  |   6          0.584922802160452E+00          0.783954118602408E+00          0.319917370414876E+00
  |   7          0.862985546097888E+00          0.302242197758066E+00         -0.151116992667902E+01
  |   8         -0.359800684063866E+00         -0.241016641772432E+00          0.394747636499316E+00
  |   9         -0.350409769861343E+00         -0.131986128990291E+00          0.116946773444680E+01
  |  10          0.831003151221580E+00          0.161505277170655E+01         -0.788526840016186E+00
  |  11         -0.218282683440848E+00         -0.145429935561281E+00          0.301098879663609E-01
  |  12         -0.755951350736659E+00         -0.143699252814412E+01          0.655154480082842E+00
 
  ------------------------------------ 
  Start decomposition of the XC Energy 
  ------------------------------------ 
  Hartree-Fock part   :          0.000000000 Ha              0.000000000 eV
  ------------------------------------ 
  X Energy            :        -35.931580743 Ha           -977.748059281 eV
  C Energy GGA        :         -1.298885727 Ha            -35.344478943 eV
  Total XC Energy     :        -37.230466470 Ha          -1013.092538225 eV
  LDA X and C from self-consistent density 
  X Energy LDA        :        -32.357052212 Ha           -880.480189039 eV
  C Energy LDA        :         -2.635241224 Ha            -71.708562196 eV
  ------------------------------------ 
  End decomposition of the XC Energy 
  ------------------------------------ 
  Performing Hirshfeld analysis of fragment charges and moments.
  ----------------------------------------------------------------------
  | Atom     1: O
  |   Hirshfeld charge        :     -0.27988774
  |   Free atom volume        :     23.95238533
  |   Hirshfeld volume        :     22.53651839
  |   Hirshfeld dipole vector :      0.01878910       0.04142788       0.02230396
  |   Hirshfeld dipole moment :      0.05066327
  |   Hirshfeld second moments:      0.05378892      -0.01979385       0.01927640
  |                                 -0.01979385      -0.00517379      -0.03368818
  |                                  0.01927640      -0.03368818      -0.05024319
  ----------------------------------------------------------------------
  | Atom     2: H
  |   Hirshfeld charge        :      0.14061700
  |   Free atom volume        :     10.44207651
  |   Hirshfeld volume        :      7.14359703
  |   Hirshfeld dipole vector :     -0.06459601       0.08455965      -0.03391932
  |   Hirshfeld dipole moment :      0.11168482
  |   Hirshfeld second moments:      0.12144189       0.00662629       0.00578760
  |                                  0.00662629       0.07360898      -0.00679530
  |                                  0.00578760      -0.00679530       0.08916080
  ----------------------------------------------------------------------
  | Atom     3: H
  |   Hirshfeld charge        :      0.12841939
  |   Free atom volume        :     10.44207651
  |   Hirshfeld volume        :      7.15408991
  |   Hirshfeld dipole vector :      0.11230904       0.01876358       0.01381948
  |   Hirshfeld dipole moment :      0.11470122
  |   Hirshfeld second moments:      0.10106602      -0.01613495      -0.00288042
  |                                 -0.01613495       0.09883746      -0.01354962
  |                                 -0.00288042      -0.01354962       0.08346880
  ----------------------------------------------------------------------
  | Atom     4: O
  |   Hirshfeld charge        :     -0.27993161
  |   Free atom volume        :     23.95238533
  |   Hirshfeld volume        :     21.59375252
  |   Hirshfeld dipole vector :     -0.03067577       0.01815819       0.01807609
  |   Hirshfeld dipole moment :      0.03996833
  |   Hirshfeld second moments:      0.03290686       0.05612460      -0.00819375
  |                                  0.05612460       0.03839149       0.02676038
  |                                 -0.00819375       0.02676038       0.00768266
  ----------------------------------------------------------------------
  | Atom     5: H
  |   Hirshfeld charge        :      0.13151862
  |   Free atom volume        :     10.44207651
  |   Hirshfeld volume        :      6.60325369
  |   Hirshfeld dipole vector :      0.03355415       0.09545733       0.06126848
  |   Hirshfeld dipole moment :      0.11828698
  |   Hirshfeld second moments:      0.11435570       0.01375719      -0.00654000
  |                                  0.01375719       0.10154740       0.00398983
  |                                 -0.00654000       0.00398983       0.10260270
  ----------------------------------------------------------------------
  | Atom     6: H
  |   Hirshfeld charge        :      0.14770535
  |   Free atom volume        :     10.44207651
  |   Hirshfeld volume        :      6.30526280
  |   Hirshfeld dipole vector :     -0.10427742      -0.06448432       0.02188838
  |   Hirshfeld dipole moment :      0.12454361
  |   Hirshfeld second moments:      0.10579666       0.01172231       0.00056444
  |                                  0.01172231       0.12169363       0.01372179
  |                                  0.00056444       0.01372179       0.11211256
  ----------------------------------------------------------------------
  | Atom     7: O
  |   Hirshfeld charge        :     -0.23101053
  |   Free atom volume        :     23.95238533
  |   Hirshfeld volume        :     20.26193064
  |   Hirshfeld dipole vector :     -0.01539016       0.02573535       0.02775941
  |   Hirshfeld dipole moment :      0.04086257
  |   Hirshfeld second moments:      0.08986746       0.04188938      -0.00290297
  |                                  0.04188938       0.04478843      -0.01575138
  |                                 -0.00290297      -0.01575138       0.06415894
  ----------------------------------------------------------------------
  | Atom     8: H
  |   Hirshfeld charge        :      0.17065554
  |   Free atom volume        :     10.44207651
  |   Hirshfeld volume        :      5.60366027
  |   Hirshfeld dipole vector :      0.09669958       0.07007637       0.03307661
  |   Hirshfeld dipole moment :      0.12391759
  |   Hirshfeld second moments:      0.13336391       0.00682723      -0.00875023
  |                                  0.00682723       0.12066035      -0.00914735
  |                                 -0.00875023      -0.00914735       0.13962247
  ----------------------------------------------------------------------
  | Atom     9: H
  |   Hirshfeld charge        :      0.16575301
  |   Free atom volume        :     10.44207651
  |   Hirshfeld volume        :      6.08257034
  |   Hirshfeld dipole vector :     -0.07488879      -0.03664326       0.08424705
  |   Hirshfeld dipole moment :      0.11852690
  |   Hirshfeld second moments:      0.12433098       0.01039726       0.00631918
  |                                  0.01039726       0.11758750       0.00186030
  |                                  0.00631918       0.00186030       0.12661504
  ----------------------------------------------------------------------
  | Atom    10: O
  |   Hirshfeld charge        :     -0.31623598
  |   Free atom volume        :     23.95238533
  |   Hirshfeld volume        :     22.59144316
  |   Hirshfeld dipole vector :      0.05528018       0.01328520      -0.00650962
  |   Hirshfeld dipole moment :      0.05722561
  |   Hirshfeld second moments:     -0.01171724      -0.00820058       0.01503503
  |                                 -0.00820058       0.03433245      -0.05053499
  |                                  0.01503503      -0.05053499      -0.03513822
  ----------------------------------------------------------------------
  | Atom    11: H
  |   Hirshfeld charge        :      0.08816909
  |   Free atom volume        :     10.44207651
  |   Hirshfeld volume        :      7.69361409
  |   Hirshfeld dipole vector :      0.05953875      -0.01930599       0.01035890
  |   Hirshfeld dipole moment :      0.06344203
  |   Hirshfeld second moments:      0.05811681       0.02962529      -0.02039416
  |                                  0.02962529       0.08771004      -0.00227024
  |                                 -0.02039416      -0.00227024       0.07128324
  ----------------------------------------------------------------------
  | Atom    12: H
  |   Hirshfeld charge        :      0.13420294
  |   Free atom volume        :     10.44207651
  |   Hirshfeld volume        :      6.54132839
  |   Hirshfeld dipole vector :      0.03950962       0.10492681      -0.05338217
  |   Hirshfeld dipole moment :      0.12417851
  |   Hirshfeld second moments:      0.11533410      -0.00952914       0.00947682
  |                                 -0.00952914       0.10810447      -0.00915595
  |                                  0.00947682      -0.00915595       0.09671176
  ----------------------------------------------------------------------


------------------------------------------------------------------------------
  Final output of selected total energy values:

  The following output summarizes some interesting total energy values
  at the end of a run (AFTER all relaxation, molecular dynamics, etc.).

  | Total energy of the DFT / Hartree-Fock s.c.f. calculation      :          -8331.782112744 eV
  | Final zero-broadening corrected energy (caution - metals only) :          -8331.782112744 eV
  | For reference only, the value of 1 Hartree used in FHI-aims is :             27.211384500 eV

  Before relying on these values, please be sure to understand exactly which
  total energy value is referred to by a given number. Different objects may
  all carry the same name 'total energy'. Definitions:

  Total energy of the DFT / Hartree-Fock s.c.f. calculation:
  | Note that this energy does not include ANY quantities calculated after the
  | s.c.f. cycle, in particular not ANY RPA, MP2, etc. many-body perturbation terms.

  Final zero-broadening corrected energy:
  | For metallic systems only, a broadening of the occupation numbers at the Fermi
  | level can be extrapolated back to zero broadening by an electron-gas inspired
  | formula. For all systems that are not real metals, this value can be
  | meaningless and should be avoided.

------------------------------------------------------------------------------

------------------------------------------------------------
          Leaving FHI-aims.
          Date     :  20150727, Time     :  121216.945

          Computational steps:
          | Number of self-consistency cycles          :           14

          Detailed time accounting                     :  max(cpu_time)    wall_clock(cpu1)
          | Total time                                 :       20.336 s          20.357 s
          | Preparation time                           :        0.169 s           0.558 s
          | Grid partitioning                          :        0.112 s           0.113 s
          | Preloading free-atom quantities on grid    :        0.013 s           0.014 s
          | Free-atom superposition energy             :        0.046 s           0.045 s
          | Total time for integrations                :        8.403 s           8.399 s
          | Total time for solution of K.-S. equations :        0.546 s           0.548 s
          | Total time for density & force components  :        6.629 s           6.629 s
          | Total time for mixing                      :        0.132 s           0.131 s
          | Total time for Hartree multipole update    :        0.059 s           0.061 s
          | Total time for Hartree multipole sum       :        3.626 s           3.627 s
          | Total time for total energy evaluation     :        0.003 s           0.006 s
          | Total time for scaled ZORA corrections     :        0.000 s           0.000 s
          | Total time for TS (2009) vdW correction    :        0.034 s           0.034 s

          Have a nice day.
------------------------------------------------------------
