  MPI-parallelism will be employed.
------------------------------------------------------------
          Invoking FHI-aims ...
          Version 081213
          Compiled on 2013/08/29 at 17:41:06 on host generoso.

          When using FHI-aims, please cite the following reference:

          Volker Blum, Ralf Gehrke, Felix Hanke, Paula Havu,
          Ville Havu, Xinguo Ren, Karsten Reuter, and Matthias Scheffler,
          'Ab Initio Molecular Simulations with Numeric Atom-Centered Orbitals: FHI-aims',
          Computer Physics Communications 180, 2175-2196 (2009)

          For any questions about FHI-aims, please visit the aimsclub website
          with its forums and wiki. Contributions to both the forums and the
          wiki are warmly encouraged - they are for you, and everyone is welcome there.

------------------------------------------------------------

  Date     :  20150727, Time     :  123943.489
  Time zero on CPU 1             :   0.399930000000000E-01  s.
  Internal wall clock time zero  :           207232783.489  s.

  Using        8 parallel tasks.
  Task        0 on host gen60 reporting.
  Task        1 on host gen60 reporting.
  Task        2 on host gen60 reporting.
  Task        3 on host gen60 reporting.
  Task        4 on host gen60 reporting.
  Task        5 on host gen60 reporting.
  Task        6 on host gen60 reporting.
  Task        7 on host gen60 reporting.

  Performing system and environment tests:
  | Environment variable OMP_NUM_THREADS correctly set to 1.
  | Checking for scalapack...
  | No scalapack compiled in.

  Obtaining array dimensions for all initial allocations:
  
  -----------------------------------------------------------------------
  Parsing control.in (first pass over file, find array dimensions only).
  The contents of control.in will be repeated verbatim below
  unless switched off by setting 'verbatim_writeout .false.' .
  in the first line of control.in .
  -----------------------------------------------------------------------
  
  #########################################################################################
  #
  #  Volker Blum, FHI 2008 : Test run input file control.in
  #
  #########################################################################################
  #
  #  Physical model
  #
    xc                 rpbe
    spin               none
    relativistic       atomic_zora scalar
    charge             0.
   vdw_correction_hirshfeld
  #
  #  SCF convergence
  #
    occupation_type    gaussian 0.01
    mixer              pulay
      n_max_pulay        10
      charge_mix_param   0.1
    sc_accuracy_rho    5E-5
    sc_accuracy_eev    5E-3
    sc_accuracy_etot   5E-6
    sc_iter_limit      3000
  #
  #  Eigenvalue solver
  #
    KS_method          lapack
      empty_states       8
      basis_threshold    0.e-5
  #
  #  Efficiency
  #
  #   all previous settings are now default, except stratmann still
  #   undecided. Continue to handle stratmann with care, if at all.
  #
  #  partition_type stratmann
    partition_type rho_r2
  #  hartree_partition_type stratmann
  #
  #  Oprions for large clusters (100's of atoms: memory saving / better scaling)
  #
  # for periodic systems:
  #
    density_update_method orbital
    packed_matrix_format none
  #  k_grid 6 6 6
  #  output k_eigenvalue 1
  #  distributed_spline_storage .true.
  #
  #  Relaxation
  #
  #  relax_geometry   bfgs 5.e-3
    sc_accuracy_forces 5.E-4
    final_forces_cleaned .true.
  #
  #  Output options
  #
  #  output mulliken
    output Hirshfeld
  #  output dipole
  
  #harmonic_length_scale 0.001
  
  ################################################################################
  #
  #  FHI-aims code project
  #  VB, Fritz-Haber Institut, 2007
  #
  #  Suggested "safe" defaults for H atom (to be pasted into control.in file)
  #  Basis constructed for a non-relativistic H2 molecule using the
  #  PW-LDA functional.
  #
  ################################################################################
    species        H
  #     global species definitions
      nucleus             1
      cut_pot             4.0  2.0  1.0
      cut_free_atom       finite 8.0
      logarithmic         0.00010000 100.00  1.0123
      basis_dep_cutoff    1d-4  # 1d-4 is safe default - please check 5d-4 if you wish!
      radial_base         24 7.0
      radial_multiplier   2
      angular_grids       specified
        division   0.2783  110
        division   0.3822  194
        division   0.5626  302
  #      division   0.5922  434
  #      division   0.6227  590
  #      division   0.7206  770
        outer_grid  302
      l_hartree           4
  ################################################################################
  #
  #  Definition of "minimal" basis
  #
  ################################################################################
  #     valence basis states
      valence      1  s   1.
  #     ion occupancy
      ion_occ      1  s   0.5
  ################################################################################
  #
  #  Suggested additional basis functions. For production calculations,
  #  uncomment them one after another (the most important basis functions are
  #  listed first).
  #
  ################################################################################
  #  "First tier" - improvements: -1014.90 meV to -62.69 meV
       hydro 2 s 2.1
       hydro 2 p 3.5
  #  "Second tier" - improvements: -12.89 meV to -1.83 meV
       hydro 1 s 0.85
       hydro 2 p 3.7
       hydro 2 s 1.2
       hydro 3 d 7
  #  "Third tier" - improvements: -0.25 meV to -0.12 meV
  #     hydro 4 f 11.2
  #     hydro 3 p 4.8
  #     hydro 4 d 9
  #     hydro 3 s 3.2
  
  ################################################################################
  #
  #  FHI-aims code project
  #  VB, Fritz-Haber Institut, 2007
  #
  #  Suggested "safe" defaults for O atom (to be pasted into control.in file)
  #  All values have been tested for a non-relativistic, non-spinpolarized O2
  #  molecule using the PW-LDA functional. Validity for PBE is expected.
  #
  #  Constructed for dimers: 1.0 A, 1.208 A, 1.5 A, 2.0 A, 3.0 A
  #
  ################################################################################
    species        O
  #     global species definitions
      nucleus             8
      mass                15.9994
      l_hartree           4
      cut_pot             4.0  2.0  1.0
      cut_free_atom       finite 8.0
      basis_dep_cutoff    1d-4  # 1d-4 is safe default - please check 5d-4 if you wish!
      logarithmic         0.00010000 100.00  1.0123
      radial_base         36 7.0
      radial_multiplier   2
       angular_grids specified
        division   0.4087  110
        division   0.5181  194
        division   0.6184  302
  #      division   0.7315  434
  #      division   0.7934  590
  #      division   0.9656  770
  #      division   1.4041  974
  #      outer_grid 974
        outer_grid 302
  ################################################################################
  #
  #  Definition of "minimal" basis
  #
  ################################################################################
  #     valence basis states
      valence      2  s   2.
      valence      2  p   4.
  #     ion occupancy
      ion_occ      2  s   1.
      ion_occ      2  p   3.
  ################################################################################
  #
  #  Suggested additional basis functions. For production calculations,
  #  uncomment them one after another (the most important basis functions are
  #  listed first).
  #
  ################################################################################
  #  "First tier" - improvements: -699.05 meV to -159.38 meV
       hydro 2 p 1.8
       hydro 3 d 7.6
       hydro 3 s 6.4
  #  "Second tier" - improvements: -49.91 meV to -5.39 meV
       hydro 4 f 11.6
       hydro 3 p 6.2
       hydro 3 d 5.6
       hydro 5 g 17.6
       hydro 1 s 0.75
  #  "Third tier" - improvements: -2.83 meV to -0.50 meV
  #     ionic 2 p auto
  #     hydro 4 f 10.8
  #     hydro 4 d 4.7
  #     hydro 2 s 6.8
  #  "Fourth tier" - improvements: -0.40 meV to -0.12 meV
  #     hydro 3 p 5
  #     hydro 3 s 3.3
  #     hydro 5 g 15.6
  #     hydro 4 f 17.6
  #     hydro 4 d 14
  # Further basis functions - -0.08 meV and below
  #     hydro 3 s 2.1
  #     hydro 4 d 11.6
  #     hydro 3 p 16
  #     hydro 2 s 17.2
  
  
  -----------------------------------------------------------------------
  Completed first pass over input file control.in .
  -----------------------------------------------------------------------
  
  
  -----------------------------------------------------------------------
  Parsing geometry.in (first pass over file, find array dimensions only).
  The contents of geometry.in will be repeated verbatim below
  unless switched off by setting 'verbatim_writeout .false.' .
  in the first line of geometry.in .
  -----------------------------------------------------------------------
  
  atom      -4.053030000      0.065001000     -1.525160000  O
  atom      -4.566710000      0.974813000     -1.912820000  H
  atom      -3.067820000      0.330172000     -1.477310000  H
  atom      -3.818880000      2.024990000      2.187990000  O
  atom      -3.690880000      1.961360000      3.202150000  H
  atom      -4.546490000      2.751300000      2.045370000  H
  atom      -4.066610000      4.258280000     -0.900064000  O
  atom      -3.224110000      3.876870000     -0.569443000  H
  atom      -3.737450000      5.116530000     -1.322720000  H
  atom      -5.628340000      3.730740000      1.385610000  O
  atom      -6.090650000      4.418470000      1.860350000  H
  atom      -5.158540000      4.200260000      0.615875000  H
  
  -----------------------------------------------------------------------
  Completed first pass over input file geometry.in .
  -----------------------------------------------------------------------
  
 
  Basic array size parameters: 
  | Number of species                 :        2
  | Number of atoms                   :       12
  | Max. basis fn. angular momentum   :        4
  | Max. atomic/ionic basis occupied n:        2
  | Max. number of basis fn. types    :        2
  | Max. radial fns per species/type  :        8
  | Max. logarithmic grid size        :     1301
  | Max. radial integration grid size :       73
  | Max. angular integration grid size:      302
  | Max. angular grid division number :        8
  | Radial grid for Hartree potential :     1301
  | Number of spin channels           :        1

------------------------------------------------------------
          Reading file control.in.
------------------------------------------------------------
  XC: Using RPBE gradient-corrected functionals.
  Spin treatment: No spin polarisation.
  Scalar relativistic treatment of kinetic energy: on-site free-atom approximation to ZORA.
  Charge =   0.000000E+00: Neutral system requested explicitly.
  Using non-empirical van der Waals correction (Hirshfeld partitioning):
  Occupation type: Gaussian broadening, width =   0.100000E-01 eV.
  Using pulay charge density mixing.
  Pulay mixing - number of memorized iterations:   10
  Charge density mixing - mixing parameter:     0.1000
  Convergence accuracy of self-consistent charge density: 0.5000E-04
  Convergence accuracy of sum of eigenvalues: 0.5000E-02
  Convergence accuracy of total energy: 0.5000E-05
  Maximum number of s.-c. iterations  :  3000
  Kohn-Sham eigenvalues and eigenfunctions calculated by lapack diagonalisation (D&C).
  Number of empty states per atom:        8
  Threshold for basis singularities: 0.0000E+00
  Partition function in integrals calculations: rho / r^2
 Using packed matrix format           0
  Convergence accuracy of forces: 0.5000E-03
  Cleaning forces before final output.
  Hirshfeld charge analysis will be performed.
 
  Reading configuration options for species H                   .
  | Found nuclear charge :   1.0000
  | Found cutoff potl. onset [A], width [A], scale factor :    4.00000    2.00000    1.00000
  | Found cutoff specification for free atom: Cutoff potential begins at    8.00000 A.
  | Found logarithmic grid data [bohr] : 0.1000E-03 0.1000E+03 0.1012E+01
  | Threshold for basis-dependent cutoff potential is   0.100000E-03
  | Found data for basic radial integration grid :    24 points, outermost radius =    7.000 A
  | Found multiplier for basic radial grid :   2
  | Found angular grid specification: user-specified.
  | Specified grid contains     4 separate shells.
  | Check grid settings after all constraints further below.
  | Found l_max for Hartree potential  :   4
  | Found free-atom valence shell :  1 s   1.000
  | No ionic wave fns used. Skipping ion_occ.
  | Found hydrogenic basis function :  2 s   2.100
  | Found hydrogenic basis function :  2 p   3.500
  | Found hydrogenic basis function :  1 s   0.850
  | Found hydrogenic basis function :  2 p   3.700
  | Found hydrogenic basis function :  2 s   1.200
  | Found hydrogenic basis function :  3 d   7.000
  Species H                   : Missing cutoff potential type.
  Defaulting to exp(1/x)/(1-x)^2 type cutoff potential.
  Species H : On-site basis accuracy parameter (for Gram-Schmidt orthonormalisation) not specified.
  Using default value basis_acc =  0.1000000E-03.
  Species H                   : Using default innermost maximum threshold i_radial=  2 for radial functions.
  Species H                   : Basic radial grid will be enhanced according to radial_multiplier =   2, to contain    49 grid points.
 
  Reading configuration options for species O                   .
  | Found nuclear charge :   8.0000
  | Found atomic mass :    15.9994000000000      amu
  | Found l_max for Hartree potential  :   4
  | Found cutoff potl. onset [A], width [A], scale factor :    4.00000    2.00000    1.00000
  | Found cutoff specification for free atom: Cutoff potential begins at    8.00000 A.
  | Threshold for basis-dependent cutoff potential is   0.100000E-03
  | Found logarithmic grid data [bohr] : 0.1000E-03 0.1000E+03 0.1012E+01
  | Found data for basic radial integration grid :    36 points, outermost radius =    7.000 A
  | Found multiplier for basic radial grid :   2
  | Found angular grid specification: user-specified.
  | Specified grid contains     4 separate shells.
  | Check grid settings after all constraints further below.
  | Found free-atom valence shell :  2 s   2.000
  | Found free-atom valence shell :  2 p   4.000
  | No ionic wave fns used. Skipping ion_occ.
  | No ionic wave fns used. Skipping ion_occ.
  | Found hydrogenic basis function :  2 p   1.800
  | Found hydrogenic basis function :  3 d   7.600
  | Found hydrogenic basis function :  3 s   6.400
  | Found hydrogenic basis function :  4 f  11.600
  | Found hydrogenic basis function :  3 p   6.200
  | Found hydrogenic basis function :  3 d   5.600
  | Found hydrogenic basis function :  5 g  17.600
  | Found hydrogenic basis function :  1 s   0.750
  Species O                   : Missing cutoff potential type.
  Defaulting to exp(1/x)/(1-x)^2 type cutoff potential.
  Species O : On-site basis accuracy parameter (for Gram-Schmidt orthonormalisation) not specified.
  Using default value basis_acc =  0.1000000E-03.
  Species O                   : Using default innermost maximum threshold i_radial=  2 for radial functions.
  Species O                   : Basic radial grid will be enhanced according to radial_multiplier =   2, to contain    73 grid points.
 
  Finished reading input file 'control.in'. Consistency checks are next.
 
  Target number of points in a grid batch is not set. Defaulting to  100
  Method for grid partitioning is not set. Defaulting to parallel hash+maxmin partitioning.
  Batch size limit is not set. Defaulting to    200
  By default, will store active basis functions for each batch.
  If in need of memory, prune_basis_once .false. can be used to disable this option.
  communication_type for Hartree potential was not specified.
  Defaulting to calc_hartree .
  Pulay mixer: Number of initial linear mixing iterations not set.
  Defaulting to    0 iterations.
  Work space size for distributed Hartree potential not set.
  Defaulting to   0.200000E+03 MB.
  Algorithm-dependent basis array size parameters:
  | n_max_pulay                         :       10
  Geometry relaxation not requested: no relaxation will be performed.
  Handling of forces: Unphysical translation and rotation will be removed from forces.
  No accuracy limit for integral partition fn. given. Defaulting to 0.1000E-14.
  No threshold value for u(r) in integrations given. Defaulting to 0.1000E-05.
  No accuracy for occupation numbers given. Defaulting to 0.1000E-07.
  No threshold value for occupation numbers given. Defaulting to 0.0000E+00.
  No accuracy for fermi level given. Defaulting to 0.1000E-19.
  Maximum # of iterations to find E_F not set. Defaulting to  200.
  Will not use alltoall communication since running on < 1024 CPUs.
  Partitioning for Hartree potential was not defined. Using partition_type for integrals.
  | Reporting present value of keyword multip_moments_threshold  :       0.10000000E-09
  | This value may affect high angular momentum components of the Hartree potential in periodic systems.
  No q(lm)/r^(l+1) cutoff set for long-range Hartree potential.
  | Using default value of  0.100000E-09 .
  | Verify using the multipole_threshold keyword.
  Defaulting to new monopole extrapolation.
  Density update method: Loop over occupied states selected for charge density update.
------------------------------------------------------------


------------------------------------------------------------
          Reading geometry description geometry.in.
------------------------------------------------------------
  Input structure read successfully.
  The structure contains       12 atoms,  and a total of         40.000 electrons.

  Input geometry:
  | No unit cell requested.
  | Atomic structure:
  |       Atom                x [A]            y [A]            z [A]
  |    1: Species O             -4.053030         0.065001        -1.525160
  |    2: Species H             -4.566710         0.974813        -1.912820
  |    3: Species H             -3.067820         0.330172        -1.477310
  |    4: Species O             -3.818880         2.024990         2.187990
  |    5: Species H             -3.690880         1.961360         3.202150
  |    6: Species H             -4.546490         2.751300         2.045370
  |    7: Species O             -4.066610         4.258280        -0.900064
  |    8: Species H             -3.224110         3.876870        -0.569443
  |    9: Species H             -3.737450         5.116530        -1.322720
  |   10: Species O             -5.628340         3.730740         1.385610
  |   11: Species H             -6.090650         4.418470         1.860350
  |   12: Species H             -5.158540         4.200260         0.615875
  |

  | The smallest distance between any two atoms is         0.95502940 AA.
  |
  | The first atom of this pair is atom number                     10 .
  | The second atom of this pair is atom number                    11 .

  Structure-dependent array size parameters: 
  | Maximum number of distinct radial functions  :       18
  | Maximum number of basis functions            :      276
  | Number of Kohn-Sham states (occupied + empty):       68
------------------------------------------------------------

------------------------------------------------------------
          Preparing all fixed parts of the calculation.
------------------------------------------------------------
  Determining machine precision:
    2.225073858507201E-308
  Setting up grids for atomic and cluster calculations.

  Creating wave function, potential, and density for free atoms.

  Species: H

  List of occupied orbitals and eigenvalues:
    n    l              occ      energy [Ha]    energy [eV]
    1    0           1.0000        -0.241408        -6.5691


  Species: O

  List of occupied orbitals and eigenvalues:
    n    l              occ      energy [Ha]    energy [eV]
    1    0           2.0000       -18.944147      -515.4965
    2    0           2.0000        -0.883529       -24.0421
    2    1           4.0000        -0.330176        -8.9845

  Creating fixed part of basis set: Ionic, confined, hydrogenic.
 
  H                    hydrogenic:
 
  List of hydrogenic basis orbitals: 
    n    l      effective z      eigenvalue [eV]  inner max. [A]     outer max. [A]     outer radius [A]   
    2    0         2.100000       -14.9965           0.193241           1.317192           5.372934
    2    1         3.500000       -41.6672           0.602363           0.602363           4.056010
    1    0         0.850000        -9.8292           0.624864           0.624864           5.372934
    2    1         3.700000       -46.5653           0.573616           0.573616           3.909951
    2    0         1.200000        -4.5995           0.334977           2.228160           5.505921
    3    2         7.000000       -74.0753           0.680692           0.680692           3.769152
 
 
  O                    hydrogenic:
 
  List of hydrogenic basis orbitals: 
    n    l      effective z      eigenvalue [eV]  inner max. [A]     outer max. [A]     outer radius [A]   
    2    1         1.800000       -11.0118           1.178546           1.178546           5.432516
    3    2         7.600000       -87.3182           0.624117           0.624117           3.541422
    3    0         6.400000       -61.9209           0.061166           1.081887           4.306510
    4    3        11.600000      -114.4238           0.731621           0.731621           3.584982
    3    1         6.200000       -58.1113           0.255677           1.030255           4.306510
    3    2         5.600000       -47.4081           0.847222           0.847222           4.413102
    5    4        17.600000      -168.5799           0.749730           0.749730           3.372413
    1    0         0.750000        -7.6499           0.705275           0.705275           5.366508
 

  Adding cutoff potential to free-atom effective potential.
  Creating atomic-like basis functions for current effective potential.

  Species H                   :

  List of atomic basis orbitals and eigenvalues:
    n    l      energy [Ha]    energy [eV]    outer radius [A]
    1    0        -0.241374        -6.5681       5.372934


  Species O                   :

  List of atomic basis orbitals and eigenvalues:
    n    l      energy [Ha]    energy [eV]    outer radius [A]
    1    0       -18.944147      -515.4965       1.415745
    2    0        -0.883529       -24.0421       5.048305
    2    1        -0.330173        -8.9845       5.301302

  Assembling full basis from fixed parts.
  | Species H :   atomic orbital   1 s accepted.
  | Species H :    hydro orbital   2 s accepted.
  | Species H :    hydro orbital   1 s accepted.
  | Species H :    hydro orbital   2 s accepted.
  | Species H :    hydro orbital   2 p accepted.
  | Species H :    hydro orbital   2 p accepted.
  | Species H :    hydro orbital   3 d accepted.
  | Species O :   atomic orbital   1 s accepted.
  | Species O :    hydro orbital   3 s accepted.
  | Species O :   atomic orbital   2 s accepted.
  | Species O :    hydro orbital   1 s accepted.
  | Species O :    hydro orbital   3 p accepted.
  | Species O :   atomic orbital   2 p accepted.
  | Species O :    hydro orbital   2 p accepted.
  | Species O :    hydro orbital   3 d accepted.
  | Species O :    hydro orbital   3 d accepted.
  | Species O :    hydro orbital   4 f accepted.
  | Species O :    hydro orbital   5 g accepted.
 
  Basis size parameters after reduction:
  | Total number of radial functions:       18
  | Total number of basis functions :      276
 
  Testing on-site integration grid accuracy.
  |  Species  Function  <phi|h_atom|phi> (log., in eV)  <phi|h_atom|phi> (rad., in eV)
           1        1                 -6.5683835025                 -6.5684759159
           1        2                 13.3711789951                 13.3708738703
           1        3                 23.6590910787                 23.6532055418
           1        4                 16.2963827186                 16.1870710655 ***
           1        5                 28.7627214838                 28.7627215090
           1        6                 59.5965249172                 59.5965950857
           1        7                 60.2220506392                 60.2220503827
           2        8               -515.4964576505               -515.4964530710
           2        9                 15.3030791347                 15.3030722972
           2       10                -21.7296094581                -21.7296135470
           2       11                 14.2969371730                 14.2969701621
           2       12                 21.0679693190                 21.0679697493
           2       13                 -2.3833606469                 -2.3833613176
           2       14                 13.7067136422                 13.7066766629
           2       15                 45.8013116808                 45.8013116965
           2       16                 52.2309815402                 52.2309831494
           2       17                 85.4120732416                 85.4120732763
           2       18                142.1019167745                142.1019167817
 * Note: Onsite integrals marked "***" above are less accurate than
 * onsite_accuracy_threshold =    0.03000 eV. Usually, this is harmless.
 * When in doubt, tighten the "radial" and/or "radial_multiplier" flags to check.

  Preparing densities etc. for the partition functions (integrals / Hartree potential).

  Preparations completed.
  max(cpu_time)          :      0.172 s.
  Wall clock time (cpu1) :      0.488 s.
------------------------------------------------------------

------------------------------------------------------------
          Begin self-consistency loop: Initialization.

          Date     :  20150727, Time     :  123943.980
------------------------------------------------------------

  Initializing index lists of integration centers etc. from given atomic structure:
  | Number of centers in hartree potential         :        12
  | Number of centers in hartree multipole         :        12
  | Number of centers in electron density summation:        12
  | Number of centers in basis integrals           :        12
  | Number of centers in integrals                 :        12
  Partitioning the integration grid into batches with parallel hashing+maxmin method.
  | Number of batches:     1575
  | Maximal batch size:     191
  | Minimal batch size:      51
  | Average batch size:      99.916
  | Standard deviation of batch sizes:      27.941

  Integration load balanced across     8 MPI tasks.
  Work distribution over tasks is as follows:
  Task     0 has      19709 integration points.
  Task     1 has      19637 integration points.
  Task     2 has      19703 integration points.
  Task     3 has      19684 integration points.
  Task     4 has      19640 integration points.
  Task     5 has      19677 integration points.
  Task     6 has      19616 integration points.
  Task     7 has      19702 integration points.
  Initializing partition tables, free-atom densities, potentials, etc. across the integration grid (initialize_grid_storage).
  | Net number of integration points:   157368
  | of which are non-zero points    :   156829
  Obtaining max. number of non-zero basis functions in each batch (get_n_compute_maxes).
  | Maximal number of non-zero basis functions:      274 in task     0
  | Maximal number of non-zero basis functions:      274 in task     1
  | Maximal number of non-zero basis functions:      274 in task     2
  | Maximal number of non-zero basis functions:      274 in task     3
  | Maximal number of non-zero basis functions:      274 in task     4
  | Maximal number of non-zero basis functions:      274 in task     5
  | Maximal number of non-zero basis functions:      274 in task     6
  | Maximal number of non-zero basis functions:      273 in task     7
  Integrating Hamiltonian matrix: batch-based integration.
  Time summed over all CPUs for integration: real work        4.293 s, elapsed        4.359 s
  Integrating overlap matrix.
  Time summed over all CPUs for integration: real work        2.245 s, elapsed        2.279 s

  Updating Kohn-Sham eigenvalues, eigenvectors, occupation numbers, and Fermi level.
  Solving generalized eigenproblem
  Updating Kohn-Sham eigenvalues and eigenfunctions.
  Transforming overlap matrix and checking for singularities.
  Overlap matrix is nonsingular:
  | Lowest eigenvalue:  0.345129E-03
  Solving real generalised eigenvalue problem by standard LAPACK (fast)
  Determining occupation numbers for Kohn-Sham eigenstates.
  | Chemical potential (Fermi level) in eV                 : -.44070550E+01
  | Error in electron count due to remaining E_F inaccuracy: 0.00000000E+00
  | Maximum occupation number of highest empty state:  0.00E+00

  Writing Kohn-Sham eigenvalues.

  State    Occupation    Eigenvalue [Ha]    Eigenvalue [eV]
      1       2.00000         -19.050616         -518.39364
      2       2.00000         -19.042514         -518.17318
      3       2.00000         -19.028888         -517.80239
      4       2.00000         -19.019187         -517.53841
      5       2.00000          -1.100399          -29.94339
      6       2.00000          -1.085668          -29.54254
      7       2.00000          -1.059649          -28.83451
      8       2.00000          -1.042751          -28.37470
      9       2.00000          -0.631741          -17.19056
     10       2.00000          -0.605138          -16.46665
     11       2.00000          -0.601055          -16.35554
     12       2.00000          -0.569536          -15.49787
     13       2.00000          -0.522464          -14.21697
     14       2.00000          -0.507057          -13.79774
     15       2.00000          -0.483104          -13.14593
     16       2.00000          -0.478885          -13.03111
     17       2.00000          -0.438788          -11.94004
     18       2.00000          -0.432214          -11.76115
     19       2.00000          -0.417281          -11.35480
     20       2.00000          -0.409157          -11.13372
     21       0.00000          -0.097070           -2.64142
     22       0.00000          -0.073245           -1.99311
     23       0.00000          -0.056825           -1.54629
     24       0.00000          -0.039373           -1.07139
     25       0.00000          -0.023209           -0.63154
     26       0.00000          -0.000399           -0.01086
     27       0.00000           0.033183            0.90295
     28       0.00000           0.049577            1.34905
     29       0.00000           0.070879            1.92873
     30       0.00000           0.073177            1.99125
     31       0.00000           0.082888            2.25550
     32       0.00000           0.092040            2.50455
     33       0.00000           0.096645            2.62984
     34       0.00000           0.100019            2.72164
     35       0.00000           0.106472            2.89724
     36       0.00000           0.123396            3.35776
     37       0.00000           0.129142            3.51414
     38       0.00000           0.138035            3.75612
     39       0.00000           0.155735            4.23777
     40       0.00000           0.166442            4.52911
     41       0.00000           0.173698            4.72657
     42       0.00000           0.194506            5.29278
     43       0.00000           0.228061            6.20584
     44       0.00000           0.241724            6.57764
     45       0.00000           0.254350            6.92121
     46       0.00000           0.273291            7.43662
     47       0.00000           0.283741            7.72098
     48       0.00000           0.308536            8.39569
     49       0.00000           0.322182            8.76702
     50       0.00000           0.342025            9.30698
     51       0.00000           0.355150            9.66413
     52       0.00000           0.367911           10.01137
     53       0.00000           0.384644           10.46668
     54       0.00000           0.388797           10.57970
     55       0.00000           0.399127           10.86081
     56       0.00000           0.414624           11.28249
     57       0.00000           0.429607           11.69021
     58       0.00000           0.441305           12.00851
     59       0.00000           0.459537           12.50464
     60       0.00000           0.473517           12.88505
     61       0.00000           0.503306           13.69564
     62       0.00000           0.512013           13.93260
     63       0.00000           0.519925           14.14789
     64       0.00000           0.534747           14.55120
     65       0.00000           0.561931           15.29092
     66       0.00000           0.617245           16.79610
     67       0.00000           0.664295           18.07638
     68       0.00000           0.713799           19.42346

  Highest occupied state (VBM) at    -11.13371932 eV
  | Occupation number:      2.00000000

  Lowest unoccupied state (CBM) at    -2.64141587 eV
  | Occupation number:      0.00000000

  Overall HOMO-LUMO gap:      8.49230345 eV.
  Calculating total energy contributions from superposition of free atom densities.

  Total energy components:
  | Sum of eigenvalues            :        -173.05219002 Ha       -4708.98968112 eV
  | XC energy correction          :         -36.39222817 Ha        -990.28291345 eV
  | XC potential correction       :          46.49403403 Ha        1265.16703692 eV
  | Free-atom electrostatic energy:        -143.50150914 Ha       -3904.87474166 eV
  | Hartree energy correction     :           0.00000000 Ha           0.00000000 eV
  | van der Waals energy corr.    :           0.00000000 Ha           0.00000000 eV
  | Entropy correction            :           0.00000000 Ha           0.00000000 eV
  | ---------------------------
  | Total energy                  :        -306.45189330 Ha       -8338.98029932 eV
  | Total energy, T -> 0          :        -306.45189330 Ha       -8338.98029932 eV  <-- do not rely on this value for anything but (periodic) metals
  | Electronic free energy        :        -306.45189330 Ha       -8338.98029932 eV

  Derived energy quantities:
  | Kinetic energy                :         303.21769654 Ha        8250.97332780 eV
  | Electrostatic energy          :        -573.27736167 Ha      -15599.67071366 eV
  | Energy correction for multipole
  | error in Hartree potential    :           0.00000000 Ha           0.00000000 eV
  | Sum of eigenvalues per atom                           :        -392.41580676 eV
  | Total energy (T->0) per atom                          :        -694.91502494 eV  <-- do not rely on this value for anything but (periodic) metals
  | Electronic free energy per atom                       :        -694.91502494 eV
  Initialize hartree_potential_storage
  Max. number of atoms included in rho_multipole:           12

  End scf initialization - timings             :  max(cpu_time)    wall_clock(cpu1)
  | Time for scf. initialization               :        1.206 s           1.206 s
  | Boundary condition initialization          :        0.000 s           0.000 s
  | Integration                                :        0.832 s           0.832 s
  | Solution of K.-S. eqns.                    :        0.118 s           0.118 s
  | Grid partitioning                          :        0.109 s           0.109 s
  | Preloading free-atom quantities on grid    :        0.014 s           0.013 s
  | Free-atom superposition energy             :        0.045 s           0.046 s
  | Total energy evaluation                    :        0.000 s           0.000 s
------------------------------------------------------------

------------------------------------------------------------
          Begin self-consistency iteration #    1

  Date     :  20150727, Time     :  123945.186
------------------------------------------------------------
  Evaluating new KS density.
  Integration grid: deviation in total charge (<rho> - N_e) =  -7.105427E-15
  Pulay mixing of updated and previous charge densities.

  Evaluating partitioned Hartree potential by multipole expansion.
  | Analytical far-field extrapolation by fixed multipoles:
  | Hartree multipole sum: apparent total charge =  -0.138300E-05
  Summing up the Hartree potential.
  Time summed over all CPUs for potential: real work        1.654 s, elapsed        1.660 s
  | RMS charge density error from multipole expansion :   0.137836E-02

  Integrating Hamiltonian matrix: batch-based integration.
  Time summed over all CPUs for integration: real work        4.290 s, elapsed        4.365 s

  Updating Kohn-Sham eigenvalues, eigenvectors, occupation numbers, and Fermi level.
  Solving generalized eigenproblem
  Updating Kohn-Sham eigenvalues and eigenfunctions.
  Solving real generalised eigenvalue problem by standard LAPACK (fast)
  Determining occupation numbers for Kohn-Sham eigenstates.
  | Chemical potential (Fermi level) in eV                 : -.39895480E+01
  | Error in electron count due to remaining E_F inaccuracy: 0.00000000E+00
  | Maximum occupation number of highest empty state:  0.00E+00

  Writing Kohn-Sham eigenvalues.

  State    Occupation    Eigenvalue [Ha]    Eigenvalue [eV]
      1       2.00000         -18.978602         -516.43403
      2       2.00000         -18.975286         -516.34380
      3       2.00000         -18.945093         -515.52222
      4       2.00000         -18.943949         -515.49109
      5       2.00000          -1.065326          -28.98899
      6       2.00000          -1.053947          -28.67936
      7       2.00000          -1.015252          -27.62640
      8       2.00000          -1.003596          -27.30924
      9       2.00000          -0.601088          -16.35645
     10       2.00000          -0.578584          -15.74408
     11       2.00000          -0.564724          -15.36692
     12       2.00000          -0.537178          -14.61736
     13       2.00000          -0.487179          -13.25682
     14       2.00000          -0.473212          -12.87674
     15       2.00000          -0.441360          -12.01002
     16       2.00000          -0.440553          -11.98805
     17       2.00000          -0.400946          -10.91029
     18       2.00000          -0.397968          -10.82927
     19       2.00000          -0.371354          -10.10506
     20       2.00000          -0.367896          -10.01097
     21       0.00000          -0.088852           -2.41780
     22       0.00000          -0.063957           -1.74037
     23       0.00000          -0.048997           -1.33328
     24       0.00000          -0.031725           -0.86328
     25       0.00000          -0.014122           -0.38429
     26       0.00000           0.006730            0.18313
     27       0.00000           0.042214            1.14870
     28       0.00000           0.059249            1.61225
     29       0.00000           0.080362            2.18676
     30       0.00000           0.081537            2.21874
     31       0.00000           0.093458            2.54312
     32       0.00000           0.099891            2.71817
     33       0.00000           0.105142            2.86106
     34       0.00000           0.111436            3.03232
     35       0.00000           0.115801            3.15110
     36       0.00000           0.132428            3.60355
     37       0.00000           0.135969            3.69991
     38       0.00000           0.150361            4.09154
     39       0.00000           0.164758            4.48329
     40       0.00000           0.175393            4.77270
     41       0.00000           0.182251            4.95931
     42       0.00000           0.205903            5.60290
     43       0.00000           0.237247            6.45581
     44       0.00000           0.250251            6.80968
     45       0.00000           0.261878            7.12605
     46       0.00000           0.282081            7.67581
     47       0.00000           0.292121            7.94903
     48       0.00000           0.316962            8.62497
     49       0.00000           0.330681            8.99829
     50       0.00000           0.351890            9.57542
     51       0.00000           0.360923            9.82122
     52       0.00000           0.375657           10.22216
     53       0.00000           0.394500           10.73490
     54       0.00000           0.397119           10.80616
     55       0.00000           0.408540           11.11695
     56       0.00000           0.422826           11.50569
     57       0.00000           0.439003           11.94587
     58       0.00000           0.448522           12.20490
     59       0.00000           0.469965           12.78839
     60       0.00000           0.484728           13.19012
     61       0.00000           0.514834           14.00935
     62       0.00000           0.523527           14.24589
     63       0.00000           0.532710           14.49579
     64       0.00000           0.544601           14.81936
     65       0.00000           0.572044           15.56611
     66       0.00000           0.628770           17.10971
     67       0.00000           0.674255           18.34740
     68       0.00000           0.726515           19.76947

  Highest occupied state (VBM) at    -10.01096525 eV
  | Occupation number:      2.00000000

  Lowest unoccupied state (CBM) at    -2.41779917 eV
  | Occupation number:      0.00000000

  Overall HOMO-LUMO gap:      7.59316608 eV.

  Total energy components:
  | Sum of eigenvalues            :        -171.28618790 Ha       -4660.93431839 eV
  | XC energy correction          :         -36.58172612 Ha        -995.43941511 eV
  | XC potential correction       :          46.74243507 Ha        1271.92637308 eV
  | Free-atom electrostatic energy:        -143.50150914 Ha       -3904.87474166 eV
  | Hartree energy correction     :          -1.71240183 Ha         -46.59682464 eV
  | van der Waals energy corr.    :           0.00000000 Ha           0.00000000 eV
  | Entropy correction            :           0.00000000 Ha           0.00000000 eV
  | ---------------------------
  | Total energy                  :        -306.33938992 Ha       -8335.91892673 eV
  | Total energy, T -> 0          :        -306.33938992 Ha       -8335.91892673 eV  <-- do not rely on this value for anything but (periodic) metals
  | Electronic free energy        :        -306.33938992 Ha       -8335.91892673 eV

  Derived energy quantities:
  | Kinetic energy                :         304.32718435 Ha        8281.16402715 eV
  | Electrostatic energy          :        -574.08484815 Ha      -15621.64353877 eV
  | Energy correction for multipole
  | error in Hartree potential    :          -0.00012585 Ha          -0.00342460 eV
  | Sum of eigenvalues per atom                           :        -388.41119320 eV
  | Total energy (T->0) per atom                          :        -694.65991056 eV  <-- do not rely on this value for anything but (periodic) metals
  | Electronic free energy per atom                       :        -694.65991056 eV

  Self-consistency convergence accuracy:
  | Change of charge density      : 0.5818E+00
  | Change of sum of eigenvalues  : 0.4806E+02 eV
  | Change of total energy        : 0.3061E+01 eV

  End self-consistency iteration #     1       :  max(cpu_time)    wall_clock(cpu1)
  | Time for this iteration                    :        1.163 s           1.162 s
  | Charge density update                      :        0.369 s           0.369 s
  | Density mixing                             :        0.003 s           0.003 s
  | Hartree multipole update                   :        0.004 s           0.004 s
  | Hartree multipole summation                :        0.209 s           0.208 s
  | Integration                                :        0.547 s           0.546 s
  | Solution of K.-S. eqns.                    :        0.030 s           0.031 s
  | Total energy evaluation                    :        0.001 s           0.000 s
------------------------------------------------------------

------------------------------------------------------------
          Begin self-consistency iteration #    2

  Date     :  20150727, Time     :  123946.349
------------------------------------------------------------
  Evaluating new KS density.
  Integration grid: deviation in total charge (<rho> - N_e) =   0.000000E+00
  Pulay mixing of updated and previous charge densities.

  Evaluating partitioned Hartree potential by multipole expansion.
  | Analytical far-field extrapolation by fixed multipoles:
  | Hartree multipole sum: apparent total charge =  -0.362488E-05
  Summing up the Hartree potential.
  Time summed over all CPUs for potential: real work        1.654 s, elapsed        1.658 s
  | RMS charge density error from multipole expansion :   0.539933E-02

  Integrating Hamiltonian matrix: batch-based integration.
  Time summed over all CPUs for integration: real work        4.283 s, elapsed        4.355 s

  Updating Kohn-Sham eigenvalues, eigenvectors, occupation numbers, and Fermi level.
  Solving generalized eigenproblem
  Updating Kohn-Sham eigenvalues and eigenfunctions.
  Solving real generalised eigenvalue problem by standard LAPACK (fast)
  Determining occupation numbers for Kohn-Sham eigenstates.
  | Chemical potential (Fermi level) in eV                 : -.30948630E+01
  | Error in electron count due to remaining E_F inaccuracy: 0.00000000E+00
  | Maximum occupation number of highest empty state:  0.00E+00

  Highest occupied state (VBM) at     -7.20908876 eV
  | Occupation number:      2.00000000

  Lowest unoccupied state (CBM) at    -1.95267726 eV
  | Occupation number:      0.00000000

  Overall HOMO-LUMO gap:      5.25641150 eV.

  Total energy components:
  | Sum of eigenvalues            :        -167.28990876 Ha       -4552.19003019 eV
  | XC energy correction          :         -37.02920549 Ha       -1007.61594844 eV
  | XC potential correction       :          47.32850770 Ha        1287.87422077 eV
  | Free-atom electrostatic energy:        -143.50150914 Ha       -3904.87474166 eV
  | Hartree energy correction     :          -5.72252761 Ha        -155.71789907 eV
  | van der Waals energy corr.    :           0.00000000 Ha           0.00000000 eV
  | Entropy correction            :           0.00000000 Ha           0.00000000 eV
  | ---------------------------
  | Total energy                  :        -306.21464331 Ha       -8332.52439859 eV
  | Total energy, T -> 0          :        -306.21464331 Ha       -8332.52439859 eV  <-- do not rely on this value for anything but (periodic) metals
  | Electronic free energy        :        -306.21464331 Ha       -8332.52439859 eV

  Derived energy quantities:
  | Kinetic energy                :         306.45115398 Ha        8338.96018141 eV
  | Electrostatic energy          :        -575.63659179 Ha      -15663.86863157 eV
  | Energy correction for multipole
  | error in Hartree potential    :          -0.00106958 Ha          -0.02910483 eV
  | Sum of eigenvalues per atom                           :        -379.34916918 eV
  | Total energy (T->0) per atom                          :        -694.37703322 eV  <-- do not rely on this value for anything but (periodic) metals
  | Electronic free energy per atom                       :        -694.37703322 eV

  Self-consistency convergence accuracy:
  | Change of charge density      : 0.4381E+00
  | Change of sum of eigenvalues  : 0.1087E+03 eV
  | Change of total energy        : 0.3395E+01 eV

  End self-consistency iteration #     2       :  max(cpu_time)    wall_clock(cpu1)
  | Time for this iteration                    :        1.159 s           1.158 s
  | Charge density update                      :        0.366 s           0.365 s
  | Density mixing                             :        0.004 s           0.004 s
  | Hartree multipole update                   :        0.004 s           0.005 s
  | Hartree multipole summation                :        0.208 s           0.208 s
  | Integration                                :        0.546 s           0.545 s
  | Solution of K.-S. eqns.                    :        0.030 s           0.031 s
  | Total energy evaluation                    :        0.000 s           0.000 s
------------------------------------------------------------

------------------------------------------------------------
          Begin self-consistency iteration #    3

  Date     :  20150727, Time     :  123947.507
------------------------------------------------------------
  Evaluating new KS density.
  Integration grid: deviation in total charge (<rho> - N_e) =   1.421085E-14
  Pulay mixing of updated and previous charge densities.

  Evaluating partitioned Hartree potential by multipole expansion.
  | Analytical far-field extrapolation by fixed multipoles:
  | Hartree multipole sum: apparent total charge =  -0.280680E-05
  Summing up the Hartree potential.
  Time summed over all CPUs for potential: real work        1.653 s, elapsed        1.658 s
  | RMS charge density error from multipole expansion :   0.115014E-01

  Integrating Hamiltonian matrix: batch-based integration.
  Time summed over all CPUs for integration: real work        4.280 s, elapsed        4.358 s

  Updating Kohn-Sham eigenvalues, eigenvectors, occupation numbers, and Fermi level.
  Solving generalized eigenproblem
  Updating Kohn-Sham eigenvalues and eigenfunctions.
  Solving real generalised eigenvalue problem by standard LAPACK (fast)
  Determining occupation numbers for Kohn-Sham eigenstates.
  | Chemical potential (Fermi level) in eV                 : -.28130401E+01
  | Error in electron count due to remaining E_F inaccuracy: 0.00000000E+00
  | Maximum occupation number of highest empty state:  0.00E+00

  Highest occupied state (VBM) at     -6.71688049 eV
  | Occupation number:      2.00000000

  Lowest unoccupied state (CBM) at    -1.87993789 eV
  | Occupation number:      0.00000000

  Overall HOMO-LUMO gap:      4.83694260 eV.

  Total energy components:
  | Sum of eigenvalues            :        -167.36300614 Ha       -4554.17911108 eV
  | XC energy correction          :         -37.02080764 Ha       -1007.38743129 eV
  | XC potential correction       :          47.31376754 Ha        1287.47312063 eV
  | Free-atom electrostatic energy:        -143.50150914 Ha       -3904.87474166 eV
  | Hartree energy correction     :          -5.63774949 Ha        -153.41096914 eV
  | van der Waals energy corr.    :           0.00000000 Ha           0.00000000 eV
  | Entropy correction            :           0.00000000 Ha           0.00000000 eV
  | ---------------------------
  | Total energy                  :        -306.20930488 Ha       -8332.37913255 eV
  | Total energy, T -> 0          :        -306.20930488 Ha       -8332.37913255 eV  <-- do not rely on this value for anything but (periodic) metals
  | Electronic free energy        :        -306.20930488 Ha       -8332.37913255 eV

  Derived energy quantities:
  | Kinetic energy                :         304.82115777 Ha        8294.60572775 eV
  | Electrostatic energy          :        -574.00965500 Ha      -15619.59742901 eV
  | Energy correction for multipole
  | error in Hartree potential    :          -0.00503094 Ha          -0.13689879 eV
  | Sum of eigenvalues per atom                           :        -379.51492592 eV
  | Total energy (T->0) per atom                          :        -694.36492771 eV  <-- do not rely on this value for anything but (periodic) metals
  | Electronic free energy per atom                       :        -694.36492771 eV

  Self-consistency convergence accuracy:
  | Change of charge density      : 0.2269E+00
  | Change of sum of eigenvalues  : -.1989E+01 eV
  | Change of total energy        : 0.1453E+00 eV

  End self-consistency iteration #     3       :  max(cpu_time)    wall_clock(cpu1)
  | Time for this iteration                    :        1.158 s           1.158 s
  | Charge density update                      :        0.363 s           0.363 s
  | Density mixing                             :        0.005 s           0.006 s
  | Hartree multipole update                   :        0.005 s           0.004 s
  | Hartree multipole summation                :        0.208 s           0.208 s
  | Integration                                :        0.546 s           0.546 s
  | Solution of K.-S. eqns.                    :        0.030 s           0.030 s
  | Total energy evaluation                    :        0.001 s           0.000 s
------------------------------------------------------------

------------------------------------------------------------
          Begin self-consistency iteration #    4

  Date     :  20150727, Time     :  123948.665
------------------------------------------------------------
  Evaluating new KS density.
  Integration grid: deviation in total charge (<rho> - N_e) =  -7.105427E-15
  Pulay mixing of updated and previous charge densities.

  Evaluating partitioned Hartree potential by multipole expansion.
  | Analytical far-field extrapolation by fixed multipoles:
  | Hartree multipole sum: apparent total charge =  -0.321915E-05
  Summing up the Hartree potential.
  Time summed over all CPUs for potential: real work        1.653 s, elapsed        1.658 s
  | RMS charge density error from multipole expansion :   0.142882E-01

  Integrating Hamiltonian matrix: batch-based integration.
  Time summed over all CPUs for integration: real work        4.262 s, elapsed        4.352 s

  Updating Kohn-Sham eigenvalues, eigenvectors, occupation numbers, and Fermi level.
  Solving generalized eigenproblem
  Updating Kohn-Sham eigenvalues and eigenfunctions.
  Solving real generalised eigenvalue problem by standard LAPACK (fast)
  Determining occupation numbers for Kohn-Sham eigenstates.
  | Chemical potential (Fermi level) in eV                 : -.24972671E+01
  | Error in electron count due to remaining E_F inaccuracy: 0.00000000E+00
  | Maximum occupation number of highest empty state:  0.00E+00

  Highest occupied state (VBM) at     -5.78788981 eV
  | Occupation number:      2.00000000

  Lowest unoccupied state (CBM) at    -1.74897820 eV
  | Occupation number:      0.00000000

  Overall HOMO-LUMO gap:      4.03891161 eV.

  Total energy components:
  | Sum of eigenvalues            :        -166.23963682 Ha       -4523.61067667 eV
  | XC energy correction          :         -37.16004321 Ha       -1011.17622370 eV
  | XC potential correction       :          47.49554643 Ha        1292.41957593 eV
  | Free-atom electrostatic energy:        -143.50150914 Ha       -3904.87474166 eV
  | Hartree energy correction     :          -6.79548605 Ha        -184.91458369 eV
  | van der Waals energy corr.    :           0.00000000 Ha           0.00000000 eV
  | Entropy correction            :           0.00000000 Ha           0.00000000 eV
  | ---------------------------
  | Total energy                  :        -306.20112879 Ha       -8332.15664979 eV
  | Total energy, T -> 0          :        -306.20112879 Ha       -8332.15664979 eV  <-- do not rely on this value for anything but (periodic) metals
  | Electronic free energy        :        -306.20112879 Ha       -8332.15664979 eV

  Derived energy quantities:
  | Kinetic energy                :         304.97950857 Ha        8298.91467236 eV
  | Electrostatic energy          :        -574.02059415 Ha      -15619.89509845 eV
  | Energy correction for multipole
  | error in Hartree potential    :          -0.00639747 Ha          -0.17408389 eV
  | Sum of eigenvalues per atom                           :        -376.96755639 eV
  | Total energy (T->0) per atom                          :        -694.34638748 eV  <-- do not rely on this value for anything but (periodic) metals
  | Electronic free energy per atom                       :        -694.34638748 eV

  Self-consistency convergence accuracy:
  | Change of charge density      : 0.1170E+00
  | Change of sum of eigenvalues  : 0.3057E+02 eV
  | Change of total energy        : 0.2225E+00 eV

  End self-consistency iteration #     4       :  max(cpu_time)    wall_clock(cpu1)
  | Time for this iteration                    :        1.157 s           1.157 s
  | Charge density update                      :        0.362 s           0.362 s
  | Density mixing                             :        0.007 s           0.007 s
  | Hartree multipole update                   :        0.004 s           0.004 s
  | Hartree multipole summation                :        0.208 s           0.208 s
  | Integration                                :        0.545 s           0.545 s
  | Solution of K.-S. eqns.                    :        0.031 s           0.031 s
  | Total energy evaluation                    :        0.000 s           0.000 s
------------------------------------------------------------

------------------------------------------------------------
          Begin self-consistency iteration #    5

  Date     :  20150727, Time     :  123949.822
------------------------------------------------------------
  Evaluating new KS density.
  Integration grid: deviation in total charge (<rho> - N_e) =   2.842171E-14
  Pulay mixing of updated and previous charge densities.

  Evaluating partitioned Hartree potential by multipole expansion.
  | Analytical far-field extrapolation by fixed multipoles:
  | Hartree multipole sum: apparent total charge =  -0.316834E-05
  Summing up the Hartree potential.
  Time summed over all CPUs for potential: real work        1.653 s, elapsed        1.657 s
  | RMS charge density error from multipole expansion :   0.150250E-01

  Integrating Hamiltonian matrix: batch-based integration.
  Time summed over all CPUs for integration: real work        4.261 s, elapsed        4.341 s

  Updating Kohn-Sham eigenvalues, eigenvectors, occupation numbers, and Fermi level.
  Solving generalized eigenproblem
  Updating Kohn-Sham eigenvalues and eigenfunctions.
  Solving real generalised eigenvalue problem by standard LAPACK (fast)
  Determining occupation numbers for Kohn-Sham eigenstates.
  | Chemical potential (Fermi level) in eV                 : -.24511860E+01
  | Error in electron count due to remaining E_F inaccuracy: 0.00000000E+00
  | Maximum occupation number of highest empty state:  0.00E+00

  Highest occupied state (VBM) at     -5.70969561 eV
  | Occupation number:      2.00000000

  Lowest unoccupied state (CBM) at    -1.72829472 eV
  | Occupation number:      0.00000000

  Overall HOMO-LUMO gap:      3.98140090 eV.

  Total energy components:
  | Sum of eigenvalues            :        -166.10171063 Ha       -4519.85751416 eV
  | XC energy correction          :         -37.18013426 Ha       -1011.72292902 eV
  | XC potential correction       :          47.52145453 Ha        1293.12457118 eV
  | Free-atom electrostatic energy:        -143.50150914 Ha       -3904.87474166 eV
  | Hartree energy correction     :          -6.93890792 Ha        -188.81729154 eV
  | van der Waals energy corr.    :           0.00000000 Ha           0.00000000 eV
  | Entropy correction            :           0.00000000 Ha           0.00000000 eV
  | ---------------------------
  | Total energy                  :        -306.20080743 Ha       -8332.14790520 eV
  | Total energy, T -> 0          :        -306.20080743 Ha       -8332.14790520 eV  <-- do not rely on this value for anything but (periodic) metals
  | Electronic free energy        :        -306.20080743 Ha       -8332.14790520 eV

  Derived energy quantities:
  | Kinetic energy                :         304.99035512 Ha        8299.20982205 eV
  | Electrostatic energy          :        -574.01102830 Ha      -15619.63479824 eV
  | Energy correction for multipole
  | error in Hartree potential    :          -0.00672988 Ha          -0.18312934 eV
  | Sum of eigenvalues per atom                           :        -376.65479285 eV
  | Total energy (T->0) per atom                          :        -694.34565877 eV  <-- do not rely on this value for anything but (periodic) metals
  | Electronic free energy per atom                       :        -694.34565877 eV

  Self-consistency convergence accuracy:
  | Change of charge density      : 0.3294E-01
  | Change of sum of eigenvalues  : 0.3753E+01 eV
  | Change of total energy        : 0.8745E-02 eV

  End self-consistency iteration #     5       :  max(cpu_time)    wall_clock(cpu1)
  | Time for this iteration                    :        1.157 s           1.157 s
  | Charge density update                      :        0.363 s           0.363 s
  | Density mixing                             :        0.007 s           0.007 s
  | Hartree multipole update                   :        0.005 s           0.004 s
  | Hartree multipole summation                :        0.207 s           0.207 s
  | Integration                                :        0.544 s           0.544 s
  | Solution of K.-S. eqns.                    :        0.031 s           0.030 s
  | Total energy evaluation                    :        0.000 s           0.000 s
------------------------------------------------------------

------------------------------------------------------------
          Begin self-consistency iteration #    6

  Date     :  20150727, Time     :  123950.979
------------------------------------------------------------
  Evaluating new KS density.
  Integration grid: deviation in total charge (<rho> - N_e) =   0.000000E+00
  Pulay mixing of updated and previous charge densities.

  Evaluating partitioned Hartree potential by multipole expansion.
  | Analytical far-field extrapolation by fixed multipoles:
  | Hartree multipole sum: apparent total charge =  -0.315102E-05
  Summing up the Hartree potential.
  Time summed over all CPUs for potential: real work        1.653 s, elapsed        1.657 s
  | RMS charge density error from multipole expansion :   0.152119E-01

  Integrating Hamiltonian matrix: batch-based integration.
  Time summed over all CPUs for integration: real work        4.264 s, elapsed        4.347 s

  Updating Kohn-Sham eigenvalues, eigenvectors, occupation numbers, and Fermi level.
  Solving generalized eigenproblem
  Updating Kohn-Sham eigenvalues and eigenfunctions.
  Solving real generalised eigenvalue problem by standard LAPACK (fast)
  Determining occupation numbers for Kohn-Sham eigenstates.
  | Chemical potential (Fermi level) in eV                 : -.24381561E+01
  | Error in electron count due to remaining E_F inaccuracy: 0.00000000E+00
  | Maximum occupation number of highest empty state:  0.00E+00

  Highest occupied state (VBM) at     -5.67178754 eV
  | Occupation number:      2.00000000

  Lowest unoccupied state (CBM) at    -1.72109178 eV
  | Occupation number:      0.00000000

  Overall HOMO-LUMO gap:      3.95069576 eV.

  Total energy components:
  | Sum of eigenvalues            :        -166.06169765 Ha       -4518.76870558 eV
  | XC energy correction          :         -37.18554209 Ha       -1011.87008357 eV
  | XC potential correction       :          47.52843782 Ha        1293.31459634 eV
  | Free-atom electrostatic energy:        -143.50150914 Ha       -3904.87474166 eV
  | Hartree energy correction     :          -6.98054213 Ha        -189.95021586 eV
  | van der Waals energy corr.    :           0.00000000 Ha           0.00000000 eV
  | Entropy correction            :           0.00000000 Ha           0.00000000 eV
  | ---------------------------
  | Total energy                  :        -306.20085319 Ha       -8332.14915034 eV
  | Total energy, T -> 0          :        -306.20085319 Ha       -8332.14915034 eV  <-- do not rely on this value for anything but (periodic) metals
  | Electronic free energy        :        -306.20085319 Ha       -8332.14915034 eV

  Derived energy quantities:
  | Kinetic energy                :         304.99000498 Ha        8299.20029415 eV
  | Electrostatic energy          :        -574.00531608 Ha      -15619.47936092 eV
  | Energy correction for multipole
  | error in Hartree potential    :          -0.00681513 Ha          -0.18544908 eV
  | Sum of eigenvalues per atom                           :        -376.56405880 eV
  | Total energy (T->0) per atom                          :        -694.34576253 eV  <-- do not rely on this value for anything but (periodic) metals
  | Electronic free energy per atom                       :        -694.34576253 eV

  Self-consistency convergence accuracy:
  | Change of charge density      : 0.8862E-02
  | Change of sum of eigenvalues  : 0.1089E+01 eV
  | Change of total energy        : -.1245E-02 eV

  End self-consistency iteration #     6       :  max(cpu_time)    wall_clock(cpu1)
  | Time for this iteration                    :        1.159 s           1.159 s
  | Charge density update                      :        0.363 s           0.363 s
  | Density mixing                             :        0.008 s           0.008 s
  | Hartree multipole update                   :        0.005 s           0.004 s
  | Hartree multipole summation                :        0.208 s           0.207 s
  | Integration                                :        0.544 s           0.545 s
  | Solution of K.-S. eqns.                    :        0.030 s           0.030 s
  | Total energy evaluation                    :        0.000 s           0.000 s
------------------------------------------------------------

------------------------------------------------------------
          Begin self-consistency iteration #    7

  Date     :  20150727, Time     :  123952.138
------------------------------------------------------------
  Evaluating new KS density.
  Integration grid: deviation in total charge (<rho> - N_e) =  -1.421085E-14
  Pulay mixing of updated and previous charge densities.

  Evaluating partitioned Hartree potential by multipole expansion.
  | Analytical far-field extrapolation by fixed multipoles:
  | Hartree multipole sum: apparent total charge =  -0.297498E-05
  Summing up the Hartree potential.
  Time summed over all CPUs for potential: real work        1.653 s, elapsed        1.659 s
  | RMS charge density error from multipole expansion :   0.152376E-01

  Integrating Hamiltonian matrix: batch-based integration.
  Time summed over all CPUs for integration: real work        4.262 s, elapsed        4.348 s

  Updating Kohn-Sham eigenvalues, eigenvectors, occupation numbers, and Fermi level.
  Solving generalized eigenproblem
  Updating Kohn-Sham eigenvalues and eigenfunctions.
  Solving real generalised eigenvalue problem by standard LAPACK (fast)
  Determining occupation numbers for Kohn-Sham eigenstates.
  | Chemical potential (Fermi level) in eV                 : -.24672276E+01
  | Error in electron count due to remaining E_F inaccuracy: 0.00000000E+00
  | Maximum occupation number of highest empty state:  0.00E+00

  Highest occupied state (VBM) at     -5.76578676 eV
  | Occupation number:      2.00000000

  Lowest unoccupied state (CBM) at    -1.73347928 eV
  | Occupation number:      0.00000000

  Overall HOMO-LUMO gap:      4.03230749 eV.

  Total energy components:
  | Sum of eigenvalues            :        -166.15992926 Ha       -4521.44172360 eV
  | XC energy correction          :         -37.17434070 Ha       -1011.56527841 eV
  | XC potential correction       :          47.51334639 Ha        1292.90393762 eV
  | Free-atom electrostatic energy:        -143.50150914 Ha       -3904.87474166 eV
  | Hartree energy correction     :          -6.87834147 Ha        -187.16919438 eV
  | van der Waals energy corr.    :           0.00000000 Ha           0.00000000 eV
  | Entropy correction            :           0.00000000 Ha           0.00000000 eV
  | ---------------------------
  | Total energy                  :        -306.20077418 Ha       -8332.14700044 eV
  | Total energy, T -> 0          :        -306.20077418 Ha       -8332.14700044 eV  <-- do not rely on this value for anything but (periodic) metals
  | Electronic free energy        :        -306.20077418 Ha       -8332.14700044 eV

  Derived energy quantities:
  | Kinetic energy                :         305.03266302 Ha        8300.36107862 eV
  | Electrostatic energy          :        -574.05909650 Ha      -15620.94280064 eV
  | Energy correction for multipole
  | error in Hartree potential    :          -0.00671777 Ha          -0.18279984 eV
  | Sum of eigenvalues per atom                           :        -376.78681030 eV
  | Total energy (T->0) per atom                          :        -694.34558337 eV  <-- do not rely on this value for anything but (periodic) metals
  | Electronic free energy per atom                       :        -694.34558337 eV

  Self-consistency convergence accuracy:
  | Change of charge density      : 0.9249E-02
  | Change of sum of eigenvalues  : -.2673E+01 eV
  | Change of total energy        : 0.2150E-02 eV

  End self-consistency iteration #     7       :  max(cpu_time)    wall_clock(cpu1)
  | Time for this iteration                    :        1.160 s           1.159 s
  | Charge density update                      :        0.362 s           0.362 s
  | Density mixing                             :        0.010 s           0.009 s
  | Hartree multipole update                   :        0.004 s           0.005 s
  | Hartree multipole summation                :        0.208 s           0.208 s
  | Integration                                :        0.545 s           0.544 s
  | Solution of K.-S. eqns.                    :        0.030 s           0.031 s
  | Total energy evaluation                    :        0.001 s           0.000 s
------------------------------------------------------------

------------------------------------------------------------
          Begin self-consistency iteration #    8

  Date     :  20150727, Time     :  123953.297
------------------------------------------------------------
  Evaluating new KS density.
  Integration grid: deviation in total charge (<rho> - N_e) =   2.842171E-14
  Pulay mixing of updated and previous charge densities.

  Evaluating partitioned Hartree potential by multipole expansion.
  | Analytical far-field extrapolation by fixed multipoles:
  | Hartree multipole sum: apparent total charge =  -0.296004E-05
  Summing up the Hartree potential.
  Time summed over all CPUs for potential: real work        1.653 s, elapsed        1.657 s
  | RMS charge density error from multipole expansion :   0.152512E-01

  Integrating Hamiltonian matrix: batch-based integration.
  Time summed over all CPUs for integration: real work        4.258 s, elapsed        4.337 s

  Updating Kohn-Sham eigenvalues, eigenvectors, occupation numbers, and Fermi level.
  Solving generalized eigenproblem
  Updating Kohn-Sham eigenvalues and eigenfunctions.
  Solving real generalised eigenvalue problem by standard LAPACK (fast)
  Determining occupation numbers for Kohn-Sham eigenstates.
  | Chemical potential (Fermi level) in eV                 : -.24691398E+01
  | Error in electron count due to remaining E_F inaccuracy: 0.00000000E+00
  | Maximum occupation number of highest empty state:  0.00E+00

  Highest occupied state (VBM) at     -5.77113821 eV
  | Occupation number:      2.00000000

  Lowest unoccupied state (CBM) at    -1.73490385 eV
  | Occupation number:      0.00000000

  Overall HOMO-LUMO gap:      4.03623436 eV.

  Total energy components:
  | Sum of eigenvalues            :        -166.16528915 Ha       -4521.58757369 eV
  | XC energy correction          :         -37.17378722 Ha       -1011.55021731 eV
  | XC potential correction       :          47.51258764 Ha        1292.88329098 eV
  | Free-atom electrostatic energy:        -143.50150914 Ha       -3904.87474166 eV
  | Hartree energy correction     :          -6.87277537 Ha        -187.01773312 eV
  | van der Waals energy corr.    :           0.00000000 Ha           0.00000000 eV
  | Entropy correction            :           0.00000000 Ha           0.00000000 eV
  | ---------------------------
  | Total energy                  :        -306.20077324 Ha       -8332.14697479 eV
  | Total energy, T -> 0          :        -306.20077324 Ha       -8332.14697479 eV  <-- do not rely on this value for anything but (periodic) metals
  | Electronic free energy        :        -306.20077324 Ha       -8332.14697479 eV

  Derived energy quantities:
  | Kinetic energy                :         305.03463075 Ha        8300.41462315 eV
  | Electrostatic energy          :        -574.06161677 Ha      -15621.01138063 eV
  | Energy correction for multipole
  | error in Hartree potential    :          -0.00671841 Ha          -0.18281718 eV
  | Sum of eigenvalues per atom                           :        -376.79896447 eV
  | Total energy (T->0) per atom                          :        -694.34558123 eV  <-- do not rely on this value for anything but (periodic) metals
  | Electronic free energy per atom                       :        -694.34558123 eV

  Self-consistency convergence accuracy:
  | Change of charge density      : 0.1326E-02
  | Change of sum of eigenvalues  : -.1459E+00 eV
  | Change of total energy        : 0.2564E-04 eV

  End self-consistency iteration #     8       :  max(cpu_time)    wall_clock(cpu1)
  | Time for this iteration                    :        1.159 s           1.159 s
  | Charge density update                      :        0.362 s           0.362 s
  | Density mixing                             :        0.011 s           0.011 s
  | Hartree multipole update                   :        0.004 s           0.004 s
  | Hartree multipole summation                :        0.208 s           0.208 s
  | Integration                                :        0.543 s           0.543 s
  | Solution of K.-S. eqns.                    :        0.031 s           0.031 s
  | Total energy evaluation                    :        0.000 s           0.000 s
------------------------------------------------------------

------------------------------------------------------------
          Begin self-consistency iteration #    9

  Date     :  20150727, Time     :  123954.456
------------------------------------------------------------
  Evaluating new KS density.
  Integration grid: deviation in total charge (<rho> - N_e) =   1.421085E-14
  Pulay mixing of updated and previous charge densities.

  Evaluating partitioned Hartree potential by multipole expansion.
  | Analytical far-field extrapolation by fixed multipoles:
  | Hartree multipole sum: apparent total charge =  -0.295455E-05
  Summing up the Hartree potential.
  Time summed over all CPUs for potential: real work        1.653 s, elapsed        1.657 s
  | RMS charge density error from multipole expansion :   0.152473E-01

  Integrating Hamiltonian matrix: batch-based integration.
  Time summed over all CPUs for integration: real work        4.259 s, elapsed        4.331 s

  Updating Kohn-Sham eigenvalues, eigenvectors, occupation numbers, and Fermi level.
  Solving generalized eigenproblem
  Updating Kohn-Sham eigenvalues and eigenfunctions.
  Solving real generalised eigenvalue problem by standard LAPACK (fast)
  Determining occupation numbers for Kohn-Sham eigenstates.
  | Chemical potential (Fermi level) in eV                 : -.24701555E+01
  | Error in electron count due to remaining E_F inaccuracy: 0.00000000E+00
  | Maximum occupation number of highest empty state:  0.00E+00

  Highest occupied state (VBM) at     -5.77207731 eV
  | Occupation number:      2.00000000

  Lowest unoccupied state (CBM) at    -1.73561214 eV
  | Occupation number:      0.00000000

  Overall HOMO-LUMO gap:      4.03646517 eV.

  Total energy components:
  | Sum of eigenvalues            :        -166.16686827 Ha       -4521.63054378 eV
  | XC energy correction          :         -37.17357082 Ha       -1011.54432877 eV
  | XC potential correction       :          47.51229391 Ha        1292.87529798 eV
  | Free-atom electrostatic energy:        -143.50150914 Ha       -3904.87474166 eV
  | Hartree energy correction     :          -6.87111803 Ha        -186.97263469 eV
  | van der Waals energy corr.    :           0.00000000 Ha           0.00000000 eV
  | Entropy correction            :           0.00000000 Ha           0.00000000 eV
  | ---------------------------
  | Total energy                  :        -306.20077236 Ha       -8332.14695092 eV
  | Total energy, T -> 0          :        -306.20077236 Ha       -8332.14695092 eV  <-- do not rely on this value for anything but (periodic) metals
  | Electronic free energy        :        -306.20077236 Ha       -8332.14695092 eV

  Derived energy quantities:
  | Kinetic energy                :         305.03813376 Ha        8300.50994477 eV
  | Electrostatic energy          :        -574.06533530 Ha      -15621.11256693 eV
  | Energy correction for multipole
  | error in Hartree potential    :          -0.00671232 Ha          -0.18265145 eV
  | Sum of eigenvalues per atom                           :        -376.80254532 eV
  | Total energy (T->0) per atom                          :        -694.34557924 eV  <-- do not rely on this value for anything but (periodic) metals
  | Electronic free energy per atom                       :        -694.34557924 eV

  Self-consistency convergence accuracy:
  | Change of charge density      : 0.7775E-03
  | Change of sum of eigenvalues  : -.4297E-01 eV
  | Change of total energy        : 0.2387E-04 eV

  End self-consistency iteration #     9       :  max(cpu_time)    wall_clock(cpu1)
  | Time for this iteration                    :        1.158 s           1.157 s
  | Charge density update                      :        0.361 s           0.360 s
  | Density mixing                             :        0.012 s           0.012 s
  | Hartree multipole update                   :        0.004 s           0.004 s
  | Hartree multipole summation                :        0.208 s           0.208 s
  | Integration                                :        0.542 s           0.543 s
  | Solution of K.-S. eqns.                    :        0.031 s           0.030 s
  | Total energy evaluation                    :        0.000 s           0.000 s
------------------------------------------------------------

------------------------------------------------------------
          Begin self-consistency iteration #   10

  Date     :  20150727, Time     :  123955.615
------------------------------------------------------------
  Evaluating new KS density.
  Integration grid: deviation in total charge (<rho> - N_e) =   1.421085E-14
  Pulay mixing of updated and previous charge densities.

  Evaluating partitioned Hartree potential by multipole expansion.
  | Analytical far-field extrapolation by fixed multipoles:
  | Hartree multipole sum: apparent total charge =  -0.294995E-05
  Summing up the Hartree potential.
  Time summed over all CPUs for potential: real work        1.652 s, elapsed        1.657 s
  | RMS charge density error from multipole expansion :   0.152582E-01

  Integrating Hamiltonian matrix: batch-based integration.
  Time summed over all CPUs for integration: real work        4.258 s, elapsed        4.328 s

  Updating Kohn-Sham eigenvalues, eigenvectors, occupation numbers, and Fermi level.
  Solving generalized eigenproblem
[...]
  |                                 -0.01832266       0.10853255       0.01226814
  |                                  0.01981102       0.01226814       0.06364694
  ----------------------------------------------------------------------


  Total energy components:
  | Sum of eigenvalues            :        -166.16582440 Ha       -4521.60213848 eV
  | XC energy correction          :         -37.17372497 Ha       -1011.54852345 eV
  | XC potential correction       :          47.51248141 Ha        1292.88040025 eV
  | Free-atom electrostatic energy:        -143.50150914 Ha       -3904.87474166 eV
  | Hartree energy correction     :          -6.87219509 Ha        -187.00194286 eV
  | van der Waals energy corr.    :          -0.00143007 Ha          -0.03891432 eV
  | Entropy correction            :           0.00000000 Ha           0.00000000 eV
  | ---------------------------
  | Total energy                  :        -306.20220226 Ha       -8332.18586053 eV
  | Total energy, T -> 0          :        -306.20220226 Ha       -8332.18586053 eV  <-- do not rely on this value for anything but (periodic) metals
  | Electronic free energy        :        -306.20220226 Ha       -8332.18586053 eV

  Derived energy quantities:
  | Kinetic energy                :         305.03958430 Ha        8300.54941621 eV
  | Electrostatic energy          :        -574.06663152 Ha      -15621.14783896 eV
  | Energy correction for multipole
  | error in Hartree potential    :          -0.00671617 Ha          -0.18275630 eV
  | Sum of eigenvalues per atom                           :        -376.80017821 eV
  | Total energy (T->0) per atom                          :        -694.34882171 eV  <-- do not rely on this value for anything but (periodic) metals
  | Electronic free energy per atom                       :        -694.34882171 eV

  atomic forces [eV/Ang]:
  -----------------------
  atom #    1
   Hellmann-Feynman + Multipole  : -.740518E+01 -.119007E+02 0.364514E+01
   Pulay + GGA                   : 0.720273E+01 0.155740E+02 -.507915E+01
   Van der Waals               : -.161737E-04 0.550263E-02 0.385502E-02
   ----------------------------------------------------------------
   Total forces(   1)            : -.202472E+00 0.367878E+01 -.143015E+01
  atom #    2
   Hellmann-Feynman + Multipole  : 0.228985E+01 -.352493E+01 0.162211E+01
   Pulay + GGA                   : -.410608E-01 0.105791E+00 -.621011E-01
   Van der Waals               : 0.840318E-03 0.512306E-02 0.339359E-02
   ----------------------------------------------------------------
   Total forces(   2)            : 0.224963E+01 -.341401E+01 0.156341E+01
  atom #    3
   Hellmann-Feynman + Multipole  : -.220603E+01 -.311361E+00 -.132430E+00
   Pulay + GGA                   : 0.146140E+00 0.495562E-01 -.463553E-04
   Van der Waals               : -.744729E-03 0.298297E-02 0.196669E-02
   ----------------------------------------------------------------
   Total forces(   3)            : -.206064E+01 -.258822E+00 -.130510E+00
  atom #    4
   Hellmann-Feynman + Multipole  : 0.567010E+01 -.768069E+01 -.101300E+02
   Pulay + GGA                   : -.609255E+01 0.844483E+01 0.121621E+02
   Van der Waals               : 0.161198E-02 -.828957E-03 -.599114E-02
   ----------------------------------------------------------------
   Total forces(   4)            : -.420837E+00 0.763317E+00 0.202612E+01
  atom #    5
   Hellmann-Feynman + Multipole  : -.368196E+00 0.210180E+00 -.238526E+01
   Pulay + GGA                   : 0.177441E-01 0.157132E-01 0.134891E+00
   Van der Waals               : -.111228E-02 0.157275E-02 -.228706E-02
   ----------------------------------------------------------------
   Total forces(   5)            : -.351564E+00 0.227466E+00 -.225266E+01
  atom #    6
   Hellmann-Feynman + Multipole  : 0.125915E+01 -.143759E+01 0.415554E+00
   Pulay + GGA                   : -.448521E-01 0.739072E-01 0.571011E-02
   Van der Waals               : 0.164791E-02 -.266792E-03 -.352335E-02
   ----------------------------------------------------------------
   Total forces(   6)            : 0.121595E+01 -.136395E+01 0.417740E+00
  atom #    7
   Hellmann-Feynman + Multipole  : -.126751E+02 -.526932E+01 -.136906E+01
   Pulay + GGA                   : 0.138803E+02 0.671321E+01 0.745597E+00
   Van der Waals               : 0.749027E-03 -.692782E-02 0.169886E-02
   ----------------------------------------------------------------
   Total forces(   7)            : 0.120597E+01 0.143697E+01 -.621763E+00
  atom #    8
   Hellmann-Feynman + Multipole  : -.551587E+00 -.138330E-01 -.331637E-01
   Pulay + GGA                   : 0.122439E+00 -.547466E-01 0.154786E-01
   Van der Waals               : -.977258E-03 -.517856E-02 0.169477E-02
   ----------------------------------------------------------------
   Total forces(   8)            : -.430125E+00 -.737581E-01 -.159904E-01
  atom #    9
   Hellmann-Feynman + Multipole  : -.763703E+00 -.146763E+01 0.712731E+00
   Pulay + GGA                   : 0.458035E-01 0.998925E-01 -.723262E-01
   Van der Waals               : 0.277503E-03 -.842471E-03 0.492921E-04
   ----------------------------------------------------------------
   Total forces(   9)            : -.717622E+00 -.136858E+01 0.640455E+00
  atom #   10
   Hellmann-Feynman + Multipole  : -.141335E+01 -.128699E+02 -.327110E+00
   Pulay + GGA                   : 0.193830E+01 0.134795E+02 -.120845E+01
   Van der Waals               : -.207384E-02 -.588781E-04 0.693535E-03
   ----------------------------------------------------------------
   Total forces(  10)            : 0.522879E+00 0.609584E+00 -.153487E+01
  atom #   11
   Hellmann-Feynman + Multipole  : -.276490E+00 0.424935E+00 0.342728E+00
   Pulay + GGA                   : -.808720E-01 0.901521E-01 0.694015E-01
   Van der Waals               : 0.364952E-02 -.169950E-02 -.235133E-02
   ----------------------------------------------------------------
   Total forces(  11)            : -.353713E+00 0.513387E+00 0.409779E+00
  atom #   12
   Hellmann-Feynman + Multipole  : -.669395E+00 -.819791E+00 0.100230E+01
   Pulay + GGA                   : 0.260619E-01 0.724586E-01 -.680495E-01
   Van der Waals               : -.385198E-02 0.621567E-03 0.801124E-03
   ----------------------------------------------------------------
   Total forces(  12)            : -.647185E+00 -.746710E+00 0.935052E+00
  Timings for vdw_correction_hirshfeld (Tkatchenko-Scheffler 2009):
  | CPU time:        3.047 s, Wall clock time:        3.046 s.
  Removing unitary transformations (pure translations, rotations) from forces on atoms.
  Atomic forces before filtering:
  | Net force on center of mass :  0.102736E-01 0.366470E-02 0.661099E-02 eV/A
  | Net torque on center of mass:  -.259383E-01 -.509120E-02 0.488762E-03 eV
  Atomic forces after filtering:
  | Net force on center of mass :  -.178406E-15 -.713624E-15 0.000000E+00 eV/A
  | Net torque on center of mass:  -.604214E-14 -.151054E-14 -.151054E-14 eV
 
  Energy and forces in a compact form:
  | Total energy uncorrected      :         -0.833218586052750E+04 eV
  | Total energy corrected        :         -0.833218586052750E+04 eV  <-- do not rely on this value for anything but (periodic) metals
  | Electronic free energy        :         -0.833218586052750E+04 eV
  Total atomic forces (unitary forces cleaned) [eV/Ang]:
  |   1         -0.203587123607118E+00          0.367915971290713E+01         -0.143177627157080E+01
  |   2          0.224855703206156E+01         -0.341344445465109E+01          0.156215748749770E+01
  |   3         -0.206173467100467E+01         -0.258518368833716E+00         -0.132077970821560E+00
  |   4         -0.421654568830354E+00          0.762250327404102E+00          0.202524702724383E+01
  |   5         -0.352338455827461E+00          0.225998690900674E+00         -0.225356724815103E+01
  |   6          0.121517163501048E+01         -0.136491355434962E+01          0.417178328202866E+00
  |   7          0.120514738641999E+01          0.143710950724072E+01         -0.621764499028136E+00
  |   8         -0.430953546220131E+00         -0.737958842776733E-01         -0.161785226769140E-01
  |   9         -0.718407266750386E+00         -0.136829513829025E+01          0.640770092207766E+00
  |  10          0.522131604250982E+00          0.608942367095052E+00         -0.153500177648137E+01
  |  11         -0.354393718832435E+00          0.512591045870565E+00          0.409934109627481E+00
  |  12         -0.647938306670461E+00         -0.747084251015907E+00          0.935079243950172E+00
 
  ------------------------------------ 
  Start decomposition of the XC Energy 
  ------------------------------------ 
  Hartree-Fock part   :          0.000000000 Ha              0.000000000 eV
  ------------------------------------ 
  X Energy            :        -35.874077881 Ha           -976.183326797 eV
  C Energy GGA        :         -1.299647089 Ha            -35.365196653 eV
  Total XC Energy     :        -37.173724970 Ha          -1011.548523450 eV
  LDA X and C from self-consistent density 
  X Energy LDA        :        -32.308290148 Ha           -879.153305742 eV
  C Energy LDA        :         -2.633163008 Ha            -71.652011073 eV
  ------------------------------------ 
  End decomposition of the XC Energy 
  ------------------------------------ 
  Performing Hirshfeld analysis of fragment charges and moments.
  ----------------------------------------------------------------------
  | Atom     1: O
  |   Hirshfeld charge        :     -0.28860098
  |   Free atom volume        :     23.95238533
  |   Hirshfeld volume        :     22.70701967
  |   Hirshfeld dipole vector :      0.02600749       0.04469957      -0.00183022
  |   Hirshfeld dipole moment :      0.05174738
  |   Hirshfeld second moments:      0.05276746      -0.02474606       0.02602519
  |                                 -0.02474606      -0.00840844      -0.02865478
  |                                  0.02602519      -0.02865478      -0.06487278
  ----------------------------------------------------------------------
  | Atom     2: H
  |   Hirshfeld charge        :      0.14640254
  |   Free atom volume        :     10.44207651
  |   Hirshfeld volume        :      6.93140653
  |   Hirshfeld dipole vector :     -0.06528290       0.08801590      -0.03909472
  |   Hirshfeld dipole moment :      0.11634885
  |   Hirshfeld second moments:      0.12766095       0.00592726       0.00419150
  |                                  0.00592726       0.08039396      -0.00307223
  |                                  0.00419150      -0.00307223       0.09122083
  ----------------------------------------------------------------------
  | Atom     3: H
  |   Hirshfeld charge        :      0.13573987
  |   Free atom volume        :     10.44207651
  |   Hirshfeld volume        :      6.75510852
  |   Hirshfeld dipole vector :      0.12215972       0.02212793       0.01088535
  |   Hirshfeld dipole moment :      0.12462396
  |   Hirshfeld second moments:      0.11009884      -0.01148223       0.00509948
  |                                 -0.01148223       0.11204337      -0.01227310
  |                                  0.00509948      -0.01227310       0.08774529
  ----------------------------------------------------------------------
  | Atom     4: O
  |   Hirshfeld charge        :     -0.34878380
  |   Free atom volume        :     23.95238533
  |   Hirshfeld volume        :     23.38682116
  |   Hirshfeld dipole vector :     -0.04223334       0.03213060       0.03957023
  |   Hirshfeld dipole moment :      0.06619542
  |   Hirshfeld second moments:     -0.05251435      -0.04026252       0.02744684
  |                                 -0.04026252      -0.05327461      -0.02603340
  |                                  0.02744684      -0.02603340       0.02072056
  ----------------------------------------------------------------------
  | Atom     5: H
  |   Hirshfeld charge        :      0.11770541
  |   Free atom volume        :     10.44207651
  |   Hirshfeld volume        :      6.98974486
  |   Hirshfeld dipole vector :      0.01350405      -0.01190681       0.12262762
  |   Hirshfeld dipole moment :      0.12394218
  |   Hirshfeld second moments:      0.09554186      -0.01852229       0.00660262
  |                                 -0.01852229       0.09464738      -0.00544008
  |                                  0.00660262      -0.00544008       0.09450450
  ----------------------------------------------------------------------
  | Atom     6: H
  |   Hirshfeld charge        :      0.07084852
  |   Free atom volume        :     10.44207651
  |   Hirshfeld volume        :      8.23789141
  |   Hirshfeld dipole vector :     -0.03473485       0.03327627       0.00408604
  |   Hirshfeld dipole moment :      0.04827542
  |   Hirshfeld second moments:      0.03863356       0.01886913      -0.01586591
  |                                  0.01886913       0.03941822       0.00911990
  |                                 -0.01586591       0.00911990       0.09384581
  ----------------------------------------------------------------------
  | Atom     7: O
  |   Hirshfeld charge        :     -0.21922277
  |   Free atom volume        :     23.95238533
  |   Hirshfeld volume        :     20.42434486
  |   Hirshfeld dipole vector :      0.01819982       0.00994000       0.02602235
  |   Hirshfeld dipole moment :      0.03327461
  |   Hirshfeld second moments:      0.06829643      -0.01389706      -0.00251709
  |                                 -0.01389706       0.07812542      -0.04198184
  |                                 -0.00251709      -0.04198184       0.03803506
  ----------------------------------------------------------------------
  | Atom     8: H
  |   Hirshfeld charge        :      0.16567691
  |   Free atom volume        :     10.44207651
  |   Hirshfeld volume        :      6.25113702
  |   Hirshfeld dipole vector :      0.09825447      -0.04329366       0.03550322
  |   Hirshfeld dipole moment :      0.11308740
  |   Hirshfeld second moments:      0.12400531       0.00684572      -0.00975410
  |                                  0.00684572       0.12635847      -0.00012240
  |                                 -0.00975410      -0.00012240       0.10623961
  ----------------------------------------------------------------------
  | Atom     9: H
  |   Hirshfeld charge        :      0.16748136
  |   Free atom volume        :     10.44207651
  |   Hirshfeld volume        :      5.58179201
  |   Hirshfeld dipole vector :      0.03537487       0.10485975      -0.05027252
  |   Hirshfeld dipole moment :      0.12154948
  |   Hirshfeld second moments:      0.14192667      -0.01063959       0.00397893
  |                                 -0.01063959       0.12517940      -0.00709814
  |                                  0.00397893      -0.00709814       0.12481786
  ----------------------------------------------------------------------
  | Atom    10: O
  |   Hirshfeld charge        :     -0.21994609
  |   Free atom volume        :     23.95238533
  |   Hirshfeld volume        :     20.77138244
  |   Hirshfeld dipole vector :      0.02457080       0.01416121       0.01453265
  |   Hirshfeld dipole moment :      0.03186631
  |   Hirshfeld second moments:      0.04199172      -0.02728032      -0.03481909
  |                                 -0.02728032       0.05860191      -0.00269280
  |                                 -0.03481909      -0.00269280       0.07161996
  ----------------------------------------------------------------------
  | Atom    11: H
  |   Hirshfeld charge        :      0.15507775
  |   Free atom volume        :     10.44207651
  |   Hirshfeld volume        :      5.88036449
  |   Hirshfeld dipole vector :     -0.05895742       0.08258680       0.06676266
  |   Hirshfeld dipole moment :      0.12146526
  |   Hirshfeld second moments:      0.12024994      -0.00150303      -0.00896332
  |                                 -0.00150303       0.12339425      -0.01124575
  |                                 -0.00896332      -0.01124575       0.13018954
  ----------------------------------------------------------------------
  | Atom    12: H
  |   Hirshfeld charge        :      0.11750702
  |   Free atom volume        :     10.44207651
  |   Hirshfeld volume        :      7.31241193
  |   Hirshfeld dipole vector :      0.01933057       0.03860063      -0.03482127
  |   Hirshfeld dipole moment :      0.05546351
  |   Hirshfeld second moments:      0.08017907      -0.01832266       0.01981102
  |                                 -0.01832266       0.10853255       0.01226814
  |                                  0.01981102       0.01226814       0.06364694
  ----------------------------------------------------------------------


------------------------------------------------------------------------------
  Final output of selected total energy values:

  The following output summarizes some interesting total energy values
  at the end of a run (AFTER all relaxation, molecular dynamics, etc.).

  | Total energy of the DFT / Hartree-Fock s.c.f. calculation      :          -8332.185860528 eV
  | Final zero-broadening corrected energy (caution - metals only) :          -8332.185860528 eV
  | For reference only, the value of 1 Hartree used in FHI-aims is :             27.211384500 eV

  Before relying on these values, please be sure to understand exactly which
  total energy value is referred to by a given number. Different objects may
  all carry the same name 'total energy'. Definitions:

  Total energy of the DFT / Hartree-Fock s.c.f. calculation:
  | Note that this energy does not include ANY quantities calculated after the
  | s.c.f. cycle, in particular not ANY RPA, MP2, etc. many-body perturbation terms.

  Final zero-broadening corrected energy:
  | For metallic systems only, a broadening of the occupation numbers at the Fermi
  | level can be extrapolated back to zero broadening by an electron-gas inspired
  | formula. For all systems that are not real metals, this value can be
  | meaningless and should be avoided.

------------------------------------------------------------------------------

------------------------------------------------------------
          Leaving FHI-aims.
          Date     :  20150727, Time     :  124006.811

          Computational steps:
          | Number of self-consistency cycles          :           15

          Detailed time accounting                     :  max(cpu_time)    wall_clock(cpu1)
          | Total time                                 :       23.303 s          23.322 s
          | Preparation time                           :        0.172 s           0.488 s
          | Grid partitioning                          :        0.109 s           0.109 s
          | Preloading free-atom quantities on grid    :        0.014 s           0.013 s
          | Free-atom superposition energy             :        0.045 s           0.046 s
          | Total time for integrations                :        8.987 s           8.988 s
          | Total time for solution of K.-S. equations :        0.574 s           0.574 s
          | Total time for density & force components  :        8.540 s           8.539 s
          | Total time for mixing                      :        0.148 s           0.149 s
          | Total time for Hartree multipole update    :        0.065 s           0.063 s
          | Total time for Hartree multipole sum       :        4.154 s           4.152 s
          | Total time for total energy evaluation     :        0.007 s           0.003 s
          | Total time for scaled ZORA corrections     :        0.000 s           0.000 s
          | Total time for TS (2009) vdW correction    :        0.034 s           0.034 s

          Have a nice day.
------------------------------------------------------------
