  MPI-parallelism will be employed.
------------------------------------------------------------
          Invoking FHI-aims ...
          Version 081213
          Compiled on 2013/08/29 at 17:41:06 on host generoso.

          When using FHI-aims, please cite the following reference:

          Volker Blum, Ralf Gehrke, Felix Hanke, Paula Havu,
          Ville Havu, Xinguo Ren, Karsten Reuter, and Matthias Scheffler,
          'Ab Initio Molecular Simulations with Numeric Atom-Centered Orbitals: FHI-aims',
          Computer Physics Communications 180, 2175-2196 (2009)

          For any questions about FHI-aims, please visit the aimsclub website
          with its forums and wiki. Contributions to both the forums and the
          wiki are warmly encouraged - they are for you, and everyone is welcome there.

------------------------------------------------------------

  Date     :  20150727, Time     :  123017.105
  Time zero on CPU 1             :   0.439920000000000E-01  s.
  Internal wall clock time zero  :           207232217.105  s.

  Using        8 parallel tasks.
  Task        0 on host gen60 reporting.
  Task        1 on host gen60 reporting.
  Task        2 on host gen60 reporting.
  Task        3 on host gen60 reporting.
  Task        4 on host gen60 reporting.
  Task        5 on host gen60 reporting.
  Task        6 on host gen60 reporting.
  Task        7 on host gen60 reporting.

  Performing system and environment tests:
  | Environment variable OMP_NUM_THREADS correctly set to 1.
  | Checking for scalapack...
  | No scalapack compiled in.

  Obtaining array dimensions for all initial allocations:
  
  -----------------------------------------------------------------------
  Parsing control.in (first pass over file, find array dimensions only).
  The contents of control.in will be repeated verbatim below
  unless switched off by setting 'verbatim_writeout .false.' .
  in the first line of control.in .
  -----------------------------------------------------------------------
  
  #########################################################################################
  #
  #  Volker Blum, FHI 2008 : Test run input file control.in
  #
  #########################################################################################
  #
  #  Physical model
  #
    xc                 rpbe
    spin               none
    relativistic       atomic_zora scalar
    charge             0.
   vdw_correction_hirshfeld
  #
  #  SCF convergence
  #
    occupation_type    gaussian 0.01
    mixer              pulay
      n_max_pulay        10
      charge_mix_param   0.1
    sc_accuracy_rho    5E-5
    sc_accuracy_eev    5E-3
    sc_accuracy_etot   5E-6
    sc_iter_limit      3000
  #
  #  Eigenvalue solver
  #
    KS_method          lapack
      empty_states       8
      basis_threshold    0.e-5
  #
  #  Efficiency
  #
  #   all previous settings are now default, except stratmann still
  #   undecided. Continue to handle stratmann with care, if at all.
  #
  #  partition_type stratmann
    partition_type rho_r2
  #  hartree_partition_type stratmann
  #
  #  Oprions for large clusters (100's of atoms: memory saving / better scaling)
  #
  # for periodic systems:
  #
    density_update_method orbital
    packed_matrix_format none
  #  k_grid 6 6 6
  #  output k_eigenvalue 1
  #  distributed_spline_storage .true.
  #
  #  Relaxation
  #
  #  relax_geometry   bfgs 5.e-3
    sc_accuracy_forces 5.E-4
    final_forces_cleaned .true.
  #
  #  Output options
  #
  #  output mulliken
    output Hirshfeld
  #  output dipole
  
  #harmonic_length_scale 0.001
  
  ################################################################################
  #
  #  FHI-aims code project
  #  VB, Fritz-Haber Institut, 2007
  #
  #  Suggested "safe" defaults for H atom (to be pasted into control.in file)
  #  Basis constructed for a non-relativistic H2 molecule using the
  #  PW-LDA functional.
  #
  ################################################################################
    species        H
  #     global species definitions
      nucleus             1
      cut_pot             4.0  2.0  1.0
      cut_free_atom       finite 8.0
      logarithmic         0.00010000 100.00  1.0123
      basis_dep_cutoff    1d-4  # 1d-4 is safe default - please check 5d-4 if you wish!
      radial_base         24 7.0
      radial_multiplier   2
      angular_grids       specified
        division   0.2783  110
        division   0.3822  194
        division   0.5626  302
  #      division   0.5922  434
  #      division   0.6227  590
  #      division   0.7206  770
        outer_grid  302
      l_hartree           4
  ################################################################################
  #
  #  Definition of "minimal" basis
  #
  ################################################################################
  #     valence basis states
      valence      1  s   1.
  #     ion occupancy
      ion_occ      1  s   0.5
  ################################################################################
  #
  #  Suggested additional basis functions. For production calculations,
  #  uncomment them one after another (the most important basis functions are
  #  listed first).
  #
  ################################################################################
  #  "First tier" - improvements: -1014.90 meV to -62.69 meV
       hydro 2 s 2.1
       hydro 2 p 3.5
  #  "Second tier" - improvements: -12.89 meV to -1.83 meV
       hydro 1 s 0.85
       hydro 2 p 3.7
       hydro 2 s 1.2
       hydro 3 d 7
  #  "Third tier" - improvements: -0.25 meV to -0.12 meV
  #     hydro 4 f 11.2
  #     hydro 3 p 4.8
  #     hydro 4 d 9
  #     hydro 3 s 3.2
  
  ################################################################################
  #
  #  FHI-aims code project
  #  VB, Fritz-Haber Institut, 2007
  #
  #  Suggested "safe" defaults for O atom (to be pasted into control.in file)
  #  All values have been tested for a non-relativistic, non-spinpolarized O2
  #  molecule using the PW-LDA functional. Validity for PBE is expected.
  #
  #  Constructed for dimers: 1.0 A, 1.208 A, 1.5 A, 2.0 A, 3.0 A
  #
  ################################################################################
    species        O
  #     global species definitions
      nucleus             8
      mass                15.9994
      l_hartree           4
      cut_pot             4.0  2.0  1.0
      cut_free_atom       finite 8.0
      basis_dep_cutoff    1d-4  # 1d-4 is safe default - please check 5d-4 if you wish!
      logarithmic         0.00010000 100.00  1.0123
      radial_base         36 7.0
      radial_multiplier   2
       angular_grids specified
        division   0.4087  110
        division   0.5181  194
        division   0.6184  302
  #      division   0.7315  434
  #      division   0.7934  590
  #      division   0.9656  770
  #      division   1.4041  974
  #      outer_grid 974
        outer_grid 302
  ################################################################################
  #
  #  Definition of "minimal" basis
  #
  ################################################################################
  #     valence basis states
      valence      2  s   2.
      valence      2  p   4.
  #     ion occupancy
      ion_occ      2  s   1.
      ion_occ      2  p   3.
  ################################################################################
  #
  #  Suggested additional basis functions. For production calculations,
  #  uncomment them one after another (the most important basis functions are
  #  listed first).
  #
  ################################################################################
  #  "First tier" - improvements: -699.05 meV to -159.38 meV
       hydro 2 p 1.8
       hydro 3 d 7.6
       hydro 3 s 6.4
  #  "Second tier" - improvements: -49.91 meV to -5.39 meV
       hydro 4 f 11.6
       hydro 3 p 6.2
       hydro 3 d 5.6
       hydro 5 g 17.6
       hydro 1 s 0.75
  #  "Third tier" - improvements: -2.83 meV to -0.50 meV
  #     ionic 2 p auto
  #     hydro 4 f 10.8
  #     hydro 4 d 4.7
  #     hydro 2 s 6.8
  #  "Fourth tier" - improvements: -0.40 meV to -0.12 meV
  #     hydro 3 p 5
  #     hydro 3 s 3.3
  #     hydro 5 g 15.6
  #     hydro 4 f 17.6
  #     hydro 4 d 14
  # Further basis functions - -0.08 meV and below
  #     hydro 3 s 2.1
  #     hydro 4 d 11.6
  #     hydro 3 p 16
  #     hydro 2 s 17.2
  
  
  -----------------------------------------------------------------------
  Completed first pass over input file control.in .
  -----------------------------------------------------------------------
  
  
  -----------------------------------------------------------------------
  Parsing geometry.in (first pass over file, find array dimensions only).
  The contents of geometry.in will be repeated verbatim below
  unless switched off by setting 'verbatim_writeout .false.' .
  in the first line of geometry.in .
  -----------------------------------------------------------------------
  
  atom      -4.053030000      0.065001000     -1.525160000  O
  atom      -4.566710000      0.974813000     -1.912820000  H
  atom      -3.067820000      0.330172000     -1.477310000  H
  atom      -5.293160000      2.192130000     -2.328800000  O
  atom      -4.829300000      2.988660000     -1.973850000  H
  atom      -5.428570000      2.328640000     -3.235170000  H
  atom      -4.066610000      4.258280000     -0.900064000  O
  atom      -3.224110000      3.876870000     -0.569443000  H
  atom      -3.737450000      5.116530000     -1.322720000  H
  atom      -5.628340000      3.730740000      1.385610000  O
  atom      -6.090650000      4.418470000      1.860350000  H
  atom      -5.158540000      4.200260000      0.615875000  H
  
  -----------------------------------------------------------------------
  Completed first pass over input file geometry.in .
  -----------------------------------------------------------------------
  
 
  Basic array size parameters: 
  | Number of species                 :        2
  | Number of atoms                   :       12
  | Max. basis fn. angular momentum   :        4
  | Max. atomic/ionic basis occupied n:        2
  | Max. number of basis fn. types    :        2
  | Max. radial fns per species/type  :        8
  | Max. logarithmic grid size        :     1301
  | Max. radial integration grid size :       73
  | Max. angular integration grid size:      302
  | Max. angular grid division number :        8
  | Radial grid for Hartree potential :     1301
  | Number of spin channels           :        1

------------------------------------------------------------
          Reading file control.in.
------------------------------------------------------------
  XC: Using RPBE gradient-corrected functionals.
  Spin treatment: No spin polarisation.
  Scalar relativistic treatment of kinetic energy: on-site free-atom approximation to ZORA.
  Charge =   0.000000E+00: Neutral system requested explicitly.
  Using non-empirical van der Waals correction (Hirshfeld partitioning):
  Occupation type: Gaussian broadening, width =   0.100000E-01 eV.
  Using pulay charge density mixing.
  Pulay mixing - number of memorized iterations:   10
  Charge density mixing - mixing parameter:     0.1000
  Convergence accuracy of self-consistent charge density: 0.5000E-04
  Convergence accuracy of sum of eigenvalues: 0.5000E-02
  Convergence accuracy of total energy: 0.5000E-05
  Maximum number of s.-c. iterations  :  3000
  Kohn-Sham eigenvalues and eigenfunctions calculated by lapack diagonalisation (D&C).
  Number of empty states per atom:        8
  Threshold for basis singularities: 0.0000E+00
  Partition function in integrals calculations: rho / r^2
 Using packed matrix format           0
  Convergence accuracy of forces: 0.5000E-03
  Cleaning forces before final output.
  Hirshfeld charge analysis will be performed.
 
  Reading configuration options for species H                   .
  | Found nuclear charge :   1.0000
  | Found cutoff potl. onset [A], width [A], scale factor :    4.00000    2.00000    1.00000
  | Found cutoff specification for free atom: Cutoff potential begins at    8.00000 A.
  | Found logarithmic grid data [bohr] : 0.1000E-03 0.1000E+03 0.1012E+01
  | Threshold for basis-dependent cutoff potential is   0.100000E-03
  | Found data for basic radial integration grid :    24 points, outermost radius =    7.000 A
  | Found multiplier for basic radial grid :   2
  | Found angular grid specification: user-specified.
  | Specified grid contains     4 separate shells.
  | Check grid settings after all constraints further below.
  | Found l_max for Hartree potential  :   4
  | Found free-atom valence shell :  1 s   1.000
  | No ionic wave fns used. Skipping ion_occ.
  | Found hydrogenic basis function :  2 s   2.100
  | Found hydrogenic basis function :  2 p   3.500
  | Found hydrogenic basis function :  1 s   0.850
  | Found hydrogenic basis function :  2 p   3.700
  | Found hydrogenic basis function :  2 s   1.200
  | Found hydrogenic basis function :  3 d   7.000
  Species H                   : Missing cutoff potential type.
  Defaulting to exp(1/x)/(1-x)^2 type cutoff potential.
  Species H : On-site basis accuracy parameter (for Gram-Schmidt orthonormalisation) not specified.
  Using default value basis_acc =  0.1000000E-03.
  Species H                   : Using default innermost maximum threshold i_radial=  2 for radial functions.
  Species H                   : Basic radial grid will be enhanced according to radial_multiplier =   2, to contain    49 grid points.
 
  Reading configuration options for species O                   .
  | Found nuclear charge :   8.0000
  | Found atomic mass :    15.9994000000000      amu
  | Found l_max for Hartree potential  :   4
  | Found cutoff potl. onset [A], width [A], scale factor :    4.00000    2.00000    1.00000
  | Found cutoff specification for free atom: Cutoff potential begins at    8.00000 A.
  | Threshold for basis-dependent cutoff potential is   0.100000E-03
  | Found logarithmic grid data [bohr] : 0.1000E-03 0.1000E+03 0.1012E+01
  | Found data for basic radial integration grid :    36 points, outermost radius =    7.000 A
  | Found multiplier for basic radial grid :   2
  | Found angular grid specification: user-specified.
  | Specified grid contains     4 separate shells.
  | Check grid settings after all constraints further below.
  | Found free-atom valence shell :  2 s   2.000
  | Found free-atom valence shell :  2 p   4.000
  | No ionic wave fns used. Skipping ion_occ.
  | No ionic wave fns used. Skipping ion_occ.
  | Found hydrogenic basis function :  2 p   1.800
  | Found hydrogenic basis function :  3 d   7.600
  | Found hydrogenic basis function :  3 s   6.400
  | Found hydrogenic basis function :  4 f  11.600
  | Found hydrogenic basis function :  3 p   6.200
  | Found hydrogenic basis function :  3 d   5.600
  | Found hydrogenic basis function :  5 g  17.600
  | Found hydrogenic basis function :  1 s   0.750
  Species O                   : Missing cutoff potential type.
  Defaulting to exp(1/x)/(1-x)^2 type cutoff potential.
  Species O : On-site basis accuracy parameter (for Gram-Schmidt orthonormalisation) not specified.
  Using default value basis_acc =  0.1000000E-03.
  Species O                   : Using default innermost maximum threshold i_radial=  2 for radial functions.
  Species O                   : Basic radial grid will be enhanced according to radial_multiplier =   2, to contain    73 grid points.
 
  Finished reading input file 'control.in'. Consistency checks are next.
 
  Target number of points in a grid batch is not set. Defaulting to  100
  Method for grid partitioning is not set. Defaulting to parallel hash+maxmin partitioning.
  Batch size limit is not set. Defaulting to    200
  By default, will store active basis functions for each batch.
  If in need of memory, prune_basis_once .false. can be used to disable this option.
  communication_type for Hartree potential was not specified.
  Defaulting to calc_hartree .
  Pulay mixer: Number of initial linear mixing iterations not set.
  Defaulting to    0 iterations.
  Work space size for distributed Hartree potential not set.
  Defaulting to   0.200000E+03 MB.
  Algorithm-dependent basis array size parameters:
  | n_max_pulay                         :       10
  Geometry relaxation not requested: no relaxation will be performed.
  Handling of forces: Unphysical translation and rotation will be removed from forces.
  No accuracy limit for integral partition fn. given. Defaulting to 0.1000E-14.
  No threshold value for u(r) in integrations given. Defaulting to 0.1000E-05.
  No accuracy for occupation numbers given. Defaulting to 0.1000E-07.
  No threshold value for occupation numbers given. Defaulting to 0.0000E+00.
  No accuracy for fermi level given. Defaulting to 0.1000E-19.
  Maximum # of iterations to find E_F not set. Defaulting to  200.
  Will not use alltoall communication since running on < 1024 CPUs.
  Partitioning for Hartree potential was not defined. Using partition_type for integrals.
  | Reporting present value of keyword multip_moments_threshold  :       0.10000000E-09
  | This value may affect high angular momentum components of the Hartree potential in periodic systems.
  No q(lm)/r^(l+1) cutoff set for long-range Hartree potential.
  | Using default value of  0.100000E-09 .
  | Verify using the multipole_threshold keyword.
  Defaulting to new monopole extrapolation.
  Density update method: Loop over occupied states selected for charge density update.
------------------------------------------------------------


------------------------------------------------------------
          Reading geometry description geometry.in.
------------------------------------------------------------
  Input structure read successfully.
  The structure contains       12 atoms,  and a total of         40.000 electrons.

  Input geometry:
  | No unit cell requested.
  | Atomic structure:
  |       Atom                x [A]            y [A]            z [A]
  |    1: Species O             -4.053030         0.065001        -1.525160
  |    2: Species H             -4.566710         0.974813        -1.912820
  |    3: Species H             -3.067820         0.330172        -1.477310
  |    4: Species O             -5.293160         2.192130        -2.328800
  |    5: Species H             -4.829300         2.988660        -1.973850
  |    6: Species H             -5.428570         2.328640        -3.235170
  |    7: Species O             -4.066610         4.258280        -0.900064
  |    8: Species H             -3.224110         3.876870        -0.569443
  |    9: Species H             -3.737450         5.116530        -1.322720
  |   10: Species O             -5.628340         3.730740         1.385610
  |   11: Species H             -6.090650         4.418470         1.860350
  |   12: Species H             -5.158540         4.200260         0.615875
  |

  | The smallest distance between any two atoms is         0.92654057 AA.
  |
  | The first atom of this pair is atom number                      4 .
  | The second atom of this pair is atom number                     6 .

  Structure-dependent array size parameters: 
  | Maximum number of distinct radial functions  :       18
  | Maximum number of basis functions            :      276
  | Number of Kohn-Sham states (occupied + empty):       68
------------------------------------------------------------

------------------------------------------------------------
          Preparing all fixed parts of the calculation.
------------------------------------------------------------
  Determining machine precision:
    2.225073858507201E-308
  Setting up grids for atomic and cluster calculations.

  Creating wave function, potential, and density for free atoms.

  Species: H

  List of occupied orbitals and eigenvalues:
    n    l              occ      energy [Ha]    energy [eV]
    1    0           1.0000        -0.241408        -6.5691


  Species: O

  List of occupied orbitals and eigenvalues:
    n    l              occ      energy [Ha]    energy [eV]
    1    0           2.0000       -18.944147      -515.4965
    2    0           2.0000        -0.883529       -24.0421
    2    1           4.0000        -0.330176        -8.9845

  Creating fixed part of basis set: Ionic, confined, hydrogenic.
 
  H                    hydrogenic:
 
  List of hydrogenic basis orbitals: 
    n    l      effective z      eigenvalue [eV]  inner max. [A]     outer max. [A]     outer radius [A]   
    2    0         2.100000       -14.9965           0.193241           1.317192           5.372934
    2    1         3.500000       -41.6672           0.602363           0.602363           4.056010
    1    0         0.850000        -9.8292           0.624864           0.624864           5.372934
    2    1         3.700000       -46.5653           0.573616           0.573616           3.909951
    2    0         1.200000        -4.5995           0.334977           2.228160           5.505921
    3    2         7.000000       -74.0753           0.680692           0.680692           3.769152
 
 
  O                    hydrogenic:
 
  List of hydrogenic basis orbitals: 
    n    l      effective z      eigenvalue [eV]  inner max. [A]     outer max. [A]     outer radius [A]   
    2    1         1.800000       -11.0118           1.178546           1.178546           5.432516
    3    2         7.600000       -87.3182           0.624117           0.624117           3.541422
    3    0         6.400000       -61.9209           0.061166           1.081887           4.306510
    4    3        11.600000      -114.4238           0.731621           0.731621           3.584982
    3    1         6.200000       -58.1113           0.255677           1.030255           4.306510
    3    2         5.600000       -47.4081           0.847222           0.847222           4.413102
    5    4        17.600000      -168.5799           0.749730           0.749730           3.372413
    1    0         0.750000        -7.6499           0.705275           0.705275           5.366508
 

  Adding cutoff potential to free-atom effective potential.
  Creating atomic-like basis functions for current effective potential.

  Species H                   :

  List of atomic basis orbitals and eigenvalues:
    n    l      energy [Ha]    energy [eV]    outer radius [A]
    1    0        -0.241374        -6.5681       5.372934


  Species O                   :

  List of atomic basis orbitals and eigenvalues:
    n    l      energy [Ha]    energy [eV]    outer radius [A]
    1    0       -18.944147      -515.4965       1.415745
    2    0        -0.883529       -24.0421       5.048305
    2    1        -0.330173        -8.9845       5.301302

  Assembling full basis from fixed parts.
  | Species H :   atomic orbital   1 s accepted.
  | Species H :    hydro orbital   2 s accepted.
  | Species H :    hydro orbital   1 s accepted.
  | Species H :    hydro orbital   2 s accepted.
  | Species H :    hydro orbital   2 p accepted.
  | Species H :    hydro orbital   2 p accepted.
  | Species H :    hydro orbital   3 d accepted.
  | Species O :   atomic orbital   1 s accepted.
  | Species O :    hydro orbital   3 s accepted.
  | Species O :   atomic orbital   2 s accepted.
  | Species O :    hydro orbital   1 s accepted.
  | Species O :    hydro orbital   3 p accepted.
  | Species O :   atomic orbital   2 p accepted.
  | Species O :    hydro orbital   2 p accepted.
  | Species O :    hydro orbital   3 d accepted.
  | Species O :    hydro orbital   3 d accepted.
  | Species O :    hydro orbital   4 f accepted.
  | Species O :    hydro orbital   5 g accepted.
 
  Basis size parameters after reduction:
  | Total number of radial functions:       18
  | Total number of basis functions :      276
 
  Testing on-site integration grid accuracy.
  |  Species  Function  <phi|h_atom|phi> (log., in eV)  <phi|h_atom|phi> (rad., in eV)
           1        1                 -6.5683835025                 -6.5684759159
           1        2                 13.3711789951                 13.3708738703
           1        3                 23.6590910787                 23.6532055418
           1        4                 16.2963827186                 16.1870710655 ***
           1        5                 28.7627214838                 28.7627215090
           1        6                 59.5965249172                 59.5965950857
           1        7                 60.2220506392                 60.2220503827
           2        8               -515.4964576505               -515.4964530710
           2        9                 15.3030791347                 15.3030722972
           2       10                -21.7296094581                -21.7296135470
           2       11                 14.2969371730                 14.2969701621
           2       12                 21.0679693190                 21.0679697493
           2       13                 -2.3833606469                 -2.3833613176
           2       14                 13.7067136422                 13.7066766629
           2       15                 45.8013116808                 45.8013116965
           2       16                 52.2309815402                 52.2309831494
           2       17                 85.4120732416                 85.4120732763
           2       18                142.1019167745                142.1019167817
 * Note: Onsite integrals marked "***" above are less accurate than
 * onsite_accuracy_threshold =    0.03000 eV. Usually, this is harmless.
 * When in doubt, tighten the "radial" and/or "radial_multiplier" flags to check.

  Preparing densities etc. for the partition functions (integrals / Hartree potential).

  Preparations completed.
  max(cpu_time)          :      0.171 s.
  Wall clock time (cpu1) :      0.539 s.
------------------------------------------------------------

------------------------------------------------------------
          Begin self-consistency loop: Initialization.

          Date     :  20150727, Time     :  123017.675
------------------------------------------------------------

  Initializing index lists of integration centers etc. from given atomic structure:
  | Number of centers in hartree potential         :        12
  | Number of centers in hartree multipole         :        12
  | Number of centers in electron density summation:        12
  | Number of centers in basis integrals           :        12
  | Number of centers in integrals                 :        12
  Partitioning the integration grid into batches with parallel hashing+maxmin method.
  | Number of batches:     1681
  | Maximal batch size:     196
  | Minimal batch size:      51
  | Average batch size:      93.616
  | Standard deviation of batch sizes:      28.326

  Integration load balanced across     8 MPI tasks.
  Work distribution over tasks is as follows:
  Task     0 has      19692 integration points.
  Task     1 has      19616 integration points.
  Task     2 has      19651 integration points.
  Task     3 has      19676 integration points.
  Task     4 has      19651 integration points.
  Task     5 has      19674 integration points.
  Task     6 has      19692 integration points.
  Task     7 has      19716 integration points.
  Initializing partition tables, free-atom densities, potentials, etc. across the integration grid (initialize_grid_storage).
  | Net number of integration points:   157368
  | of which are non-zero points    :   156843
  Obtaining max. number of non-zero basis functions in each batch (get_n_compute_maxes).
  | Maximal number of non-zero basis functions:      274 in task     0
  | Maximal number of non-zero basis functions:      274 in task     1
  | Maximal number of non-zero basis functions:      274 in task     2
  | Maximal number of non-zero basis functions:      274 in task     3
  | Maximal number of non-zero basis functions:      274 in task     4
  | Maximal number of non-zero basis functions:      274 in task     5
  | Maximal number of non-zero basis functions:      274 in task     6
  | Maximal number of non-zero basis functions:      274 in task     7
  Integrating Hamiltonian matrix: batch-based integration.
  Time summed over all CPUs for integration: real work        4.549 s, elapsed        4.663 s
  Integrating overlap matrix.
  Time summed over all CPUs for integration: real work        2.398 s, elapsed        2.450 s

  Updating Kohn-Sham eigenvalues, eigenvectors, occupation numbers, and Fermi level.
  Solving generalized eigenproblem
  Updating Kohn-Sham eigenvalues and eigenfunctions.
  Transforming overlap matrix and checking for singularities.
  Overlap matrix is nonsingular:
  | Lowest eigenvalue:  0.306254E-03
  Solving real generalised eigenvalue problem by standard LAPACK (fast)
  Determining occupation numbers for Kohn-Sham eigenstates.
  | Chemical potential (Fermi level) in eV                 : -.41814521E+01
  | Error in electron count due to remaining E_F inaccuracy: 0.00000000E+00
  | Maximum occupation number of highest empty state:  0.00E+00

  Writing Kohn-Sham eigenvalues.

  State    Occupation    Eigenvalue [Ha]    Eigenvalue [eV]
      1       2.00000         -19.064905         -518.78247
      2       2.00000         -19.045333         -518.24987
      3       2.00000         -19.044608         -518.23014
      4       2.00000         -19.019414         -517.54460
      5       2.00000          -1.122181          -30.53611
      6       2.00000          -1.093665          -29.76013
      7       2.00000          -1.086078          -29.55367
      8       2.00000          -1.043108          -28.38442
      9       2.00000          -0.653468          -17.78177
     10       2.00000          -0.623443          -16.96476
     11       2.00000          -0.607177          -16.52211
     12       2.00000          -0.596933          -16.24339
     13       2.00000          -0.528600          -14.38395
     14       2.00000          -0.516209          -14.04677
     15       2.00000          -0.499376          -13.58871
     16       2.00000          -0.482440          -13.12787
     17       2.00000          -0.440970          -11.99941
     18       2.00000          -0.439142          -11.94966
     19       2.00000          -0.430033          -11.70179
     20       2.00000          -0.409555          -11.14456
     21       0.00000          -0.093055           -2.53216
     22       0.00000          -0.058171           -1.58292
     23       0.00000          -0.042136           -1.14657
     24       0.00000          -0.037704           -1.02597
     25       0.00000          -0.003155           -0.08585
     26       0.00000           0.029196            0.79446
     27       0.00000           0.041063            1.11738
     28       0.00000           0.043541            1.18482
     29       0.00000           0.072958            1.98530
     30       0.00000           0.081915            2.22902
     31       0.00000           0.093109            2.53363
     32       0.00000           0.094622            2.57480
     33       0.00000           0.102027            2.77630
     34       0.00000           0.107431            2.92335
     35       0.00000           0.118545            3.22578
     36       0.00000           0.129291            3.51818
     37       0.00000           0.134399            3.65717
     38       0.00000           0.141406            3.84785
     39       0.00000           0.159313            4.33512
     40       0.00000           0.170695            4.64486
     41       0.00000           0.190318            5.17881
     42       0.00000           0.202102            5.49949
     43       0.00000           0.222838            6.06372
     44       0.00000           0.248715            6.76789
     45       0.00000           0.264228            7.19000
     46       0.00000           0.271355            7.38395
     47       0.00000           0.291023            7.91914
     48       0.00000           0.319092            8.68295
     49       0.00000           0.341726            9.29884
     50       0.00000           0.357724            9.73415
     51       0.00000           0.365898            9.95658
     52       0.00000           0.380157           10.34460
     53       0.00000           0.384892           10.47345
     54       0.00000           0.405633           11.03783
     55       0.00000           0.427267           11.62652
     56       0.00000           0.441457           12.01265
     57       0.00000           0.456919           12.43340
     58       0.00000           0.464419           12.63749
     59       0.00000           0.481143           13.09257
     60       0.00000           0.489055           13.30785
     61       0.00000           0.507034           13.79709
     62       0.00000           0.517689           14.08703
     63       0.00000           0.565901           15.39894
     64       0.00000           0.577201           15.70643
     65       0.00000           0.606980           16.51677
     66       0.00000           0.679278           18.48410
     67       0.00000           0.684956           18.63861
     68       0.00000           0.723137           19.67755

  Highest occupied state (VBM) at    -11.14455960 eV
  | Occupation number:      2.00000000

  Lowest unoccupied state (CBM) at    -2.53215629 eV
  | Occupation number:      0.00000000

  Overall HOMO-LUMO gap:      8.61240331 eV.
  Calculating total energy contributions from superposition of free atom densities.

  Total energy components:
  | Sum of eigenvalues            :        -173.49327862 Ha       -4720.99231276 eV
  | XC energy correction          :         -36.45417349 Ha        -991.96853147 eV
  | XC potential correction       :          46.58199519 Ha        1267.56058181 eV
  | Free-atom electrostatic energy:        -143.10243602 Ha       -3894.01540941 eV
  | Hartree energy correction     :           0.00000000 Ha           0.00000000 eV
  | van der Waals energy corr.    :           0.00000000 Ha           0.00000000 eV
  | Entropy correction            :           0.00000000 Ha           0.00000000 eV
  | ---------------------------
  | Total energy                  :        -306.46789294 Ha       -8339.41567183 eV
  | Total energy, T -> 0          :        -306.46789294 Ha       -8339.41567183 eV  <-- do not rely on this value for anything but (periodic) metals
  | Electronic free energy        :        -306.46789294 Ha       -8339.41567183 eV

  Derived energy quantities:
  | Kinetic energy                :         303.31954419 Ha        8253.74474326 eV
  | Electrostatic energy          :        -573.33326364 Ha      -15601.19188361 eV
  | Energy correction for multipole
  | error in Hartree potential    :           0.00000000 Ha           0.00000000 eV
  | Sum of eigenvalues per atom                           :        -393.41602606 eV
  | Total energy (T->0) per atom                          :        -694.95130599 eV  <-- do not rely on this value for anything but (periodic) metals
  | Electronic free energy per atom                       :        -694.95130599 eV
  Initialize hartree_potential_storage
  Max. number of atoms included in rho_multipole:           12

  End scf initialization - timings             :  max(cpu_time)    wall_clock(cpu1)
  | Time for scf. initialization               :        1.267 s           1.267 s
  | Boundary condition initialization          :        0.000 s           0.001 s
  | Integration                                :        0.891 s           0.891 s
  | Solution of K.-S. eqns.                    :        0.119 s           0.119 s
  | Grid partitioning                          :        0.108 s           0.108 s
  | Preloading free-atom quantities on grid    :        0.014 s           0.014 s
  | Free-atom superposition energy             :        0.046 s           0.046 s
  | Total energy evaluation                    :        0.000 s           0.000 s
------------------------------------------------------------

------------------------------------------------------------
          Begin self-consistency iteration #    1

  Date     :  20150727, Time     :  123018.942
------------------------------------------------------------
  Evaluating new KS density.
  Integration grid: deviation in total charge (<rho> - N_e) =  -7.105427E-15
  Pulay mixing of updated and previous charge densities.

  Evaluating partitioned Hartree potential by multipole expansion.
  | Analytical far-field extrapolation by fixed multipoles:
  | Hartree multipole sum: apparent total charge =  -0.169617E-05
  Summing up the Hartree potential.
  Time summed over all CPUs for potential: real work        1.660 s, elapsed        1.685 s
  | RMS charge density error from multipole expansion :   0.145435E-02

  Integrating Hamiltonian matrix: batch-based integration.
  Time summed over all CPUs for integration: real work        4.543 s, elapsed        4.656 s

  Updating Kohn-Sham eigenvalues, eigenvectors, occupation numbers, and Fermi level.
  Solving generalized eigenproblem
  Updating Kohn-Sham eigenvalues and eigenfunctions.
  Solving real generalised eigenvalue problem by standard LAPACK (fast)
  Determining occupation numbers for Kohn-Sham eigenstates.
  | Chemical potential (Fermi level) in eV                 : -.38496835E+01
  | Error in electron count due to remaining E_F inaccuracy: 0.00000000E+00
  | Maximum occupation number of highest empty state:  0.00E+00

  Writing Kohn-Sham eigenvalues.

  State    Occupation    Eigenvalue [Ha]    Eigenvalue [eV]
      1       2.00000         -18.993938         -516.85135
      2       2.00000         -18.986226         -516.64150
      3       2.00000         -18.962541         -515.99700
      4       2.00000         -18.933061         -515.19479
      5       2.00000          -1.088206          -29.61160
      6       2.00000          -1.065460          -28.99264
      7       2.00000          -1.046805          -28.48501
      8       2.00000          -0.996541          -27.11727
      9       2.00000          -0.623955          -16.97868
     10       2.00000          -0.591925          -16.10710
     11       2.00000          -0.582317          -15.84565
     12       2.00000          -0.561129          -15.26911
     13       2.00000          -0.495424          -13.48116
     14       2.00000          -0.482144          -13.11980
     15       2.00000          -0.459361          -12.49985
     16       2.00000          -0.442825          -12.04987
     17       2.00000          -0.410410          -11.16781
     18       2.00000          -0.398995          -10.85719
     19       2.00000          -0.386519          -10.51773
     20       2.00000          -0.361436           -9.83518
     21       0.00000          -0.087679           -2.38586
     22       0.00000          -0.048975           -1.33267
     23       0.00000          -0.035383           -0.96283
     24       0.00000          -0.031354           -0.85318
     25       0.00000           0.000968            0.02634
     26       0.00000           0.038893            1.05832
     27       0.00000           0.048818            1.32841
     28       0.00000           0.052187            1.42008
     29       0.00000           0.082558            2.24653
     30       0.00000           0.091758            2.49686
     31       0.00000           0.105166            2.86170
     32       0.00000           0.105910            2.88195
     33       0.00000           0.109009            2.96629
     34       0.00000           0.122177            3.32460
     35       0.00000           0.127257            3.46285
     36       0.00000           0.137399            3.73883
     37       0.00000           0.146848            3.99594
     38       0.00000           0.150080            4.08389
     39       0.00000           0.166722            4.53674
     40       0.00000           0.181344            4.93462
     41       0.00000           0.199642            5.43253
     42       0.00000           0.211884            5.76565
     43       0.00000           0.228570            6.21972
     44       0.00000           0.256027            6.96686
     45       0.00000           0.273690            7.44749
     46       0.00000           0.280561            7.63445
     47       0.00000           0.298067            8.11083
     48       0.00000           0.326520            8.88507
     49       0.00000           0.349871            9.52048
     50       0.00000           0.364552            9.91995
     51       0.00000           0.372500           10.13625
     52       0.00000           0.387923           10.55593
     53       0.00000           0.394698           10.74027
     54       0.00000           0.414201           11.27097
     55       0.00000           0.437653           11.90913
     56       0.00000           0.448671           12.20897
     57       0.00000           0.464878           12.64997
     58       0.00000           0.474873           12.92196
     59       0.00000           0.490389           13.34417
     60       0.00000           0.500670           13.62391
     61       0.00000           0.519224           14.12880
     62       0.00000           0.529623           14.41177
     63       0.00000           0.576104           15.67659
     64       0.00000           0.586622           15.96279
     65       0.00000           0.618216           16.82252
     66       0.00000           0.690102           18.77863
     67       0.00000           0.697628           18.98343
     68       0.00000           0.732604           19.93517

  Highest occupied state (VBM) at     -9.83518295 eV
  | Occupation number:      2.00000000

  Lowest unoccupied state (CBM) at    -2.38585610 eV
  | Occupation number:      0.00000000

  Overall HOMO-LUMO gap:      7.44932685 eV.

  Total energy components:
  | Sum of eigenvalues            :        -171.73843528 Ha       -4673.24059595 eV
  | XC energy correction          :         -36.64570158 Ha        -997.18027593 eV
  | XC potential correction       :          46.83256748 Ha        1274.37900070 eV
  | Free-atom electrostatic energy:        -143.10243602 Ha       -3894.01540941 eV
  | Hartree energy correction     :          -1.69910564 Ha         -46.23501701 eV
  | van der Waals energy corr.    :           0.00000000 Ha           0.00000000 eV
  | Entropy correction            :           0.00000000 Ha           0.00000000 eV
  | ---------------------------
  | Total energy                  :        -306.35311105 Ha       -8336.29229760 eV
  | Total energy, T -> 0          :        -306.35311105 Ha       -8336.29229760 eV  <-- do not rely on this value for anything but (periodic) metals
  | Electronic free energy        :        -306.35311105 Ha       -8336.29229760 eV

  Derived energy quantities:
  | Kinetic energy                :         304.45642324 Ha        8284.68079641 eV
  | Electrostatic energy          :        -574.16383272 Ha      -15623.79281807 eV
  | Energy correction for multipole
  | error in Hartree potential    :          -0.00004086 Ha          -0.00111175 eV
  | Sum of eigenvalues per atom                           :        -389.43671633 eV
  | Total energy (T->0) per atom                          :        -694.69102480 eV  <-- do not rely on this value for anything but (periodic) metals
  | Electronic free energy per atom                       :        -694.69102480 eV

  Self-consistency convergence accuracy:
  | Change of charge density      : 0.5881E+00
  | Change of sum of eigenvalues  : 0.4775E+02 eV
  | Change of total energy        : 0.3123E+01 eV

  End self-consistency iteration #     1       :  max(cpu_time)    wall_clock(cpu1)
  | Time for this iteration                    :        1.218 s           1.218 s
  | Charge density update                      :        0.385 s           0.385 s
  | Density mixing                             :        0.003 s           0.003 s
  | Hartree multipole update                   :        0.004 s           0.004 s
  | Hartree multipole summation                :        0.211 s           0.211 s
  | Integration                                :        0.583 s           0.583 s
  | Solution of K.-S. eqns.                    :        0.030 s           0.031 s
  | Total energy evaluation                    :        0.000 s           0.000 s
------------------------------------------------------------

------------------------------------------------------------
          Begin self-consistency iteration #    2

  Date     :  20150727, Time     :  123020.160
------------------------------------------------------------
  Evaluating new KS density.
  Integration grid: deviation in total charge (<rho> - N_e) =  -2.131628E-14
  Pulay mixing of updated and previous charge densities.

  Evaluating partitioned Hartree potential by multipole expansion.
  | Analytical far-field extrapolation by fixed multipoles:
  | Hartree multipole sum: apparent total charge =  -0.504765E-05
  Summing up the Hartree potential.
  Time summed over all CPUs for potential: real work        1.655 s, elapsed        1.662 s
  | RMS charge density error from multipole expansion :   0.582263E-02

  Integrating Hamiltonian matrix: batch-based integration.
  Time summed over all CPUs for integration: real work        4.528 s, elapsed        4.651 s

  Updating Kohn-Sham eigenvalues, eigenvectors, occupation numbers, and Fermi level.
  Solving generalized eigenproblem
  Updating Kohn-Sham eigenvalues and eigenfunctions.
  Solving real generalised eigenvalue problem by standard LAPACK (fast)
  Determining occupation numbers for Kohn-Sham eigenstates.
  | Chemical potential (Fermi level) in eV                 : -.30666121E+01
  | Error in electron count due to remaining E_F inaccuracy: 0.00000000E+00
  | Maximum occupation number of highest empty state:  0.00E+00

  Highest occupied state (VBM) at     -6.72219575 eV
  | Occupation number:      2.00000000

  Lowest unoccupied state (CBM) at    -2.12648757 eV
  | Occupation number:      0.00000000

  Overall HOMO-LUMO gap:      4.59570817 eV.

  Total energy components:
  | Sum of eigenvalues            :        -167.59597266 Ha       -4560.51845276 eV
  | XC energy correction          :         -37.11890181 Ha       -1010.05670950 eV
  | XC potential correction       :          47.45100640 Ha        1291.20758011 eV
  | Free-atom electrostatic energy:        -143.10243602 Ha       -3894.01540941 eV
  | Hartree energy correction     :          -5.85249539 Ha        -159.25450236 eV
  | van der Waals energy corr.    :           0.00000000 Ha           0.00000000 eV
  | Entropy correction            :           0.00000000 Ha           0.00000000 eV
  | ---------------------------
  | Total energy                  :        -306.21879948 Ha       -8332.63749391 eV
  | Total energy, T -> 0          :        -306.21879948 Ha       -8332.63749391 eV  <-- do not rely on this value for anything but (periodic) metals
  | Electronic free energy        :        -306.21879948 Ha       -8332.63749391 eV

  Derived energy quantities:
  | Kinetic energy                :         306.74590375 Ha        8346.98073071 eV
  | Electrostatic energy          :        -575.84580142 Ha      -15669.56151512 eV
  | Energy correction for multipole
  | error in Hartree potential    :          -0.00077146 Ha          -0.02099248 eV
  | Sum of eigenvalues per atom                           :        -380.04320440 eV
  | Total energy (T->0) per atom                          :        -694.38645783 eV  <-- do not rely on this value for anything but (periodic) metals
  | Electronic free energy per atom                       :        -694.38645783 eV

  Self-consistency convergence accuracy:
  | Change of charge density      : 0.4448E+00
  | Change of sum of eigenvalues  : 0.1127E+03 eV
  | Change of total energy        : 0.3655E+01 eV

  End self-consistency iteration #     2       :  max(cpu_time)    wall_clock(cpu1)
  | Time for this iteration                    :        1.210 s           1.209 s
  | Charge density update                      :        0.379 s           0.379 s
  | Density mixing                             :        0.005 s           0.004 s
  | Hartree multipole update                   :        0.004 s           0.005 s
  | Hartree multipole summation                :        0.208 s           0.208 s
  | Integration                                :        0.583 s           0.582 s
  | Solution of K.-S. eqns.                    :        0.030 s           0.031 s
  | Total energy evaluation                    :        0.000 s           0.000 s
------------------------------------------------------------

------------------------------------------------------------
          Begin self-consistency iteration #    3

  Date     :  20150727, Time     :  123021.370
------------------------------------------------------------
  Evaluating new KS density.
  Integration grid: deviation in total charge (<rho> - N_e) =  -1.421085E-14
  Pulay mixing of updated and previous charge densities.

  Evaluating partitioned Hartree potential by multipole expansion.
  | Analytical far-field extrapolation by fixed multipoles:
  | Hartree multipole sum: apparent total charge =  -0.549716E-05
  Summing up the Hartree potential.
  Time summed over all CPUs for potential: real work        1.655 s, elapsed        1.662 s
  | RMS charge density error from multipole expansion :   0.119220E-01

  Integrating Hamiltonian matrix: batch-based integration.
  Time summed over all CPUs for integration: real work        4.528 s, elapsed        4.648 s

  Updating Kohn-Sham eigenvalues, eigenvectors, occupation numbers, and Fermi level.
  Solving generalized eigenproblem
  Updating Kohn-Sham eigenvalues and eigenfunctions.
  Solving real generalised eigenvalue problem by standard LAPACK (fast)
  Determining occupation numbers for Kohn-Sham eigenstates.
  | Chemical potential (Fermi level) in eV                 : -.29918238E+01
  | Error in electron count due to remaining E_F inaccuracy: 0.00000000E+00
  | Maximum occupation number of highest empty state:  0.00E+00

  Highest occupied state (VBM) at     -6.46233368 eV
  | Occupation number:      2.00000000

  Lowest unoccupied state (CBM) at    -2.18181916 eV
  | Occupation number:      0.00000000

  Overall HOMO-LUMO gap:      4.28051452 eV.

  Total energy components:
  | Sum of eigenvalues            :        -167.71372802 Ha       -4563.72273918 eV
  | XC energy correction          :         -37.11051087 Ha       -1009.82838016 eV
  | XC potential correction       :          47.43572973 Ha        1290.79188079 eV
  | Free-atom electrostatic energy:        -143.10243602 Ha       -3894.01540941 eV
  | Hartree energy correction     :          -5.72142670 Ha        -155.68794175 eV
  | van der Waals energy corr.    :           0.00000000 Ha           0.00000000 eV
  | Entropy correction            :           0.00000000 Ha           0.00000000 eV
  | ---------------------------
  | Total energy                  :        -306.21237187 Ha       -8332.46258970 eV
  | Total energy, T -> 0          :        -306.21237187 Ha       -8332.46258970 eV  <-- do not rely on this value for anything but (periodic) metals
  | Electronic free energy        :        -306.21237187 Ha       -8332.46258970 eV

  Derived energy quantities:
  | Kinetic energy                :         305.14296079 Ha        8303.36243359 eV
  | Electrostatic energy          :        -574.24482180 Ha      -15625.99664313 eV
  | Energy correction for multipole
  | error in Hartree potential    :          -0.00435922 Ha          -0.11862043 eV
  | Sum of eigenvalues per atom                           :        -380.31022826 eV
  | Total energy (T->0) per atom                          :        -694.37188248 eV  <-- do not rely on this value for anything but (periodic) metals
  | Electronic free energy per atom                       :        -694.37188248 eV

  Self-consistency convergence accuracy:
  | Change of charge density      : 0.2221E+00
  | Change of sum of eigenvalues  : -.3204E+01 eV
  | Change of total energy        : 0.1749E+00 eV

  End self-consistency iteration #     3       :  max(cpu_time)    wall_clock(cpu1)
  | Time for this iteration                    :        1.212 s           1.212 s
  | Charge density update                      :        0.381 s           0.380 s
  | Density mixing                             :        0.005 s           0.005 s
  | Hartree multipole update                   :        0.005 s           0.004 s
  | Hartree multipole summation                :        0.208 s           0.209 s
  | Integration                                :        0.582 s           0.582 s
  | Solution of K.-S. eqns.                    :        0.031 s           0.030 s
  | Total energy evaluation                    :        0.000 s           0.000 s
------------------------------------------------------------

------------------------------------------------------------
          Begin self-consistency iteration #    4

  Date     :  20150727, Time     :  123022.582
------------------------------------------------------------
  Evaluating new KS density.
  Integration grid: deviation in total charge (<rho> - N_e) =  -3.552714E-14
  Pulay mixing of updated and previous charge densities.

  Evaluating partitioned Hartree potential by multipole expansion.
  | Analytical far-field extrapolation by fixed multipoles:
  | Hartree multipole sum: apparent total charge =  -0.651387E-05
  Summing up the Hartree potential.
  Time summed over all CPUs for potential: real work        1.654 s, elapsed        1.664 s
  | RMS charge density error from multipole expansion :   0.149840E-01

  Integrating Hamiltonian matrix: batch-based integration.
  Time summed over all CPUs for integration: real work        4.509 s, elapsed        4.632 s

  Updating Kohn-Sham eigenvalues, eigenvectors, occupation numbers, and Fermi level.
  Solving generalized eigenproblem
  Updating Kohn-Sham eigenvalues and eigenfunctions.
  Solving real generalised eigenvalue problem by standard LAPACK (fast)
  Determining occupation numbers for Kohn-Sham eigenstates.
  | Chemical potential (Fermi level) in eV                 : -.27391393E+01
  | Error in electron count due to remaining E_F inaccuracy: 0.00000000E+00
  | Maximum occupation number of highest empty state:  0.00E+00

  Highest occupied state (VBM) at     -5.49009728 eV
  | Occupation number:      2.00000000

  Lowest unoccupied state (CBM) at    -2.13598877 eV
  | Occupation number:      0.00000000

  Overall HOMO-LUMO gap:      3.35410851 eV.

  Total energy components:
  | Sum of eigenvalues            :        -166.60832441 Ha       -4533.64317655 eV
  | XC energy correction          :         -37.25236374 Ha       -1013.68839326 eV
  | XC potential correction       :          47.62037827 Ha        1295.81642314 eV
  | Free-atom electrostatic energy:        -143.10243602 Ha       -3894.01540941 eV
  | Hartree energy correction     :          -6.86128443 Ha        -186.70504866 eV
  | van der Waals energy corr.    :           0.00000000 Ha           0.00000000 eV
  | Entropy correction            :           0.00000000 Ha           0.00000000 eV
  | ---------------------------
  | Total energy                  :        -306.20403033 Ha       -8332.23560473 eV
  | Total energy, T -> 0          :        -306.20403033 Ha       -8332.23560473 eV  <-- do not rely on this value for anything but (periodic) metals
  | Electronic free energy        :        -306.20403033 Ha       -8332.23560473 eV

  Derived energy quantities:
  | Kinetic energy                :         305.27198166 Ha        8306.87327012 eV
  | Electrostatic energy          :        -574.22364825 Ha      -15625.42048160 eV
  | Energy correction for multipole
  | error in Hartree potential    :          -0.00570594 Ha          -0.15526646 eV
  | Sum of eigenvalues per atom                           :        -377.80359805 eV
  | Total energy (T->0) per atom                          :        -694.35296706 eV  <-- do not rely on this value for anything but (periodic) metals
  | Electronic free energy per atom                       :        -694.35296706 eV

  Self-consistency convergence accuracy:
  | Change of charge density      : 0.1158E+00
  | Change of sum of eigenvalues  : 0.3008E+02 eV
  | Change of total energy        : 0.2270E+00 eV

  End self-consistency iteration #     4       :  max(cpu_time)    wall_clock(cpu1)
  | Time for this iteration                    :        1.213 s           1.212 s
  | Charge density update                      :        0.382 s           0.382 s
  | Density mixing                             :        0.007 s           0.006 s
  | Hartree multipole update                   :        0.004 s           0.005 s
  | Hartree multipole summation                :        0.209 s           0.208 s
  | Integration                                :        0.580 s           0.580 s
  | Solution of K.-S. eqns.                    :        0.030 s           0.031 s
  | Total energy evaluation                    :        0.000 s           0.000 s
------------------------------------------------------------

------------------------------------------------------------
          Begin self-consistency iteration #    5

  Date     :  20150727, Time     :  123023.794
------------------------------------------------------------
  Evaluating new KS density.
  Integration grid: deviation in total charge (<rho> - N_e) =  -4.263256E-14
  Pulay mixing of updated and previous charge densities.

  Evaluating partitioned Hartree potential by multipole expansion.
  | Analytical far-field extrapolation by fixed multipoles:
  | Hartree multipole sum: apparent total charge =  -0.664181E-05
  Summing up the Hartree potential.
  Time summed over all CPUs for potential: real work        1.654 s, elapsed        1.661 s
  | RMS charge density error from multipole expansion :   0.157229E-01

  Integrating Hamiltonian matrix: batch-based integration.
  Time summed over all CPUs for integration: real work        4.514 s, elapsed        4.637 s

  Updating Kohn-Sham eigenvalues, eigenvectors, occupation numbers, and Fermi level.
  Solving generalized eigenproblem
  Updating Kohn-Sham eigenvalues and eigenfunctions.
  Solving real generalised eigenvalue problem by standard LAPACK (fast)
  Determining occupation numbers for Kohn-Sham eigenstates.
  | Chemical potential (Fermi level) in eV                 : -.27026530E+01
  | Error in electron count due to remaining E_F inaccuracy: 0.00000000E+00
  | Maximum occupation number of highest empty state:  0.00E+00

  Highest occupied state (VBM) at     -5.23247084 eV
  | Occupation number:      2.00000000

  Lowest unoccupied state (CBM) at    -2.12135889 eV
  | Occupation number:      0.00000000

  Overall HOMO-LUMO gap:      3.11111195 eV.

  Total energy components:
  | Sum of eigenvalues            :        -166.46515300 Ha       -4529.74728402 eV
  | XC energy correction          :         -37.27449657 Ha       -1014.29065827 eV
  | XC potential correction       :          47.64884053 Ha        1296.59092072 eV
  | Free-atom electrostatic energy:        -143.10243602 Ha       -3894.01540941 eV
  | Hartree energy correction     :          -7.01054477 Ha        -190.76662938 eV
  | van der Waals energy corr.    :           0.00000000 Ha           0.00000000 eV
  | Entropy correction            :           0.00000000 Ha           0.00000000 eV
  | ---------------------------
  | Total energy                  :        -306.20378983 Ha       -8332.22906035 eV
  | Total energy, T -> 0          :        -306.20378983 Ha       -8332.22906035 eV  <-- do not rely on this value for anything but (periodic) metals
  | Electronic free energy        :        -306.20378983 Ha       -8332.22906035 eV

  Derived energy quantities:
  | Kinetic energy                :         305.29854661 Ha        8307.59613910 eV
  | Electrostatic energy          :        -574.22783987 Ha      -15625.53454118 eV
  | Energy correction for multipole
  | error in Hartree potential    :          -0.00598428 Ha          -0.16284059 eV
  | Sum of eigenvalues per atom                           :        -377.47894034 eV
  | Total energy (T->0) per atom                          :        -694.35242170 eV  <-- do not rely on this value for anything but (periodic) metals
  | Electronic free energy per atom                       :        -694.35242170 eV

  Self-consistency convergence accuracy:
  | Change of charge density      : 0.3142E-01
  | Change of sum of eigenvalues  : 0.3896E+01 eV
  | Change of total energy        : 0.6544E-02 eV

  End self-consistency iteration #     5       :  max(cpu_time)    wall_clock(cpu1)
  | Time for this iteration                    :        1.212 s           1.212 s
  | Charge density update                      :        0.380 s           0.379 s
  | Density mixing                             :        0.008 s           0.007 s
  | Hartree multipole update                   :        0.004 s           0.004 s
  | Hartree multipole summation                :        0.208 s           0.209 s
  | Integration                                :        0.581 s           0.580 s
  | Solution of K.-S. eqns.                    :        0.031 s           0.031 s
  | Total energy evaluation                    :        0.000 s           0.000 s
------------------------------------------------------------

------------------------------------------------------------
          Begin self-consistency iteration #    6

  Date     :  20150727, Time     :  123025.007
------------------------------------------------------------
  Evaluating new KS density.
  Integration grid: deviation in total charge (<rho> - N_e) =  -7.105427E-15
  Pulay mixing of updated and previous charge densities.

  Evaluating partitioned Hartree potential by multipole expansion.
  | Analytical far-field extrapolation by fixed multipoles:
  | Hartree multipole sum: apparent total charge =  -0.667494E-05
  Summing up the Hartree potential.
  Time summed over all CPUs for potential: real work        1.654 s, elapsed        1.661 s
  | RMS charge density error from multipole expansion :   0.159215E-01

  Integrating Hamiltonian matrix: batch-based integration.
  Time summed over all CPUs for integration: real work        4.512 s, elapsed        4.628 s

  Updating Kohn-Sham eigenvalues, eigenvectors, occupation numbers, and Fermi level.
  Solving generalized eigenproblem
  Updating Kohn-Sham eigenvalues and eigenfunctions.
  Solving real generalised eigenvalue problem by standard LAPACK (fast)
  Determining occupation numbers for Kohn-Sham eigenstates.
  | Chemical potential (Fermi level) in eV                 : -.26943630E+01
  | Error in electron count due to remaining E_F inaccuracy: 0.00000000E+00
  | Maximum occupation number of highest empty state:  0.00E+00

  Highest occupied state (VBM) at     -5.20786718 eV
  | Occupation number:      2.00000000

  Lowest unoccupied state (CBM) at    -2.11703634 eV
  | Occupation number:      0.00000000

  Overall HOMO-LUMO gap:      3.09083084 eV.

  Total energy components:
  | Sum of eigenvalues            :        -166.43371428 Ha       -4528.89179303 eV
  | XC energy correction          :         -37.27946520 Ha       -1014.42586149 eV
  | XC potential correction       :          47.65519322 Ha        1296.76378601 eV
  | Free-atom electrostatic energy:        -143.10243602 Ha       -3894.01540941 eV
  | Hartree energy correction     :          -7.04341407 Ha        -191.66104855 eV
  | van der Waals energy corr.    :           0.00000000 Ha           0.00000000 eV
  | Entropy correction            :           0.00000000 Ha           0.00000000 eV
  | ---------------------------
  | Total energy                  :        -306.20383636 Ha       -8332.23032647 eV
  | Total energy, T -> 0          :        -306.20383636 Ha       -8332.23032647 eV  <-- do not rely on this value for anything but (periodic) metals
  | Electronic free energy        :        -306.20383636 Ha       -8332.23032647 eV

  Derived energy quantities:
  | Kinetic energy                :         305.30221480 Ha        8307.69595551 eV
  | Electrostatic energy          :        -574.22658595 Ha      -15625.50042049 eV
  | Energy correction for multipole
  | error in Hartree potential    :          -0.00605460 Ha          -0.16475410 eV
  | Sum of eigenvalues per atom                           :        -377.40764942 eV
  | Total energy (T->0) per atom                          :        -694.35252721 eV  <-- do not rely on this value for anything but (periodic) metals
  | Electronic free energy per atom                       :        -694.35252721 eV

  Self-consistency convergence accuracy:
  | Change of charge density      : 0.9552E-02
  | Change of sum of eigenvalues  : 0.8555E+00 eV
  | Change of total energy        : -.1266E-02 eV

  End self-consistency iteration #     6       :  max(cpu_time)    wall_clock(cpu1)
  | Time for this iteration                    :        1.212 s           1.211 s
  | Charge density update                      :        0.380 s           0.379 s
  | Density mixing                             :        0.009 s           0.009 s
  | Hartree multipole update                   :        0.004 s           0.004 s
  | Hartree multipole summation                :        0.208 s           0.208 s
  | Integration                                :        0.580 s           0.580 s
  | Solution of K.-S. eqns.                    :        0.030 s           0.030 s
  | Total energy evaluation                    :        0.000 s           0.001 s
------------------------------------------------------------

------------------------------------------------------------
          Begin self-consistency iteration #    7

  Date     :  20150727, Time     :  123026.218
------------------------------------------------------------
  Evaluating new KS density.
  Integration grid: deviation in total charge (<rho> - N_e) =  -2.842171E-14
  Pulay mixing of updated and previous charge densities.

  Evaluating partitioned Hartree potential by multipole expansion.
  | Analytical far-field extrapolation by fixed multipoles:
  | Hartree multipole sum: apparent total charge =  -0.653541E-05
  Summing up the Hartree potential.
  Time summed over all CPUs for potential: real work        1.654 s, elapsed        1.661 s
  | RMS charge density error from multipole expansion :   0.158796E-01

  Integrating Hamiltonian matrix: batch-based integration.
  Time summed over all CPUs for integration: real work        4.514 s, elapsed        4.632 s

  Updating Kohn-Sham eigenvalues, eigenvectors, occupation numbers, and Fermi level.
  Solving generalized eigenproblem
  Updating Kohn-Sham eigenvalues and eigenfunctions.
  Solving real generalised eigenvalue problem by standard LAPACK (fast)
  Determining occupation numbers for Kohn-Sham eigenstates.
  | Chemical potential (Fermi level) in eV                 : -.27246054E+01
  | Error in electron count due to remaining E_F inaccuracy: 0.00000000E+00
  | Maximum occupation number of highest empty state:  0.00E+00

  Highest occupied state (VBM) at     -5.34287264 eV
  | Occupation number:      2.00000000

  Lowest unoccupied state (CBM) at    -2.12243254 eV
  | Occupation number:      0.00000000

  Overall HOMO-LUMO gap:      3.22044010 eV.

  Total energy components:
  | Sum of eigenvalues            :        -166.54317252 Ha       -4531.87030320 eV
  | XC energy correction          :         -37.26740756 Ha       -1014.09775638 eV
  | XC potential correction       :          47.63902478 Ha        1296.32382045 eV
  | Free-atom electrostatic energy:        -143.10243602 Ha       -3894.01540941 eV
  | Hartree energy correction     :          -6.92975184 Ha        -188.56814168 eV
  | van der Waals energy corr.    :           0.00000000 Ha           0.00000000 eV
  | Entropy correction            :           0.00000000 Ha           0.00000000 eV
  | ---------------------------
  | Total energy                  :        -306.20374315 Ha       -8332.22779022 eV
  | Total energy, T -> 0          :        -306.20374315 Ha       -8332.22779022 eV  <-- do not rely on this value for anything but (periodic) metals
  | Electronic free energy        :        -306.20374315 Ha       -8332.22779022 eV

  Derived energy quantities:
  | Kinetic energy                :         305.34493070 Ha        8308.85831427 eV
  | Electrostatic energy          :        -574.28126629 Ha      -15626.98834812 eV
  | Energy correction for multipole
  | error in Hartree potential    :          -0.00592301 Ha          -0.16117317 eV
  | Sum of eigenvalues per atom                           :        -377.65585860 eV
  | Total energy (T->0) per atom                          :        -694.35231585 eV  <-- do not rely on this value for anything but (periodic) metals
  | Electronic free energy per atom                       :        -694.35231585 eV

  Self-consistency convergence accuracy:
  | Change of charge density      : 0.9749E-02
  | Change of sum of eigenvalues  : -.2979E+01 eV
  | Change of total energy        : 0.2536E-02 eV

  End self-consistency iteration #     7       :  max(cpu_time)    wall_clock(cpu1)
  | Time for this iteration                    :        1.212 s           1.212 s
  | Charge density update                      :        0.379 s           0.379 s
  | Density mixing                             :        0.009 s           0.009 s
  | Hartree multipole update                   :        0.004 s           0.004 s
  | Hartree multipole summation                :        0.209 s           0.209 s
  | Integration                                :        0.580 s           0.580 s
  | Solution of K.-S. eqns.                    :        0.030 s           0.030 s
  | Total energy evaluation                    :        0.000 s           0.001 s
------------------------------------------------------------

------------------------------------------------------------
          Begin self-consistency iteration #    8

  Date     :  20150727, Time     :  123027.430
------------------------------------------------------------
  Evaluating new KS density.
  Integration grid: deviation in total charge (<rho> - N_e) =   0.000000E+00
  Pulay mixing of updated and previous charge densities.

  Evaluating partitioned Hartree potential by multipole expansion.
  | Analytical far-field extrapolation by fixed multipoles:
  | Hartree multipole sum: apparent total charge =  -0.653534E-05
  Summing up the Hartree potential.
  Time summed over all CPUs for potential: real work        1.654 s, elapsed        1.661 s
  | RMS charge density error from multipole expansion :   0.159172E-01

  Integrating Hamiltonian matrix: batch-based integration.
  Time summed over all CPUs for integration: real work        4.516 s, elapsed        4.638 s

  Updating Kohn-Sham eigenvalues, eigenvectors, occupation numbers, and Fermi level.
  Solving generalized eigenproblem
  Updating Kohn-Sham eigenvalues and eigenfunctions.
  Solving real generalised eigenvalue problem by standard LAPACK (fast)
  Determining occupation numbers for Kohn-Sham eigenstates.
  | Chemical potential (Fermi level) in eV                 : -.27255523E+01
  | Error in electron count due to remaining E_F inaccuracy: 0.00000000E+00
  | Maximum occupation number of highest empty state:  0.00E+00

  Highest occupied state (VBM) at     -5.32879640 eV
  | Occupation number:      2.00000000

  Lowest unoccupied state (CBM) at    -2.12306183 eV
  | Occupation number:      0.00000000

  Overall HOMO-LUMO gap:      3.20573458 eV.

  Total energy components:
  | Sum of eigenvalues            :        -166.53838474 Ha       -4531.74002127 eV
  | XC energy correction          :         -37.26814679 Ha       -1014.11787201 eV
  | XC potential correction       :          47.63995190 Ha        1296.34904883 eV
  | Free-atom electrostatic energy:        -143.10243602 Ha       -3894.01540941 eV
  | Hartree energy correction     :          -6.93472717 Ha        -188.70352755 eV
  | van der Waals energy corr.    :           0.00000000 Ha           0.00000000 eV
  | Entropy correction            :           0.00000000 Ha           0.00000000 eV
  | ---------------------------
  | Total energy                  :        -306.20374283 Ha       -8332.22778141 eV
  | Total energy, T -> 0          :        -306.20374283 Ha       -8332.22778141 eV  <-- do not rely on this value for anything but (periodic) metals
  | Electronic free energy        :        -306.20374283 Ha       -8332.22778141 eV

  Derived energy quantities:
  | Kinetic energy                :         305.34862678 Ha        8308.95888992 eV
  | Electrostatic energy          :        -574.28422282 Ha      -15627.06879931 eV
  | Energy correction for multipole
  | error in Hartree potential    :          -0.00593892 Ha          -0.16160624 eV
  | Sum of eigenvalues per atom                           :        -377.64500177 eV
  | Total energy (T->0) per atom                          :        -694.35231512 eV  <-- do not rely on this value for anything but (periodic) metals
  | Electronic free energy per atom                       :        -694.35231512 eV

  Self-consistency convergence accuracy:
  | Change of charge density      : 0.1735E-02
  | Change of sum of eigenvalues  : 0.1303E+00 eV
  | Change of total energy        : 0.8811E-05 eV

  End self-consistency iteration #     8       :  max(cpu_time)    wall_clock(cpu1)
  | Time for this iteration                    :        1.215 s           1.214 s
  | Charge density update                      :        0.379 s           0.379 s
  | Density mixing                             :        0.011 s           0.011 s
  | Hartree multipole update                   :        0.004 s           0.004 s
  | Hartree multipole summation                :        0.209 s           0.208 s
  | Integration                                :        0.580 s           0.581 s
  | Solution of K.-S. eqns.                    :        0.031 s           0.031 s
  | Total energy evaluation                    :        0.001 s           0.000 s
------------------------------------------------------------

------------------------------------------------------------
          Begin self-consistency iteration #    9

  Date     :  20150727, Time     :  123028.645
------------------------------------------------------------
  Evaluating new KS density.
  Integration grid: deviation in total charge (<rho> - N_e) =   0.000000E+00
  Pulay mixing of updated and previous charge densities.

  Evaluating partitioned Hartree potential by multipole expansion.
  | Analytical far-field extrapolation by fixed multipoles:
  | Hartree multipole sum: apparent total charge =  -0.653214E-05
  Summing up the Hartree potential.
  Time summed over all CPUs for potential: real work        1.654 s, elapsed        1.661 s
  | RMS charge density error from multipole expansion :   0.159150E-01

  Integrating Hamiltonian matrix: batch-based integration.
  Time summed over all CPUs for integration: real work        4.516 s, elapsed        4.627 s

  Updating Kohn-Sham eigenvalues, eigenvectors, occupation numbers, and Fermi level.
  Solving generalized eigenproblem
  Updating Kohn-Sham eigenvalues and eigenfunctions.
  Solving real generalised eigenvalue problem by standard LAPACK (fast)
  Determining occupation numbers for Kohn-Sham eigenstates.
  | Chemical potential (Fermi level) in eV                 : -.27259837E+01
  | Error in electron count due to remaining E_F inaccuracy: 0.00000000E+00
  | Maximum occupation number of highest empty state:  0.00E+00

  Highest occupied state (VBM) at     -5.33332319 eV
  | Occupation number:      2.00000000

  Lowest unoccupied state (CBM) at    -2.12322255 eV
  | Occupation number:      0.00000000

  Overall HOMO-LUMO gap:      3.21010065 eV.

  Total energy components:
  | Sum of eigenvalues            :        -166.53956083 Ha       -4531.77202412 eV
  | XC energy correction          :         -37.26798563 Ha       -1014.11348653 eV
  | XC potential correction       :          47.63973360 Ha        1296.34310844 eV
  | Free-atom electrostatic energy:        -143.10243602 Ha       -3894.01540941 eV
  | Hartree energy correction     :          -6.93349343 Ha        -188.66995560 eV
  | van der Waals energy corr.    :           0.00000000 Ha           0.00000000 eV
  | Entropy correction            :           0.00000000 Ha           0.00000000 eV
  | ---------------------------
  | Total energy                  :        -306.20374231 Ha       -8332.22776723 eV
  | Total energy, T -> 0          :        -306.20374231 Ha       -8332.22776723 eV  <-- do not rely on this value for anything but (periodic) metals
  | Electronic free energy        :        -306.20374231 Ha       -8332.22776723 eV

  Derived energy quantities:
  | Kinetic energy                :         305.35083863 Ha        8309.01907741 eV
  | Electrostatic energy          :        -574.28659531 Ha      -15627.13335810 eV
  | Energy correction for multipole
  | error in Hartree potential    :          -0.00593576 Ha          -0.16152020 eV
  | Sum of eigenvalues per atom                           :        -377.64766868 eV
  | Total energy (T->0) per atom                          :        -694.35231394 eV  <-- do not rely on this value for anything but (periodic) metals
  | Electronic free energy per atom                       :        -694.35231394 eV

  Self-consistency convergence accuracy:
  | Change of charge density      : 0.7714E-03
  | Change of sum of eigenvalues  : -.3200E-01 eV
  | Change of total energy        : 0.1418E-04 eV

  End self-consistency iteration #     9       :  max(cpu_time)    wall_clock(cpu1)
  | Time for this iteration                    :        1.215 s           1.214 s
  | Charge density update                      :        0.380 s           0.379 s
  | Density mixing                             :        0.012 s           0.012 s
  | Hartree multipole update                   :        0.004 s           0.004 s
  | Hartree multipole summation                :        0.208 s           0.209 s
  | Integration                                :        0.579 s           0.579 s
  | Solution of K.-S. eqns.                    :        0.031 s           0.031 s
  | Total energy evaluation                    :        0.001 s           0.000 s
------------------------------------------------------------

------------------------------------------------------------
          Begin self-consistency iteration #   10

  Date     :  20150727, Time     :  123029.859
------------------------------------------------------------
  Evaluating new KS density.
  Integration grid: deviation in total charge (<rho> - N_e) =   1.421085E-14
  Pulay mixing of updated and previous charge densities.

  Evaluating partitioned Hartree potential by multipole expansion.
  | Analytical far-field extrapolation by fixed multipoles:
  | Hartree multipole sum: apparent total charge =  -0.652801E-05
  Summing up the Hartree potential.
  Time summed over all CPUs for potential: real work        1.654 s, elapsed        1.661 s
  | RMS charge density error from multipole expansion :   0.159231E-01

  Integrating Hamiltonian matrix: batch-based integration.
  Time summed over all CPUs for integration: real work        4.513 s, elapsed        4.628 s

  Updating Kohn-Sham eigenvalues, eigenvectors, occupation numbers, and Fermi level.
  Solving generalized eigenproblem
[...]
  |                                 -0.01802701       0.09591059       0.01553627
  |                                  0.01279980       0.01553627       0.05353882
  ----------------------------------------------------------------------


  Total energy components:
  | Sum of eigenvalues            :        -166.53951338 Ha       -4531.77073291 eV
  | XC energy correction          :         -37.26797563 Ha       -1014.11321438 eV
  | XC potential correction       :          47.63970137 Ha        1296.34223149 eV
  | Free-atom electrostatic energy:        -143.10243602 Ha       -3894.01540941 eV
  | Hartree energy correction     :          -6.93351806 Ha        -188.67062579 eV
  | van der Waals energy corr.    :          -0.00157224 Ha          -0.04278276 eV
  | Entropy correction            :           0.00000000 Ha           0.00000000 eV
  | ---------------------------
  | Total energy                  :        -306.20531395 Ha       -8332.27053377 eV
  | Total energy, T -> 0          :        -306.20531395 Ha       -8332.27053377 eV  <-- do not rely on this value for anything but (periodic) metals
  | Electronic free energy        :        -306.20531395 Ha       -8332.27053377 eV

  Derived energy quantities:
  | Kinetic energy                :         305.35312441 Ha        8309.08127662 eV
  | Electrostatic energy          :        -574.28889049 Ha      -15627.19581324 eV
  | Energy correction for multipole
  | error in Hartree potential    :          -0.00594338 Ha          -0.16172766 eV
  | Sum of eigenvalues per atom                           :        -377.64756108 eV
  | Total energy (T->0) per atom                          :        -694.35587781 eV  <-- do not rely on this value for anything but (periodic) metals
  | Electronic free energy per atom                       :        -694.35587781 eV

  atomic forces [eV/Ang]:
  -----------------------
  atom #    1
   Hellmann-Feynman + Multipole  : -.707383E+01 -.110388E+02 0.304882E+01
   Pulay + GGA                   : 0.793674E+01 0.135206E+02 -.382583E+01
   Van der Waals               : 0.170924E-02 -.991138E-03 0.251882E-02
   ----------------------------------------------------------------
   Total forces(   1)            : 0.864616E+00 0.248080E+01 -.774490E+00
  atom #    2
   Hellmann-Feynman + Multipole  : 0.162201E+01 -.270612E+01 0.115982E+01
   Pulay + GGA                   : 0.785756E-03 0.634147E-01 -.303770E-01
   Van der Waals               : 0.836189E-03 0.455060E-02 0.262521E-02
   ----------------------------------------------------------------
   Total forces(   2)            : 0.162363E+01 -.263815E+01 0.113207E+01
  atom #    3
   Hellmann-Feynman + Multipole  : -.219186E+01 -.580238E+00 -.156325E+00
   Pulay + GGA                   : 0.127375E+00 0.687682E-01 0.971707E-02
   Van der Waals               : 0.267776E-03 0.244109E-02 0.741605E-03
   ----------------------------------------------------------------
   Total forces(   3)            : -.206422E+01 -.509029E+00 -.145866E+00
  atom #    4
   Hellmann-Feynman + Multipole  : -.629797E+01 -.799978E+01 0.917166E+01
   Pulay + GGA                   : 0.638005E+01 0.844045E+01 -.700505E+01
   Van der Waals               : -.292008E-02 0.553724E-02 0.273098E-02
   ----------------------------------------------------------------
   Total forces(   4)            : 0.791595E-01 0.446206E+00 0.216934E+01
  atom #    5
   Hellmann-Feynman + Multipole  : -.336014E+00 -.329963E+00 -.998074E-01
   Pulay + GGA                   : 0.438298E-01 0.819289E-01 -.717511E-03
   Van der Waals               : -.257520E-02 -.113312E-02 -.167824E-02
   ----------------------------------------------------------------
   Total forces(   5)            : -.294759E+00 -.249167E+00 -.102203E+00
  atom #    6
   Hellmann-Feynman + Multipole  : -.293980E+00 0.288098E+00 -.226794E+01
   Pulay + GGA                   : -.305194E-01 0.385113E-01 -.119521E+00
   Van der Waals               : 0.209494E-02 0.233113E-02 0.322648E-02
   ----------------------------------------------------------------
   Total forces(   6)            : -.322404E+00 0.328941E+00 -.238424E+01
  atom #    7
   Hellmann-Feynman + Multipole  : -.117965E+02 -.325281E+01 0.797233E+00
   Pulay + GGA                   : 0.132261E+02 0.478846E+01 -.155382E+01
   Van der Waals               : 0.138507E-02 -.259429E-02 -.181822E-02
   ----------------------------------------------------------------
   Total forces(   7)            : 0.143097E+01 0.153305E+01 -.758407E+00
  atom #    8
   Hellmann-Feynman + Multipole  : -.530956E+00 -.110546E-01 -.179856E-01
   Pulay + GGA                   : 0.120598E+00 -.528692E-01 0.252312E-01
   Van der Waals               : -.672821E-03 -.419483E-02 -.220009E-02
   ----------------------------------------------------------------
   Total forces(   8)            : -.411032E+00 -.681186E-01 0.504550E-02
  atom #    9
   Hellmann-Feynman + Multipole  : -.761239E+00 -.140398E+01 0.684366E+00
   Pulay + GGA                   : 0.441525E-01 0.972988E-01 -.605060E-01
   Van der Waals               : 0.319476E-03 -.269666E-03 -.834534E-03
   ----------------------------------------------------------------
   Total forces(   9)            : -.716767E+00 -.130695E+01 0.623026E+00
  atom #   10
   Hellmann-Feynman + Multipole  : 0.990048E+00 -.158137E+02 0.186159E+01
   Pulay + GGA                   : 0.117425E+00 0.160413E+02 -.333381E+01
   Van der Waals               : -.706791E-04 -.269026E-02 -.420503E-02
   ----------------------------------------------------------------
   Total forces(  10)            : 0.110740E+01 0.224937E+00 -.147643E+01
  atom #   11
   Hellmann-Feynman + Multipole  : -.270837E+00 0.449967E+00 0.248136E+00
   Pulay + GGA                   : -.640335E-01 0.995440E-01 0.820478E-01
   Van der Waals               : 0.247907E-02 -.579245E-03 -.357160E-02
   ----------------------------------------------------------------
   Total forces(  11)            : -.332392E+00 0.548932E+00 0.326612E+00
  atom #   12
   Hellmann-Feynman + Multipole  : -.984691E+00 -.857110E+00 0.144316E+01
   Pulay + GGA                   : 0.340285E-01 0.715295E-01 -.651031E-01
   Van der Waals               : -.285299E-02 -.240752E-02 0.246462E-02
   ----------------------------------------------------------------
   Total forces(  12)            : -.953515E+00 -.787988E+00 0.138053E+01
  Timings for vdw_correction_hirshfeld (Tkatchenko-Scheffler 2009):
  | CPU time:        3.187 s, Wall clock time:        3.187 s.
  Removing unitary transformations (pure translations, rotations) from forces on atoms.
  Atomic forces before filtering:
  | Net force on center of mass :  0.106900E-01 0.346075E-02 -.501010E-02 eV/A
  | Net torque on center of mass:  -.129931E-01 0.127596E-01 -.717060E-02 eV
  Atomic forces after filtering:
  | Net force on center of mass :  0.178406E-15 -.356812E-15 0.000000E+00 eV/A
  | Net torque on center of mass:  -.755268E-15 0.755268E-15 -.755268E-15 eV
 
  Energy and forces in a compact form:
  | Total energy uncorrected      :         -0.833227053376683E+04 eV
  | Total energy corrected        :         -0.833227053376683E+04 eV  <-- do not rely on this value for anything but (periodic) metals
  | Electronic free energy        :         -0.833227053376683E+04 eV
  Total atomic forces (unitary forces cleaned) [eV/Ang]:
  |   1          0.863952904014255E+00          0.248066084048877E+01         -0.774583934677830E+00
  |   2          0.162311367512352E+01         -0.263819493821101E+01          0.113201539688977E+01
  |   3         -0.206489893096710E+01         -0.509177994042440E+00         -0.145514494884868E+00
  |   4          0.787994336244310E-01          0.446269571123977E+00          0.216931635461234E+01
  |   5         -0.295257260609175E+00         -0.249193331500193E+00         -0.101845782096800E+00
  |   6         -0.322417198494257E+00          0.329235989437247E+00         -0.238427797363974E+01
  |   7          0.143005538410520E+01          0.153275508629628E+01         -0.757432442721894E+00
  |   8         -0.412070308643341E+00         -0.685006932119210E-01          0.624560896341753E-02
  |   9         -0.717520276269419E+00         -0.130714477476030E+01          0.624346670401550E+00
  |  10          0.110561474762397E+01          0.224048560706889E+00         -0.147618990846041E+01
  |  11         -0.334363291707293E+00          0.547920036222030E+00          0.326852554227299E+00
  |  12         -0.955008877800796E+00         -0.788678352549318E+00          0.138106795138716E+01
 
  ------------------------------------ 
  Start decomposition of the XC Energy 
  ------------------------------------ 
  Hartree-Fock part   :          0.000000000 Ha              0.000000000 eV
  ------------------------------------ 
  X Energy            :        -35.959150899 Ha           -978.498281398 eV
  C Energy GGA        :         -1.308824730 Ha            -35.614932984 eV
  Total XC Energy     :        -37.267975629 Ha          -1014.113214382 eV
  LDA X and C from self-consistent density 
  X Energy LDA        :        -32.405186506 Ha           -881.789989814 eV
  C Energy LDA        :         -2.639429106 Ha            -71.822520264 eV
  ------------------------------------ 
  End decomposition of the XC Energy 
  ------------------------------------ 
  Performing Hirshfeld analysis of fragment charges and moments.
  ----------------------------------------------------------------------
  | Atom     1: O
  |   Hirshfeld charge        :     -0.37165065
  |   Free atom volume        :     23.95238533
  |   Hirshfeld volume        :     24.24611019
  |   Hirshfeld dipole vector :      0.01855372       0.06450277      -0.01475356
  |   Hirshfeld dipole moment :      0.06872056
  |   Hirshfeld second moments:      0.01949253      -0.01690160       0.02573204
  |                                 -0.01690160      -0.06499021      -0.02107661
  |                                  0.02573204      -0.02107661      -0.10915689
  ----------------------------------------------------------------------
  | Atom     2: H
  |   Hirshfeld charge        :      0.06911352
  |   Free atom volume        :     10.44207651
  |   Hirshfeld volume        :      8.45222792
  |   Hirshfeld dipole vector :     -0.02290991       0.03557293      -0.01581976
  |   Hirshfeld dipole moment :      0.04517258
  |   Hirshfeld second moments:      0.07411593       0.03089238      -0.00026636
  |                                  0.03089238       0.02581123       0.01464329
  |                                 -0.00026636       0.01464329       0.05848531
  ----------------------------------------------------------------------
  | Atom     3: H
  |   Hirshfeld charge        :      0.09487111
  |   Free atom volume        :     10.44207651
  |   Hirshfeld volume        :      7.48982445
  |   Hirshfeld dipole vector :      0.11682610       0.02979013       0.00885339
  |   Hirshfeld dipole moment :      0.12088909
  |   Hirshfeld second moments:      0.09221195      -0.01167233       0.00739106
  |                                 -0.01167233       0.08700279      -0.00899479
  |                                  0.00739106      -0.00899479       0.06773534
  ----------------------------------------------------------------------
  | Atom     4: O
  |   Hirshfeld charge        :     -0.19447100
  |   Free atom volume        :     23.95238533
  |   Hirshfeld volume        :     20.31617243
  |   Hirshfeld dipole vector :      0.02430000      -0.00967919      -0.01332040
  |   Hirshfeld dipole moment :      0.02935318
  |   Hirshfeld second moments:      0.04052138       0.01107424       0.02567373
  |                                  0.01107424       0.08089575       0.00563984
  |                                  0.02567373       0.00563984       0.10247310
  ----------------------------------------------------------------------
  | Atom     5: H
  |   Hirshfeld charge        :      0.11972088
  |   Free atom volume        :     10.44207651
  |   Hirshfeld volume        :      7.15089510
  |   Hirshfeld dipole vector :      0.02637970       0.04214734       0.01022967
  |   Hirshfeld dipole moment :      0.05076350
  |   Hirshfeld second moments:      0.08702632      -0.02192317      -0.00566253
  |                                 -0.02192317       0.07468220      -0.02641272
  |                                 -0.00566253      -0.02641272       0.10491147
  ----------------------------------------------------------------------
  | Atom     6: H
  |   Hirshfeld charge        :      0.16545531
  |   Free atom volume        :     10.44207651
  |   Hirshfeld volume        :      5.80723239
  |   Hirshfeld dipole vector :     -0.01999240       0.00961421      -0.11971031
  |   Hirshfeld dipole moment :      0.12174846
  |   Hirshfeld second moments:      0.12317287       0.00805246       0.00709556
  |                                  0.00805246       0.13761047       0.00300406
  |                                  0.00709556       0.00300406       0.12584961
  ----------------------------------------------------------------------
  | Atom     7: O
  |   Hirshfeld charge        :     -0.16080476
  |   Free atom volume        :     23.95238533
  |   Hirshfeld volume        :     19.46537470
  |   Hirshfeld dipole vector :     -0.00107165      -0.01074467       0.00593097
  |   Hirshfeld dipole moment :      0.01231961
  |   Hirshfeld second moments:      0.09754505      -0.00580912       0.01054812
  |                                 -0.00580912       0.11180415      -0.02634435
  |                                  0.01054812      -0.02634435       0.07680996
  ----------------------------------------------------------------------
  | Atom     8: H
  |   Hirshfeld charge        :      0.18542563
  |   Free atom volume        :     10.44207651
  |   Hirshfeld volume        :      5.64508211
  |   Hirshfeld dipole vector :      0.09973220      -0.04874863       0.04100625
  |   Hirshfeld dipole moment :      0.11834041
  |   Hirshfeld second moments:      0.13483667       0.00570345      -0.00014754
  |                                  0.00570345       0.14070281      -0.00463170
  |                                 -0.00014754      -0.00463170       0.12864066
  ----------------------------------------------------------------------
  | Atom     9: H
  |   Hirshfeld charge        :      0.18422031
  |   Free atom volume        :     10.44207651
  |   Hirshfeld volume        :      5.21169274
  |   Hirshfeld dipole vector :      0.03311282       0.10305429      -0.05049428
  |   Hirshfeld dipole moment :      0.11944169
  |   Hirshfeld second moments:      0.15091574      -0.00786268       0.00729794
  |                                 -0.00786268       0.13638272      -0.00188390
  |                                  0.00729794      -0.00188390       0.13632600
  ----------------------------------------------------------------------
  | Atom    10: O
  |   Hirshfeld charge        :     -0.31478764
  |   Free atom volume        :     23.95238533
  |   Hirshfeld volume        :     22.56208023
  |   Hirshfeld dipole vector :     -0.00877939       0.05402530      -0.01174707
  |   Hirshfeld dipole moment :      0.05598039
  |   Hirshfeld second moments:     -0.01606958      -0.01667472      -0.05949403
  |                                 -0.01667472      -0.00720548       0.01165660
  |                                 -0.05949403       0.01165660       0.01844591
  ----------------------------------------------------------------------
  | Atom    11: H
  |   Hirshfeld charge        :      0.12958094
  |   Free atom volume        :     10.44207651
  |   Hirshfeld volume        :      6.57198503
  |   Hirshfeld dipole vector :     -0.06447404       0.08674880       0.06504723
  |   Hirshfeld dipole moment :      0.12614832
  |   Hirshfeld second moments:      0.10029529       0.00275508      -0.01706079
  |                                  0.00275508       0.10397091      -0.00697557
  |                                 -0.01706079      -0.00697557       0.11497760
  ----------------------------------------------------------------------
  | Atom    12: H
  |   Hirshfeld charge        :      0.09327482
  |   Free atom volume        :     10.44207651
  |   Hirshfeld volume        :      7.66750889
  |   Hirshfeld dipole vector :      0.02250263       0.04232124      -0.04657752
  |   Hirshfeld dipole moment :      0.06683503
  |   Hirshfeld second moments:      0.07187553      -0.01802701       0.01279980
  |                                 -0.01802701       0.09591059       0.01553627
  |                                  0.01279980       0.01553627       0.05353882
  ----------------------------------------------------------------------


------------------------------------------------------------------------------
  Final output of selected total energy values:

  The following output summarizes some interesting total energy values
  at the end of a run (AFTER all relaxation, molecular dynamics, etc.).

  | Total energy of the DFT / Hartree-Fock s.c.f. calculation      :          -8332.270533767 eV
  | Final zero-broadening corrected energy (caution - metals only) :          -8332.270533767 eV
  | For reference only, the value of 1 Hartree used in FHI-aims is :             27.211384500 eV

  Before relying on these values, please be sure to understand exactly which
  total energy value is referred to by a given number. Different objects may
  all carry the same name 'total energy'. Definitions:

  Total energy of the DFT / Hartree-Fock s.c.f. calculation:
  | Note that this energy does not include ANY quantities calculated after the
  | s.c.f. cycle, in particular not ANY RPA, MP2, etc. many-body perturbation terms.

  Final zero-broadening corrected energy:
  | For metallic systems only, a broadening of the occupation numbers at the Fermi
  | level can be extrapolated back to zero broadening by an electron-gas inspired
  | formula. For all systems that are not real metals, this value can be
  | meaningless and should be avoided.

------------------------------------------------------------------------------

------------------------------------------------------------
          Leaving FHI-aims.
          Date     :  20150727, Time     :  123041.545

          Computational steps:
          | Number of self-consistency cycles          :           15

          Detailed time accounting                     :  max(cpu_time)    wall_clock(cpu1)
          | Total time                                 :       24.413 s          24.440 s
          | Preparation time                           :        0.171 s           0.539 s
          | Grid partitioning                          :        0.108 s           0.108 s
          | Preloading free-atom quantities on grid    :        0.014 s           0.014 s
          | Free-atom superposition energy             :        0.046 s           0.046 s
          | Total time for integrations                :        9.600 s           9.599 s
          | Total time for solution of K.-S. equations :        0.577 s           0.580 s
          | Total time for density & force components  :        8.949 s           8.945 s
          | Total time for mixing                      :        0.151 s           0.148 s
          | Total time for Hartree multipole update    :        0.061 s           0.062 s
          | Total time for Hartree multipole sum       :        4.165 s           4.166 s
          | Total time for total energy evaluation     :        0.005 s           0.004 s
          | Total time for scaled ZORA corrections     :        0.000 s           0.000 s
          | Total time for TS (2009) vdW correction    :        0.035 s           0.035 s

          Have a nice day.
------------------------------------------------------------
