  MPI-parallelism will be employed.
------------------------------------------------------------
          Invoking FHI-aims ...
          Version 081213
          Compiled on 2013/08/29 at 17:41:06 on host generoso.

          When using FHI-aims, please cite the following reference:

          Volker Blum, Ralf Gehrke, Felix Hanke, Paula Havu,
          Ville Havu, Xinguo Ren, Karsten Reuter, and Matthias Scheffler,
          'Ab Initio Molecular Simulations with Numeric Atom-Centered Orbitals: FHI-aims',
          Computer Physics Communications 180, 2175-2196 (2009)

          For any questions about FHI-aims, please visit the aimsclub website
          with its forums and wiki. Contributions to both the forums and the
          wiki are warmly encouraged - they are for you, and everyone is welcome there.

------------------------------------------------------------

  Date     :  20150727, Time     :  115452.710
  Time zero on CPU 1             :   0.459920000000000E-01  s.
  Internal wall clock time zero  :           207230092.710  s.

  Using        8 parallel tasks.
  Task        0 on host gen60 reporting.
  Task        1 on host gen60 reporting.
  Task        2 on host gen60 reporting.
  Task        3 on host gen60 reporting.
  Task        4 on host gen60 reporting.
  Task        5 on host gen60 reporting.
  Task        6 on host gen60 reporting.
  Task        7 on host gen60 reporting.

  Performing system and environment tests:
  | Environment variable OMP_NUM_THREADS correctly set to 1.
  | Checking for scalapack...
  | No scalapack compiled in.

  Obtaining array dimensions for all initial allocations:
  
  -----------------------------------------------------------------------
  Parsing control.in (first pass over file, find array dimensions only).
  The contents of control.in will be repeated verbatim below
  unless switched off by setting 'verbatim_writeout .false.' .
  in the first line of control.in .
  -----------------------------------------------------------------------
  
  #########################################################################################
  #
  #  Volker Blum, FHI 2008 : Test run input file control.in
  #
  #########################################################################################
  #
  #  Physical model
  #
    xc                 rpbe
    spin               none
    relativistic       atomic_zora scalar
    charge             0.
   vdw_correction_hirshfeld
  #
  #  SCF convergence
  #
    occupation_type    gaussian 0.01
    mixer              pulay
      n_max_pulay        10
      charge_mix_param   0.1
    sc_accuracy_rho    5E-5
    sc_accuracy_eev    5E-3
    sc_accuracy_etot   5E-6
    sc_iter_limit      3000
  #
  #  Eigenvalue solver
  #
    KS_method          lapack
      empty_states       8
      basis_threshold    0.e-5
  #
  #  Efficiency
  #
  #   all previous settings are now default, except stratmann still
  #   undecided. Continue to handle stratmann with care, if at all.
  #
  #  partition_type stratmann
    partition_type rho_r2
  #  hartree_partition_type stratmann
  #
  #  Oprions for large clusters (100's of atoms: memory saving / better scaling)
  #
  # for periodic systems:
  #
    density_update_method orbital
    packed_matrix_format none
  #  k_grid 6 6 6
  #  output k_eigenvalue 1
  #  distributed_spline_storage .true.
  #
  #  Relaxation
  #
  #  relax_geometry   bfgs 5.e-3
    sc_accuracy_forces 5.E-4
    final_forces_cleaned .true.
  #
  #  Output options
  #
  #  output mulliken
    output Hirshfeld
  #  output dipole
  
  #harmonic_length_scale 0.001
  
  ################################################################################
  #
  #  FHI-aims code project
  #  VB, Fritz-Haber Institut, 2007
  #
  #  Suggested "safe" defaults for H atom (to be pasted into control.in file)
  #  Basis constructed for a non-relativistic H2 molecule using the
  #  PW-LDA functional.
  #
  ################################################################################
    species        H
  #     global species definitions
      nucleus             1
      cut_pot             4.0  2.0  1.0
      cut_free_atom       finite 8.0
      logarithmic         0.00010000 100.00  1.0123
      basis_dep_cutoff    1d-4  # 1d-4 is safe default - please check 5d-4 if you wish!
      radial_base         24 7.0
      radial_multiplier   2
      angular_grids       specified
        division   0.2783  110
        division   0.3822  194
        division   0.5626  302
  #      division   0.5922  434
  #      division   0.6227  590
  #      division   0.7206  770
        outer_grid  302
      l_hartree           4
  ################################################################################
  #
  #  Definition of "minimal" basis
  #
  ################################################################################
  #     valence basis states
      valence      1  s   1.
  #     ion occupancy
      ion_occ      1  s   0.5
  ################################################################################
  #
  #  Suggested additional basis functions. For production calculations,
  #  uncomment them one after another (the most important basis functions are
  #  listed first).
  #
  ################################################################################
  #  "First tier" - improvements: -1014.90 meV to -62.69 meV
       hydro 2 s 2.1
       hydro 2 p 3.5
  #  "Second tier" - improvements: -12.89 meV to -1.83 meV
       hydro 1 s 0.85
       hydro 2 p 3.7
       hydro 2 s 1.2
       hydro 3 d 7
  #  "Third tier" - improvements: -0.25 meV to -0.12 meV
  #     hydro 4 f 11.2
  #     hydro 3 p 4.8
  #     hydro 4 d 9
  #     hydro 3 s 3.2
  
  ################################################################################
  #
  #  FHI-aims code project
  #  VB, Fritz-Haber Institut, 2007
  #
  #  Suggested "safe" defaults for O atom (to be pasted into control.in file)
  #  All values have been tested for a non-relativistic, non-spinpolarized O2
  #  molecule using the PW-LDA functional. Validity for PBE is expected.
  #
  #  Constructed for dimers: 1.0 A, 1.208 A, 1.5 A, 2.0 A, 3.0 A
  #
  ################################################################################
    species        O
  #     global species definitions
      nucleus             8
      mass                15.9994
      l_hartree           4
      cut_pot             4.0  2.0  1.0
      cut_free_atom       finite 8.0
      basis_dep_cutoff    1d-4  # 1d-4 is safe default - please check 5d-4 if you wish!
      logarithmic         0.00010000 100.00  1.0123
      radial_base         36 7.0
      radial_multiplier   2
       angular_grids specified
        division   0.4087  110
        division   0.5181  194
        division   0.6184  302
  #      division   0.7315  434
  #      division   0.7934  590
  #      division   0.9656  770
  #      division   1.4041  974
  #      outer_grid 974
        outer_grid 302
  ################################################################################
  #
  #  Definition of "minimal" basis
  #
  ################################################################################
  #     valence basis states
      valence      2  s   2.
      valence      2  p   4.
  #     ion occupancy
      ion_occ      2  s   1.
      ion_occ      2  p   3.
  ################################################################################
  #
  #  Suggested additional basis functions. For production calculations,
  #  uncomment them one after another (the most important basis functions are
  #  listed first).
  #
  ################################################################################
  #  "First tier" - improvements: -699.05 meV to -159.38 meV
       hydro 2 p 1.8
       hydro 3 d 7.6
       hydro 3 s 6.4
  #  "Second tier" - improvements: -49.91 meV to -5.39 meV
       hydro 4 f 11.6
       hydro 3 p 6.2
       hydro 3 d 5.6
       hydro 5 g 17.6
       hydro 1 s 0.75
  #  "Third tier" - improvements: -2.83 meV to -0.50 meV
  #     ionic 2 p auto
  #     hydro 4 f 10.8
  #     hydro 4 d 4.7
  #     hydro 2 s 6.8
  #  "Fourth tier" - improvements: -0.40 meV to -0.12 meV
  #     hydro 3 p 5
  #     hydro 3 s 3.3
  #     hydro 5 g 15.6
  #     hydro 4 f 17.6
  #     hydro 4 d 14
  # Further basis functions - -0.08 meV and below
  #     hydro 3 s 2.1
  #     hydro 4 d 11.6
  #     hydro 3 p 16
  #     hydro 2 s 17.2
  
  
  -----------------------------------------------------------------------
  Completed first pass over input file control.in .
  -----------------------------------------------------------------------
  
  
  -----------------------------------------------------------------------
  Parsing geometry.in (first pass over file, find array dimensions only).
  The contents of geometry.in will be repeated verbatim below
  unless switched off by setting 'verbatim_writeout .false.' .
  in the first line of geometry.in .
  -----------------------------------------------------------------------
  
  atom      -4.053030000      0.065001000     -1.525160000  O
  atom      -4.566710000      0.974813000     -1.912820000  H
  atom      -3.067820000      0.330172000     -1.477310000  H
  atom      -4.581760000     -0.256435000      0.939478000  O
  atom      -4.349860000      0.471090000      1.504340000  H
  atom      -5.393870000     -0.726611000      1.228070000  H
  atom      -5.293160000      2.192130000     -2.328800000  O
  atom      -4.829300000      2.988660000     -1.973850000  H
  atom      -5.428570000      2.328640000     -3.235170000  H
  atom      -4.066610000      4.258280000     -0.900064000  O
  atom      -3.224110000      3.876870000     -0.569443000  H
  atom      -3.737450000      5.116530000     -1.322720000  H
  atom      -5.628340000      3.730740000      1.385610000  O
  atom      -6.090650000      4.418470000      1.860350000  H
  atom      -5.158540000      4.200260000      0.615875000  H
  
  -----------------------------------------------------------------------
  Completed first pass over input file geometry.in .
  -----------------------------------------------------------------------
  
 
  Basic array size parameters: 
  | Number of species                 :        2
  | Number of atoms                   :       15
  | Max. basis fn. angular momentum   :        4
  | Max. atomic/ionic basis occupied n:        2
  | Max. number of basis fn. types    :        2
  | Max. radial fns per species/type  :        8
  | Max. logarithmic grid size        :     1301
  | Max. radial integration grid size :       73
  | Max. angular integration grid size:      302
  | Max. angular grid division number :        8
  | Radial grid for Hartree potential :     1301
  | Number of spin channels           :        1

------------------------------------------------------------
          Reading file control.in.
------------------------------------------------------------
  XC: Using RPBE gradient-corrected functionals.
  Spin treatment: No spin polarisation.
  Scalar relativistic treatment of kinetic energy: on-site free-atom approximation to ZORA.
  Charge =   0.000000E+00: Neutral system requested explicitly.
  Using non-empirical van der Waals correction (Hirshfeld partitioning):
  Occupation type: Gaussian broadening, width =   0.100000E-01 eV.
  Using pulay charge density mixing.
  Pulay mixing - number of memorized iterations:   10
  Charge density mixing - mixing parameter:     0.1000
  Convergence accuracy of self-consistent charge density: 0.5000E-04
  Convergence accuracy of sum of eigenvalues: 0.5000E-02
  Convergence accuracy of total energy: 0.5000E-05
  Maximum number of s.-c. iterations  :  3000
  Kohn-Sham eigenvalues and eigenfunctions calculated by lapack diagonalisation (D&C).
  Number of empty states per atom:        8
  Threshold for basis singularities: 0.0000E+00
  Partition function in integrals calculations: rho / r^2
 Using packed matrix format           0
  Convergence accuracy of forces: 0.5000E-03
  Cleaning forces before final output.
  Hirshfeld charge analysis will be performed.
 
  Reading configuration options for species H                   .
  | Found nuclear charge :   1.0000
  | Found cutoff potl. onset [A], width [A], scale factor :    4.00000    2.00000    1.00000
  | Found cutoff specification for free atom: Cutoff potential begins at    8.00000 A.
  | Found logarithmic grid data [bohr] : 0.1000E-03 0.1000E+03 0.1012E+01
  | Threshold for basis-dependent cutoff potential is   0.100000E-03
  | Found data for basic radial integration grid :    24 points, outermost radius =    7.000 A
  | Found multiplier for basic radial grid :   2
  | Found angular grid specification: user-specified.
  | Specified grid contains     4 separate shells.
  | Check grid settings after all constraints further below.
  | Found l_max for Hartree potential  :   4
  | Found free-atom valence shell :  1 s   1.000
  | No ionic wave fns used. Skipping ion_occ.
  | Found hydrogenic basis function :  2 s   2.100
  | Found hydrogenic basis function :  2 p   3.500
  | Found hydrogenic basis function :  1 s   0.850
  | Found hydrogenic basis function :  2 p   3.700
  | Found hydrogenic basis function :  2 s   1.200
  | Found hydrogenic basis function :  3 d   7.000
  Species H                   : Missing cutoff potential type.
  Defaulting to exp(1/x)/(1-x)^2 type cutoff potential.
  Species H : On-site basis accuracy parameter (for Gram-Schmidt orthonormalisation) not specified.
  Using default value basis_acc =  0.1000000E-03.
  Species H                   : Using default innermost maximum threshold i_radial=  2 for radial functions.
  Species H                   : Basic radial grid will be enhanced according to radial_multiplier =   2, to contain    49 grid points.
 
  Reading configuration options for species O                   .
  | Found nuclear charge :   8.0000
  | Found atomic mass :    15.9994000000000      amu
  | Found l_max for Hartree potential  :   4
  | Found cutoff potl. onset [A], width [A], scale factor :    4.00000    2.00000    1.00000
  | Found cutoff specification for free atom: Cutoff potential begins at    8.00000 A.
  | Threshold for basis-dependent cutoff potential is   0.100000E-03
  | Found logarithmic grid data [bohr] : 0.1000E-03 0.1000E+03 0.1012E+01
  | Found data for basic radial integration grid :    36 points, outermost radius =    7.000 A
  | Found multiplier for basic radial grid :   2
  | Found angular grid specification: user-specified.
  | Specified grid contains     4 separate shells.
  | Check grid settings after all constraints further below.
  | Found free-atom valence shell :  2 s   2.000
  | Found free-atom valence shell :  2 p   4.000
  | No ionic wave fns used. Skipping ion_occ.
  | No ionic wave fns used. Skipping ion_occ.
  | Found hydrogenic basis function :  2 p   1.800
  | Found hydrogenic basis function :  3 d   7.600
  | Found hydrogenic basis function :  3 s   6.400
  | Found hydrogenic basis function :  4 f  11.600
  | Found hydrogenic basis function :  3 p   6.200
  | Found hydrogenic basis function :  3 d   5.600
  | Found hydrogenic basis function :  5 g  17.600
  | Found hydrogenic basis function :  1 s   0.750
  Species O                   : Missing cutoff potential type.
  Defaulting to exp(1/x)/(1-x)^2 type cutoff potential.
  Species O : On-site basis accuracy parameter (for Gram-Schmidt orthonormalisation) not specified.
  Using default value basis_acc =  0.1000000E-03.
  Species O                   : Using default innermost maximum threshold i_radial=  2 for radial functions.
  Species O                   : Basic radial grid will be enhanced according to radial_multiplier =   2, to contain    73 grid points.
 
  Finished reading input file 'control.in'. Consistency checks are next.
 
  Target number of points in a grid batch is not set. Defaulting to  100
  Method for grid partitioning is not set. Defaulting to parallel hash+maxmin partitioning.
  Batch size limit is not set. Defaulting to    200
  By default, will store active basis functions for each batch.
  If in need of memory, prune_basis_once .false. can be used to disable this option.
  communication_type for Hartree potential was not specified.
  Defaulting to calc_hartree .
  Pulay mixer: Number of initial linear mixing iterations not set.
  Defaulting to    0 iterations.
  Work space size for distributed Hartree potential not set.
  Defaulting to   0.200000E+03 MB.
  Algorithm-dependent basis array size parameters:
  | n_max_pulay                         :       10
  Geometry relaxation not requested: no relaxation will be performed.
  Handling of forces: Unphysical translation and rotation will be removed from forces.
  No accuracy limit for integral partition fn. given. Defaulting to 0.1000E-14.
  No threshold value for u(r) in integrations given. Defaulting to 0.1000E-05.
  No accuracy for occupation numbers given. Defaulting to 0.1000E-07.
  No threshold value for occupation numbers given. Defaulting to 0.0000E+00.
  No accuracy for fermi level given. Defaulting to 0.1000E-19.
  Maximum # of iterations to find E_F not set. Defaulting to  200.
  Will not use alltoall communication since running on < 1024 CPUs.
  Partitioning for Hartree potential was not defined. Using partition_type for integrals.
  | Reporting present value of keyword multip_moments_threshold  :       0.10000000E-09
  | This value may affect high angular momentum components of the Hartree potential in periodic systems.
  No q(lm)/r^(l+1) cutoff set for long-range Hartree potential.
  | Using default value of  0.100000E-09 .
  | Verify using the multipole_threshold keyword.
  Defaulting to new monopole extrapolation.
  Density update method: Loop over occupied states selected for charge density update.
------------------------------------------------------------


------------------------------------------------------------
          Reading geometry description geometry.in.
------------------------------------------------------------
  Input structure read successfully.
  The structure contains       15 atoms,  and a total of         50.000 electrons.

  Input geometry:
  | No unit cell requested.
  | Atomic structure:
  |       Atom                x [A]            y [A]            z [A]
  |    1: Species O             -4.053030         0.065001        -1.525160
  |    2: Species H             -4.566710         0.974813        -1.912820
  |    3: Species H             -3.067820         0.330172        -1.477310
  |    4: Species O             -4.581760        -0.256435         0.939478
  |    5: Species H             -4.349860         0.471090         1.504340
  |    6: Species H             -5.393870        -0.726611         1.228070
  |    7: Species O             -5.293160         2.192130        -2.328800
  |    8: Species H             -4.829300         2.988660        -1.973850
  |    9: Species H             -5.428570         2.328640        -3.235170
  |   10: Species O             -4.066610         4.258280        -0.900064
  |   11: Species H             -3.224110         3.876870        -0.569443
  |   12: Species H             -3.737450         5.116530        -1.322720
  |   13: Species O             -5.628340         3.730740         1.385610
  |   14: Species H             -6.090650         4.418470         1.860350
  |   15: Species H             -5.158540         4.200260         0.615875
  |

  | The smallest distance between any two atoms is         0.92654057 AA.
  |
  | The first atom of this pair is atom number                      7 .
  | The second atom of this pair is atom number                     9 .

  Structure-dependent array size parameters: 
  | Maximum number of distinct radial functions  :       18
  | Maximum number of basis functions            :      345
  | Number of Kohn-Sham states (occupied + empty):       85
------------------------------------------------------------

------------------------------------------------------------
          Preparing all fixed parts of the calculation.
------------------------------------------------------------
  Determining machine precision:
    2.225073858507201E-308
  Setting up grids for atomic and cluster calculations.

  Creating wave function, potential, and density for free atoms.

  Species: H

  List of occupied orbitals and eigenvalues:
    n    l              occ      energy [Ha]    energy [eV]
    1    0           1.0000        -0.241408        -6.5691


  Species: O

  List of occupied orbitals and eigenvalues:
    n    l              occ      energy [Ha]    energy [eV]
    1    0           2.0000       -18.944147      -515.4965
    2    0           2.0000        -0.883529       -24.0421
    2    1           4.0000        -0.330176        -8.9845

  Creating fixed part of basis set: Ionic, confined, hydrogenic.
 
  H                    hydrogenic:
 
  List of hydrogenic basis orbitals: 
    n    l      effective z      eigenvalue [eV]  inner max. [A]     outer max. [A]     outer radius [A]   
    2    0         2.100000       -14.9965           0.193241           1.317192           5.372934
    2    1         3.500000       -41.6672           0.602363           0.602363           4.056010
    1    0         0.850000        -9.8292           0.624864           0.624864           5.372934
    2    1         3.700000       -46.5653           0.573616           0.573616           3.909951
    2    0         1.200000        -4.5995           0.334977           2.228160           5.505921
    3    2         7.000000       -74.0753           0.680692           0.680692           3.769152
 
 
  O                    hydrogenic:
 
  List of hydrogenic basis orbitals: 
    n    l      effective z      eigenvalue [eV]  inner max. [A]     outer max. [A]     outer radius [A]   
    2    1         1.800000       -11.0118           1.178546           1.178546           5.432516
    3    2         7.600000       -87.3182           0.624117           0.624117           3.541422
    3    0         6.400000       -61.9209           0.061166           1.081887           4.306510
    4    3        11.600000      -114.4238           0.731621           0.731621           3.584982
    3    1         6.200000       -58.1113           0.255677           1.030255           4.306510
    3    2         5.600000       -47.4081           0.847222           0.847222           4.413102
    5    4        17.600000      -168.5799           0.749730           0.749730           3.372413
    1    0         0.750000        -7.6499           0.705275           0.705275           5.366508
 

  Adding cutoff potential to free-atom effective potential.
  Creating atomic-like basis functions for current effective potential.

  Species H                   :

  List of atomic basis orbitals and eigenvalues:
    n    l      energy [Ha]    energy [eV]    outer radius [A]
    1    0        -0.241374        -6.5681       5.372934


  Species O                   :

  List of atomic basis orbitals and eigenvalues:
    n    l      energy [Ha]    energy [eV]    outer radius [A]
    1    0       -18.944147      -515.4965       1.415745
    2    0        -0.883529       -24.0421       5.048305
    2    1        -0.330173        -8.9845       5.301302

  Assembling full basis from fixed parts.
  | Species H :   atomic orbital   1 s accepted.
  | Species H :    hydro orbital   2 s accepted.
  | Species H :    hydro orbital   1 s accepted.
  | Species H :    hydro orbital   2 s accepted.
  | Species H :    hydro orbital   2 p accepted.
  | Species H :    hydro orbital   2 p accepted.
  | Species H :    hydro orbital   3 d accepted.
  | Species O :   atomic orbital   1 s accepted.
  | Species O :    hydro orbital   3 s accepted.
  | Species O :   atomic orbital   2 s accepted.
  | Species O :    hydro orbital   1 s accepted.
  | Species O :    hydro orbital   3 p accepted.
  | Species O :   atomic orbital   2 p accepted.
  | Species O :    hydro orbital   2 p accepted.
  | Species O :    hydro orbital   3 d accepted.
  | Species O :    hydro orbital   3 d accepted.
  | Species O :    hydro orbital   4 f accepted.
  | Species O :    hydro orbital   5 g accepted.
 
  Basis size parameters after reduction:
  | Total number of radial functions:       18
  | Total number of basis functions :      345
 
  Testing on-site integration grid accuracy.
  |  Species  Function  <phi|h_atom|phi> (log., in eV)  <phi|h_atom|phi> (rad., in eV)
           1        1                 -6.5683835025                 -6.5684759159
           1        2                 13.3711789951                 13.3708738703
           1        3                 23.6590910787                 23.6532055418
           1        4                 16.2963827186                 16.1870710655 ***
           1        5                 28.7627214838                 28.7627215090
           1        6                 59.5965249172                 59.5965950857
           1        7                 60.2220506392                 60.2220503827
           2        8               -515.4964576505               -515.4964530710
           2        9                 15.3030791347                 15.3030722972
           2       10                -21.7296094581                -21.7296135470
           2       11                 14.2969371730                 14.2969701621
           2       12                 21.0679693190                 21.0679697493
           2       13                 -2.3833606469                 -2.3833613176
           2       14                 13.7067136422                 13.7066766629
           2       15                 45.8013116808                 45.8013116965
           2       16                 52.2309815402                 52.2309831494
           2       17                 85.4120732416                 85.4120732763
           2       18                142.1019167745                142.1019167817
 * Note: Onsite integrals marked "***" above are less accurate than
 * onsite_accuracy_threshold =    0.03000 eV. Usually, this is harmless.
 * When in doubt, tighten the "radial" and/or "radial_multiplier" flags to check.

  Preparing densities etc. for the partition functions (integrals / Hartree potential).

  Preparations completed.
  max(cpu_time)          :      0.171 s.
  Wall clock time (cpu1) :      0.666 s.
------------------------------------------------------------

------------------------------------------------------------
          Begin self-consistency loop: Initialization.

          Date     :  20150727, Time     :  115453.404
------------------------------------------------------------

  Initializing index lists of integration centers etc. from given atomic structure:
  | Number of centers in hartree potential         :        15
  | Number of centers in hartree multipole         :        15
  | Number of centers in electron density summation:        15
  | Number of centers in basis integrals           :        15
  | Number of centers in integrals                 :        15
  Partitioning the integration grid into batches with parallel hashing+maxmin method.
  | Number of batches:     1942
  | Maximal batch size:     192
  | Minimal batch size:      50
  | Average batch size:     101.292
  | Standard deviation of batch sizes:      29.680

  Integration load balanced across     8 MPI tasks.
  Work distribution over tasks is as follows:
  Task     0 has      24614 integration points.
  Task     1 has      24587 integration points.
  Task     2 has      24558 integration points.
  Task     3 has      24571 integration points.
  Task     4 has      24604 integration points.
  Task     5 has      24564 integration points.
  Task     6 has      24587 integration points.
  Task     7 has      24625 integration points.
  Initializing partition tables, free-atom densities, potentials, etc. across the integration grid (initialize_grid_storage).
  | Net number of integration points:   196710
  | of which are non-zero points    :   196160
  Obtaining max. number of non-zero basis functions in each batch (get_n_compute_maxes).
  | Maximal number of non-zero basis functions:      342 in task     0
  | Maximal number of non-zero basis functions:      341 in task     1
  | Maximal number of non-zero basis functions:      342 in task     2
  | Maximal number of non-zero basis functions:      342 in task     3
  | Maximal number of non-zero basis functions:      341 in task     4
  | Maximal number of non-zero basis functions:      342 in task     5
  | Maximal number of non-zero basis functions:      342 in task     6
  | Maximal number of non-zero basis functions:      342 in task     7
  Integrating Hamiltonian matrix: batch-based integration.
  Time summed over all CPUs for integration: real work        7.059 s, elapsed        7.193 s
  Integrating overlap matrix.
  Time summed over all CPUs for integration: real work        3.771 s, elapsed        3.830 s

  Updating Kohn-Sham eigenvalues, eigenvectors, occupation numbers, and Fermi level.
  Solving generalized eigenproblem
  Updating Kohn-Sham eigenvalues and eigenfunctions.
  Transforming overlap matrix and checking for singularities.
  Overlap matrix is nonsingular:
  | Lowest eigenvalue:  0.299232E-03
  Solving real generalised eigenvalue problem by standard LAPACK (fast)
  Determining occupation numbers for Kohn-Sham eigenstates.
  | Chemical potential (Fermi level) in eV                 : -.39066643E+01
  | Error in electron count due to remaining E_F inaccuracy: 0.00000000E+00
  | Maximum occupation number of highest empty state:  0.00E+00

  Writing Kohn-Sham eigenvalues.

  State    Occupation    Eigenvalue [Ha]    Eigenvalue [eV]
      1       2.00000         -19.064907         -518.78253
      2       2.00000         -19.051936         -518.42956
      3       2.00000         -19.045333         -518.24989
      4       2.00000         -19.044622         -518.23053
      5       2.00000         -19.019667         -517.55148
      6       2.00000          -1.122195          -30.53648
      7       2.00000          -1.098510          -29.89199
      8       2.00000          -1.093677          -29.76046
      9       2.00000          -1.086091          -29.55404
     10       2.00000          -1.043467          -28.39419
     11       2.00000          -0.653477          -17.78200
     12       2.00000          -0.644503          -17.53781
     13       2.00000          -0.623466          -16.96537
     14       2.00000          -0.607181          -16.52225
     15       2.00000          -0.597230          -16.25144
     16       2.00000          -0.529086          -14.39716
     17       2.00000          -0.516633          -14.05830
     18       2.00000          -0.504205          -13.72012
     19       2.00000          -0.498870          -13.57494
     20       2.00000          -0.479647          -13.05186
     21       2.00000          -0.440996          -12.00010
     22       2.00000          -0.439162          -11.95020
     23       2.00000          -0.438439          -11.93053
     24       2.00000          -0.430062          -11.70259
     25       2.00000          -0.402629          -10.95609
     26       0.00000          -0.095293           -2.59305
     27       0.00000          -0.065459           -1.78123
     28       0.00000          -0.055821           -1.51897
     29       0.00000          -0.039500           -1.07485
     30       0.00000          -0.035025           -0.95307
     31       0.00000          -0.008593           -0.23381
     32       0.00000           0.006471            0.17608
     33       0.00000           0.031047            0.84482
     34       0.00000           0.042784            1.16422
     35       0.00000           0.044147            1.20130
     36       0.00000           0.076716            2.08755
     37       0.00000           0.082369            2.24138
     38       0.00000           0.089795            2.44344
     39       0.00000           0.094658            2.57577
     40       0.00000           0.098484            2.67987
     41       0.00000           0.104085            2.83231
     42       0.00000           0.115587            3.14527
     43       0.00000           0.119359            3.24793
     44       0.00000           0.127474            3.46873
     45       0.00000           0.135257            3.68054
     46       0.00000           0.139610            3.79897
     47       0.00000           0.146673            3.99118
     48       0.00000           0.154041            4.19168
     49       0.00000           0.167991            4.57126
     50       0.00000           0.189982            5.16968
     51       0.00000           0.207379            5.64307
     52       0.00000           0.213415            5.80731
     53       0.00000           0.222456            6.05333
     54       0.00000           0.233626            6.35729
     55       0.00000           0.251241            6.83662
     56       0.00000           0.267665            7.28355
     57       0.00000           0.281997            7.67352
     58       0.00000           0.291204            7.92406
     59       0.00000           0.299886            8.16030
     60       0.00000           0.327395            8.90888
     61       0.00000           0.332961            9.06032
     62       0.00000           0.354389            9.64342
     63       0.00000           0.361496            9.83680
     64       0.00000           0.375014           10.20465
     65       0.00000           0.383685           10.44059
     66       0.00000           0.403439           10.97813
     67       0.00000           0.422407           11.49429
     68       0.00000           0.430516           11.71493
     69       0.00000           0.433385           11.79299
     70       0.00000           0.446138           12.14003
     71       0.00000           0.454323           12.36276
     72       0.00000           0.481579           13.10442
     73       0.00000           0.490006           13.33375
     74       0.00000           0.499882           13.60249
     75       0.00000           0.522484           14.21750
     76       0.00000           0.538580           14.65549
     77       0.00000           0.559637           15.22850
     78       0.00000           0.571590           15.55375
     79       0.00000           0.581370           15.81988
     80       0.00000           0.587846           15.99611
     81       0.00000           0.605416           16.47421
     82       0.00000           0.672669           18.30427
     83       0.00000           0.685567           18.65522
     84       0.00000           0.708936           19.29114
     85       0.00000           0.732898           19.94317

  Highest occupied state (VBM) at    -10.95608509 eV
  | Occupation number:      2.00000000

  Lowest unoccupied state (CBM) at    -2.59305069 eV
  | Occupation number:      0.00000000

  Overall HOMO-LUMO gap:      8.36303440 eV.
  Calculating total energy contributions from superposition of free atom densities.

  Total energy components:
  | Sum of eigenvalues            :        -216.95198222 Ha       -5903.56380622 eV
  | XC energy correction          :         -45.56721527 Ha       -1239.94701524 eV
  | XC potential correction       :          58.22454613 Ha        1584.37051217 eV
  | Free-atom electrostatic energy:        -178.79378492 Ha       -4865.22642776 eV
  | Hartree energy correction     :           0.00000000 Ha           0.00000000 eV
  | van der Waals energy corr.    :           0.00000000 Ha           0.00000000 eV
  | Entropy correction            :           0.00000000 Ha           0.00000000 eV
  | ---------------------------
  | Total energy                  :        -383.08843628 Ha      -10424.36673706 eV
  | Total energy, T -> 0          :        -383.08843628 Ha      -10424.36673706 eV  <-- do not rely on this value for anything but (periodic) metals
  | Electronic free energy        :        -383.08843628 Ha      -10424.36673706 eV

  Derived energy quantities:
  | Kinetic energy                :         379.13956407 Ha       10316.91245701 eV
  | Electrostatic energy          :        -716.66078508 Ha      -19501.33217882 eV
  | Energy correction for multipole
  | error in Hartree potential    :           0.00000000 Ha           0.00000000 eV
  | Sum of eigenvalues per atom                           :        -393.57092041 eV
  | Total energy (T->0) per atom                          :        -694.95778247 eV  <-- do not rely on this value for anything but (periodic) metals
  | Electronic free energy per atom                       :        -694.95778247 eV
  Initialize hartree_potential_storage
  Max. number of atoms included in rho_multipole:           15

  End scf initialization - timings             :  max(cpu_time)    wall_clock(cpu1)
  | Time for scf. initialization               :        1.926 s           1.926 s
  | Boundary condition initialization          :        0.000 s           0.000 s
  | Integration                                :        1.382 s           1.381 s
  | Solution of K.-S. eqns.                    :        0.198 s           0.198 s
  | Grid partitioning                          :        0.132 s           0.132 s
  | Preloading free-atom quantities on grid    :        0.013 s           0.013 s
  | Free-atom superposition energy             :        0.065 s           0.065 s
  | Total energy evaluation                    :        0.001 s           0.000 s
------------------------------------------------------------

------------------------------------------------------------
          Begin self-consistency iteration #    1

  Date     :  20150727, Time     :  115455.330
------------------------------------------------------------
  Evaluating new KS density.
  Integration grid: deviation in total charge (<rho> - N_e) =   2.131628E-14
  Pulay mixing of updated and previous charge densities.

  Evaluating partitioned Hartree potential by multipole expansion.
  | Analytical far-field extrapolation by fixed multipoles:
  | Hartree multipole sum: apparent total charge =  -0.182533E-05
  Summing up the Hartree potential.
  Time summed over all CPUs for potential: real work        2.566 s, elapsed        2.575 s
  | RMS charge density error from multipole expansion :   0.164452E-02

  Integrating Hamiltonian matrix: batch-based integration.
  Time summed over all CPUs for integration: real work        7.046 s, elapsed        7.149 s

  Updating Kohn-Sham eigenvalues, eigenvectors, occupation numbers, and Fermi level.
  Solving generalized eigenproblem
  Updating Kohn-Sham eigenvalues and eigenfunctions.
  Solving real generalised eigenvalue problem by standard LAPACK (fast)
  Determining occupation numbers for Kohn-Sham eigenstates.
  | Chemical potential (Fermi level) in eV                 : -.35353427E+01
  | Error in electron count due to remaining E_F inaccuracy: 0.00000000E+00
  | Maximum occupation number of highest empty state:  0.00E+00

  Writing Kohn-Sham eigenvalues.

  State    Occupation    Eigenvalue [Ha]    Eigenvalue [eV]
      1       2.00000         -18.992980         -516.82528
      2       2.00000         -18.986054         -516.63681
      3       2.00000         -18.963561         -516.02475
      4       2.00000         -18.963281         -516.01713
      5       2.00000         -18.928571         -515.07262
      6       2.00000          -1.087323          -29.58757
      7       2.00000          -1.065302          -28.98835
      8       2.00000          -1.051673          -28.61747
      9       2.00000          -1.047426          -28.50192
     10       2.00000          -0.992914          -27.01857
     11       2.00000          -0.623108          -16.95562
     12       2.00000          -0.603704          -16.42763
     13       2.00000          -0.592092          -16.11165
     14       2.00000          -0.582561          -15.85230
     15       2.00000          -0.558845          -15.20694
     16       2.00000          -0.494692          -13.46125
     17       2.00000          -0.480891          -13.08572
     18       2.00000          -0.460537          -12.53186
     19       2.00000          -0.456023          -12.40903
     20       2.00000          -0.437243          -11.89798
     21       2.00000          -0.410237          -11.16311
     22       2.00000          -0.395808          -10.77047
     23       2.00000          -0.389556          -10.60035
     24       2.00000          -0.387219          -10.53678
     25       2.00000          -0.349569           -9.51226
     26       0.00000          -0.088782           -2.41589
     27       0.00000          -0.055106           -1.49951
     28       0.00000          -0.046080           -1.25391
     29       0.00000          -0.033223           -0.90403
     30       0.00000          -0.025597           -0.69654
     31       0.00000          -0.001594           -0.04338
     32       0.00000           0.014819            0.40326
     33       0.00000           0.040712            1.10783
     34       0.00000           0.049971            1.35977
     35       0.00000           0.054782            1.49068
     36       0.00000           0.087971            2.39381
     37       0.00000           0.093897            2.55507
     38       0.00000           0.101660            2.76631
     39       0.00000           0.103698            2.82176
     40       0.00000           0.109468            2.97878
     41       0.00000           0.120153            3.26953
     42       0.00000           0.126610            3.44524
     43       0.00000           0.128637            3.50038
     44       0.00000           0.138476            3.76812
     45       0.00000           0.145802            3.96748
     46       0.00000           0.147696            4.01902
     47       0.00000           0.156224            4.25107
     48       0.00000           0.167016            4.54472
     49       0.00000           0.177897            4.84084
     50       0.00000           0.202357            5.50641
     51       0.00000           0.219277            5.96684
     52       0.00000           0.222309            6.04934
     53       0.00000           0.231089            6.28825
     54       0.00000           0.245880            6.69073
     55       0.00000           0.259345            7.05713
     56       0.00000           0.277269            7.54488
     57       0.00000           0.293723            7.99262
     58       0.00000           0.299241            8.14278
     59       0.00000           0.312084            8.49224
     60       0.00000           0.337167            9.17478
     61       0.00000           0.345225            9.39404
     62       0.00000           0.362180            9.85541
     63       0.00000           0.370605           10.08468
     64       0.00000           0.384453           10.46151
     65       0.00000           0.392551           10.68186
     66       0.00000           0.413459           11.25079
     67       0.00000           0.434427           11.82136
     68       0.00000           0.442077           12.02952
     69       0.00000           0.443943           12.08029
     70       0.00000           0.456955           12.43438
     71       0.00000           0.461190           12.54961
     72       0.00000           0.491424           13.37232
     73       0.00000           0.502383           13.67053
     74       0.00000           0.512062           13.93391
     75       0.00000           0.535981           14.58478
     76       0.00000           0.552046           15.02193
     77       0.00000           0.573620           15.60899
     78       0.00000           0.588653           16.01806
     79       0.00000           0.594160           16.16792
     80       0.00000           0.601386           16.36453
     81       0.00000           0.618599           16.83293
     82       0.00000           0.688362           18.73128
     83       0.00000           0.697140           18.97016
     84       0.00000           0.724181           19.70596
     85       0.00000           0.743844           20.24103

  Highest occupied state (VBM) at     -9.51225821 eV
  | Occupation number:      2.00000000

  Lowest unoccupied state (CBM) at    -2.41589017 eV
  | Occupation number:      0.00000000

  Overall HOMO-LUMO gap:      7.09636805 eV.

  Total energy components:
  | Sum of eigenvalues            :        -214.60234105 Ha       -5839.62681686 eV
  | XC energy correction          :         -45.81216017 Ha       -1246.61230504 eV
  | XC potential correction       :          58.54506361 Ha        1593.09223653 eV
  | Free-atom electrostatic energy:        -178.79378492 Ha       -4865.22642776 eV
  | Hartree energy correction     :          -2.27352839 Ha         -61.86585509 eV
  | van der Waals energy corr.    :           0.00000000 Ha           0.00000000 eV
  | Entropy correction            :           0.00000000 Ha           0.00000000 eV
  | ---------------------------
  | Total energy                  :        -382.93675091 Ha      -10420.23916822 eV
  | Total energy, T -> 0          :        -382.93675091 Ha      -10420.23916822 eV  <-- do not rely on this value for anything but (periodic) metals
  | Electronic free energy        :        -382.93675091 Ha      -10420.23916822 eV

  Derived energy quantities:
  | Kinetic energy                :         380.60130779 Ha       10356.68852754 eV
  | Electrostatic energy          :        -717.72589854 Ha      -19530.31539072 eV
  | Energy correction for multipole
  | error in Hartree potential    :          -0.00002461 Ha          -0.00066959 eV
  | Sum of eigenvalues per atom                           :        -389.30845446 eV
  | Total energy (T->0) per atom                          :        -694.68261121 eV  <-- do not rely on this value for anything but (periodic) metals
  | Electronic free energy per atom                       :        -694.68261121 eV

  Self-consistency convergence accuracy:
  | Change of charge density      : 0.6702E+00
  | Change of sum of eigenvalues  : 0.6394E+02 eV
  | Change of total energy        : 0.4128E+01 eV

  End self-consistency iteration #     1       :  max(cpu_time)    wall_clock(cpu1)
  | Time for this iteration                    :        1.913 s           1.912 s
  | Charge density update                      :        0.632 s           0.631 s
  | Density mixing                             :        0.003 s           0.003 s
  | Hartree multipole update                   :        0.005 s           0.005 s
  | Hartree multipole summation                :        0.323 s           0.324 s
  | Integration                                :        0.896 s           0.895 s
  | Solution of K.-S. eqns.                    :        0.053 s           0.053 s
  | Total energy evaluation                    :        0.000 s           0.000 s
------------------------------------------------------------

------------------------------------------------------------
          Begin self-consistency iteration #    2

  Date     :  20150727, Time     :  115457.242
------------------------------------------------------------
  Evaluating new KS density.
  Integration grid: deviation in total charge (<rho> - N_e) =   0.000000E+00
  Pulay mixing of updated and previous charge densities.

  Evaluating partitioned Hartree potential by multipole expansion.
  | Analytical far-field extrapolation by fixed multipoles:
  | Hartree multipole sum: apparent total charge =  -0.510844E-05
  Summing up the Hartree potential.
  Time summed over all CPUs for potential: real work        2.566 s, elapsed        2.575 s
  | RMS charge density error from multipole expansion :   0.658851E-02

  Integrating Hamiltonian matrix: batch-based integration.
  Time summed over all CPUs for integration: real work        7.029 s, elapsed        7.146 s

  Updating Kohn-Sham eigenvalues, eigenvectors, occupation numbers, and Fermi level.
  Solving generalized eigenproblem
  Updating Kohn-Sham eigenvalues and eigenfunctions.
  Solving real generalised eigenvalue problem by standard LAPACK (fast)
  Determining occupation numbers for Kohn-Sham eigenstates.
  | Chemical potential (Fermi level) in eV                 : -.26721081E+01
  | Error in electron count due to remaining E_F inaccuracy: 0.00000000E+00
  | Maximum occupation number of highest empty state:  0.00E+00

  Highest occupied state (VBM) at     -6.05651376 eV
  | Occupation number:      2.00000000

  Lowest unoccupied state (CBM) at    -2.11684975 eV
  | Occupation number:      0.00000000

  Overall HOMO-LUMO gap:      3.93966401 eV.

  Total energy components:
  | Sum of eigenvalues            :        -209.03176235 Ha       -5688.04365798 eV
  | XC energy correction          :         -46.41779568 Ha       -1263.09248585 eV
  | XC potential correction       :          59.33688095 Ha        1614.63868255 eV
  | Free-atom electrostatic energy:        -178.79378492 Ha       -4865.22642776 eV
  | Hartree energy correction     :          -7.85256552 Ha        -213.67917975 eV
  | van der Waals energy corr.    :           0.00000000 Ha           0.00000000 eV
  | Entropy correction            :           0.00000000 Ha           0.00000000 eV
  | ---------------------------
  | Total energy                  :        -382.75902752 Ha      -10415.40306879 eV
  | Total energy, T -> 0          :        -382.75902752 Ha      -10415.40306879 eV  <-- do not rely on this value for anything but (periodic) metals
  | Electronic free energy        :        -382.75902752 Ha      -10415.40306879 eV

  Derived energy quantities:
  | Kinetic energy                :         383.54482102 Ha       10436.78559782 eV
  | Electrostatic energy          :        -719.88605287 Ha      -19589.09618075 eV
  | Energy correction for multipole
  | error in Hartree potential    :          -0.00084954 Ha          -0.02311706 eV
  | Sum of eigenvalues per atom                           :        -379.20291053 eV
  | Total energy (T->0) per atom                          :        -694.36020459 eV  <-- do not rely on this value for anything but (periodic) metals
  | Electronic free energy per atom                       :        -694.36020459 eV

  Self-consistency convergence accuracy:
  | Change of charge density      : 0.5069E+00
  | Change of sum of eigenvalues  : 0.1516E+03 eV
  | Change of total energy        : 0.4836E+01 eV

  End self-consistency iteration #     2       :  max(cpu_time)    wall_clock(cpu1)
  | Time for this iteration                    :        1.910 s           1.910 s
  | Charge density update                      :        0.628 s           0.628 s
  | Density mixing                             :        0.005 s           0.005 s
  | Hartree multipole update                   :        0.005 s           0.004 s
  | Hartree multipole summation                :        0.323 s           0.323 s
  | Integration                                :        0.895 s           0.895 s
  | Solution of K.-S. eqns.                    :        0.054 s           0.054 s
  | Total energy evaluation                    :        0.000 s           0.000 s
------------------------------------------------------------

------------------------------------------------------------
          Begin self-consistency iteration #    3

  Date     :  20150727, Time     :  115459.152
------------------------------------------------------------
  Evaluating new KS density.
  Integration grid: deviation in total charge (<rho> - N_e) =  -1.421085E-14
  Pulay mixing of updated and previous charge densities.

  Evaluating partitioned Hartree potential by multipole expansion.
  | Analytical far-field extrapolation by fixed multipoles:
  | Hartree multipole sum: apparent total charge =  -0.439825E-05
  Summing up the Hartree potential.
  Time summed over all CPUs for potential: real work        2.566 s, elapsed        2.575 s
  | RMS charge density error from multipole expansion :   0.132441E-01

  Integrating Hamiltonian matrix: batch-based integration.
  Time summed over all CPUs for integration: real work        7.033 s, elapsed        7.141 s

  Updating Kohn-Sham eigenvalues, eigenvectors, occupation numbers, and Fermi level.
  Solving generalized eigenproblem
  Updating Kohn-Sham eigenvalues and eigenfunctions.
  Solving real generalised eigenvalue problem by standard LAPACK (fast)
  Determining occupation numbers for Kohn-Sham eigenstates.
  | Chemical potential (Fermi level) in eV                 : -.25515002E+01
  | Error in electron count due to remaining E_F inaccuracy: 0.00000000E+00
  | Maximum occupation number of highest empty state:  0.00E+00

  Highest occupied state (VBM) at     -5.86571823 eV
  | Occupation number:      2.00000000

  Lowest unoccupied state (CBM) at    -2.17117642 eV
  | Occupation number:      0.00000000

  Overall HOMO-LUMO gap:      3.69454180 eV.

  Total energy components:
  | Sum of eigenvalues            :        -209.23003606 Ha       -5693.43896031 eV
  | XC energy correction          :         -46.38949271 Ha       -1262.32232295 eV
  | XC potential correction       :          59.29487916 Ha        1613.49575558 eV
  | Free-atom electrostatic energy:        -178.79378492 Ha       -4865.22642776 eV
  | Hartree energy correction     :          -7.63431648 Ha        -207.74032122 eV
  | van der Waals energy corr.    :           0.00000000 Ha           0.00000000 eV
  | Entropy correction            :           0.00000000 Ha           0.00000000 eV
  | ---------------------------
  | Total energy                  :        -382.75275103 Ha      -10415.23227667 eV
  | Total energy, T -> 0          :        -382.75275103 Ha      -10415.23227667 eV  <-- do not rely on this value for anything but (periodic) metals
  | Electronic free energy        :        -382.75275103 Ha      -10415.23227667 eV

  Derived energy quantities:
  | Kinetic energy                :         381.48550025 Ha       10380.74862837 eV
  | Electrostatic energy          :        -717.84875856 Ha      -19533.65858209 eV
  | Energy correction for multipole
  | error in Hartree potential    :          -0.00497220 Ha          -0.13530041 eV
  | Sum of eigenvalues per atom                           :        -379.56259735 eV
  | Total energy (T->0) per atom                          :        -694.34881844 eV  <-- do not rely on this value for anything but (periodic) metals
  | Electronic free energy per atom                       :        -694.34881844 eV

  Self-consistency convergence accuracy:
  | Change of charge density      : 0.2531E+00
  | Change of sum of eigenvalues  : -.5395E+01 eV
  | Change of total energy        : 0.1708E+00 eV

  End self-consistency iteration #     3       :  max(cpu_time)    wall_clock(cpu1)
  | Time for this iteration                    :        1.905 s           1.904 s
  | Charge density update                      :        0.622 s           0.622 s
  | Density mixing                             :        0.007 s           0.007 s
  | Hartree multipole update                   :        0.005 s           0.005 s
  | Hartree multipole summation                :        0.322 s           0.322 s
  | Integration                                :        0.895 s           0.895 s
  | Solution of K.-S. eqns.                    :        0.053 s           0.053 s
  | Total energy evaluation                    :        0.000 s           0.000 s
------------------------------------------------------------

------------------------------------------------------------
          Begin self-consistency iteration #    4

  Date     :  20150727, Time     :  115501.056
------------------------------------------------------------
  Evaluating new KS density.
  Integration grid: deviation in total charge (<rho> - N_e) =   2.842171E-14
  Pulay mixing of updated and previous charge densities.

  Evaluating partitioned Hartree potential by multipole expansion.
  | Analytical far-field extrapolation by fixed multipoles:
  | Hartree multipole sum: apparent total charge =  -0.514155E-05
  Summing up the Hartree potential.
  Time summed over all CPUs for potential: real work        2.578 s, elapsed        2.645 s
  | RMS charge density error from multipole expansion :   0.170352E-01

  Integrating Hamiltonian matrix: batch-based integration.
  Time summed over all CPUs for integration: real work        7.054 s, elapsed        7.257 s

  Updating Kohn-Sham eigenvalues, eigenvectors, occupation numbers, and Fermi level.
  Solving generalized eigenproblem
  Updating Kohn-Sham eigenvalues and eigenfunctions.
  Solving real generalised eigenvalue problem by standard LAPACK (fast)
  Determining occupation numbers for Kohn-Sham eigenstates.
  | Chemical potential (Fermi level) in eV                 : -.21873772E+01
  | Error in electron count due to remaining E_F inaccuracy: 0.00000000E+00
  | Maximum occupation number of highest empty state:  0.00E+00

  Highest occupied state (VBM) at     -4.68729069 eV
  | Occupation number:      2.00000000

  Lowest unoccupied state (CBM) at    -2.11680857 eV
  | Occupation number:      0.00000000

  Overall HOMO-LUMO gap:      2.57048212 eV.

  Total energy components:
  | Sum of eigenvalues            :        -207.56074540 Ha       -5648.01525017 eV
  | XC energy correction          :         -46.58812439 Ha       -1267.72736587 eV
  | XC potential correction       :          59.55369739 Ha        1620.53855813 eV
  | Free-atom electrostatic energy:        -178.79378492 Ha       -4865.22642776 eV
  | Hartree energy correction     :          -9.35094459 Ha        -254.45214862 eV
  | van der Waals energy corr.    :           0.00000000 Ha           0.00000000 eV
  | Entropy correction            :           0.00000000 Ha           0.00000000 eV
  | ---------------------------
  | Total energy                  :        -382.73990191 Ha      -10414.88263429 eV
  | Total energy, T -> 0          :        -382.73990191 Ha      -10414.88263429 eV  <-- do not rely on this value for anything but (periodic) metals
  | Electronic free energy        :        -382.73990191 Ha      -10414.88263429 eV

  Derived energy quantities:
  | Kinetic energy                :         381.68391402 Ha       10386.14774200 eV
  | Electrostatic energy          :        -717.83569154 Ha      -19533.30301042 eV
  | Energy correction for multipole
  | error in Hartree potential    :          -0.00669003 Ha          -0.18204502 eV
  | Sum of eigenvalues per atom                           :        -376.53435001 eV
  | Total energy (T->0) per atom                          :        -694.32550895 eV  <-- do not rely on this value for anything but (periodic) metals
  | Electronic free energy per atom                       :        -694.32550895 eV

  Self-consistency convergence accuracy:
  | Change of charge density      : 0.1416E+00
  | Change of sum of eigenvalues  : 0.4542E+02 eV
  | Change of total energy        : 0.3496E+00 eV

  End self-consistency iteration #     4       :  max(cpu_time)    wall_clock(cpu1)
  | Time for this iteration                    :        1.929 s           1.930 s
  | Charge density update                      :        0.622 s           0.622 s
  | Density mixing                             :        0.008 s           0.009 s
  | Hartree multipole update                   :        0.005 s           0.004 s
  | Hartree multipole summation                :        0.331 s           0.332 s
  | Integration                                :        0.909 s           0.909 s
  | Solution of K.-S. eqns.                    :        0.054 s           0.053 s
  | Total energy evaluation                    :        0.000 s           0.000 s
------------------------------------------------------------

------------------------------------------------------------
          Begin self-consistency iteration #    5

  Date     :  20150727, Time     :  115502.986
------------------------------------------------------------
  Evaluating new KS density.
  Integration grid: deviation in total charge (<rho> - N_e) =   7.105427E-15
  Pulay mixing of updated and previous charge densities.

  Evaluating partitioned Hartree potential by multipole expansion.
  | Analytical far-field extrapolation by fixed multipoles:
  | Hartree multipole sum: apparent total charge =  -0.509901E-05
  Summing up the Hartree potential.
  Time summed over all CPUs for potential: real work        2.565 s, elapsed        2.574 s
  | RMS charge density error from multipole expansion :   0.177851E-01

  Integrating Hamiltonian matrix: batch-based integration.
  Time summed over all CPUs for integration: real work        7.026 s, elapsed        7.147 s

  Updating Kohn-Sham eigenvalues, eigenvectors, occupation numbers, and Fermi level.
  Solving generalized eigenproblem
  Updating Kohn-Sham eigenvalues and eigenfunctions.
  Solving real generalised eigenvalue problem by standard LAPACK (fast)
  Determining occupation numbers for Kohn-Sham eigenstates.
  | Chemical potential (Fermi level) in eV                 : -.21465661E+01
  | Error in electron count due to remaining E_F inaccuracy: 0.19977762E-08
  | Maximum occupation number of highest empty state:  0.00E+00

  Highest occupied state (VBM) at     -4.44623451 eV
  | Occupation number:      2.00000000

  Lowest unoccupied state (CBM) at    -2.10415393 eV
  | Occupation number:      0.00000000

  Overall HOMO-LUMO gap:      2.34208058 eV.

  Total energy components:
  | Sum of eigenvalues            :        -207.38617933 Ha       -5643.26506580 eV
  | XC energy correction          :         -46.61287065 Ha       -1268.40074589 eV
  | XC potential correction       :          59.58552130 Ha        1621.40453084 eV
  | Free-atom electrostatic energy:        -178.79378492 Ha       -4865.22642776 eV
  | Hartree energy correction     :          -9.53233575 Ha        -259.38805319 eV
  | van der Waals energy corr.    :           0.00000000 Ha           0.00000000 eV
  | Entropy correction            :           0.00000000 Ha           0.00000000 eV
  | ---------------------------
  | Total energy                  :        -382.73964935 Ha      -10414.87576181 eV
  | Total energy, T -> 0          :        -382.73964935 Ha      -10414.87576181 eV  <-- do not rely on this value for anything but (periodic) metals
  | Electronic free energy        :        -382.73964935 Ha      -10414.87576181 eV

  Derived energy quantities:
  | Kinetic energy                :         381.72598149 Ha       10387.29245585 eV
  | Electrostatic energy          :        -717.85276018 Ha      -19533.76747176 eV
  | Energy correction for multipole
  | error in Hartree potential    :          -0.00693127 Ha          -0.18860947 eV
  | Sum of eigenvalues per atom                           :        -376.21767105 eV
  | Total energy (T->0) per atom                          :        -694.32505079 eV  <-- do not rely on this value for anything but (periodic) metals
  | Electronic free energy per atom                       :        -694.32505079 eV

  Self-consistency convergence accuracy:
  | Change of charge density      : 0.3405E-01
  | Change of sum of eigenvalues  : 0.4750E+01 eV
  | Change of total energy        : 0.6872E-02 eV

  End self-consistency iteration #     5       :  max(cpu_time)    wall_clock(cpu1)
  | Time for this iteration                    :        1.911 s           1.910 s
  | Charge density update                      :        0.622 s           0.621 s
  | Density mixing                             :        0.010 s           0.010 s
  | Hartree multipole update                   :        0.005 s           0.005 s
  | Hartree multipole summation                :        0.322 s           0.322 s
  | Integration                                :        0.895 s           0.896 s
  | Solution of K.-S. eqns.                    :        0.054 s           0.056 s
  | Total energy evaluation                    :        0.000 s           0.000 s
------------------------------------------------------------

------------------------------------------------------------
          Begin self-consistency iteration #    6

  Date     :  20150727, Time     :  115504.896
------------------------------------------------------------
  Evaluating new KS density.
  Integration grid: deviation in total charge (<rho> - N_e) =   1.997776E-09
  Pulay mixing of updated and previous charge densities.

  Evaluating partitioned Hartree potential by multipole expansion.
  | Analytical far-field extrapolation by fixed multipoles:
  | Hartree multipole sum: apparent total charge =  -0.508249E-05
  Summing up the Hartree potential.
  Time summed over all CPUs for potential: real work        2.565 s, elapsed        2.574 s
  | RMS charge density error from multipole expansion :   0.180260E-01

  Integrating Hamiltonian matrix: batch-based integration.
  Time summed over all CPUs for integration: real work        7.023 s, elapsed        7.110 s

  Updating Kohn-Sham eigenvalues, eigenvectors, occupation numbers, and Fermi level.
  Solving generalized eigenproblem
  Updating Kohn-Sham eigenvalues and eigenfunctions.
  Solving real generalised eigenvalue problem by standard LAPACK (fast)
  Determining occupation numbers for Kohn-Sham eigenstates.
  | Chemical potential (Fermi level) in eV                 : -.36191913E+01
  | Error in electron count due to remaining E_F inaccuracy: 0.00000000E+00
  | Maximum occupation number of highest empty state:  0.00E+00

  Highest occupied state (VBM) at     -4.41375444 eV
  | Occupation number:      2.00000000

  Lowest unoccupied state (CBM) at    -2.09956806 eV
  | Occupation number:      0.00000000

  Overall HOMO-LUMO gap:      2.31418638 eV.

  Total energy components:
  | Sum of eigenvalues            :        -207.33607968 Ha       -5641.90178495 eV
  | XC energy correction          :         -46.62006276 Ha       -1268.59645317 eV
  | XC potential correction       :          59.59474814 Ha        1621.65560592 eV
  | Free-atom electrostatic energy:        -178.79378492 Ha       -4865.22642776 eV
  | Hartree energy correction     :          -9.58454232 Ha        -260.80866620 eV
  | van der Waals energy corr.    :           0.00000000 Ha           0.00000000 eV
  | Entropy correction            :           0.00000000 Ha           0.00000000 eV
  | ---------------------------
  | Total energy                  :        -382.73972154 Ha      -10414.87772616 eV
  | Total energy, T -> 0          :        -382.73972154 Ha      -10414.87772616 eV  <-- do not rely on this value for anything but (periodic) metals
  | Electronic free energy        :        -382.73972154 Ha      -10414.87772616 eV

  Derived energy quantities:
  | Kinetic energy                :         381.73606980 Ha       10387.56697291 eV
  | Electrostatic energy          :        -717.85572858 Ha      -19533.84824590 eV
  | Energy correction for multipole
  | error in Hartree potential    :          -0.00700360 Ha          -0.19057770 eV
  | Sum of eigenvalues per atom                           :        -376.12678566 eV
  | Total energy (T->0) per atom                          :        -694.32518174 eV  <-- do not rely on this value for anything but (periodic) metals
  | Electronic free energy per atom                       :        -694.32518174 eV

  Self-consistency convergence accuracy:
  | Change of charge density      : 0.1087E-01
  | Change of sum of eigenvalues  : 0.1363E+01 eV
  | Change of total energy        : -.1964E-02 eV

  End self-consistency iteration #     6       :  max(cpu_time)    wall_clock(cpu1)
  | Time for this iteration                    :        1.879 s           1.878 s
  | Charge density update                      :        0.596 s           0.595 s
  | Density mixing                             :        0.011 s           0.011 s
  | Hartree multipole update                   :        0.005 s           0.005 s
  | Hartree multipole summation                :        0.323 s           0.323 s
  | Integration                                :        0.890 s           0.890 s
  | Solution of K.-S. eqns.                    :        0.053 s           0.054 s
  | Total energy evaluation                    :        0.000 s           0.000 s
------------------------------------------------------------

------------------------------------------------------------
          Begin self-consistency iteration #    7

  Date     :  20150727, Time     :  115506.775
------------------------------------------------------------
  Evaluating new KS density.
  Integration grid: deviation in total charge (<rho> - N_e) =   1.421085E-14
  Pulay mixing of updated and previous charge densities.

  Evaluating partitioned Hartree potential by multipole expansion.
  | Analytical far-field extrapolation by fixed multipoles:
  | Hartree multipole sum: apparent total charge =  -0.483620E-05
  Summing up the Hartree potential.
  Time summed over all CPUs for potential: real work        2.565 s, elapsed        2.574 s
  | RMS charge density error from multipole expansion :   0.179789E-01

  Integrating Hamiltonian matrix: batch-based integration.
  Time summed over all CPUs for integration: real work        7.014 s, elapsed        7.117 s

  Updating Kohn-Sham eigenvalues, eigenvectors, occupation numbers, and Fermi level.
  Solving generalized eigenproblem
  Updating Kohn-Sham eigenvalues and eigenfunctions.
  Solving real generalised eigenvalue problem by standard LAPACK (fast)
  Determining occupation numbers for Kohn-Sham eigenstates.
  | Chemical potential (Fermi level) in eV                 : -.21744527E+01
  | Error in electron count due to remaining E_F inaccuracy: 0.00000000E+00
  | Maximum occupation number of highest empty state:  0.00E+00

  Highest occupied state (VBM) at     -4.57435958 eV
  | Occupation number:      2.00000000

  Lowest unoccupied state (CBM) at    -2.10653360 eV
  | Occupation number:      0.00000000

  Overall HOMO-LUMO gap:      2.46782599 eV.

  Total energy components:
  | Sum of eigenvalues            :        -207.49506201 Ha       -5646.22791422 eV
  | XC energy correction          :         -46.60391119 Ha       -1268.15694663 eV
  | XC potential correction       :          59.57311689 Ha        1621.06698954 eV
  | Free-atom electrostatic energy:        -178.79378492 Ha       -4865.22642776 eV
  | Hartree energy correction     :          -9.41994304 Ha        -256.32969201 eV
  | van der Waals energy corr.    :           0.00000000 Ha           0.00000000 eV
  | Entropy correction            :           0.00000000 Ha           0.00000000 eV
  | ---------------------------
  | Total energy                  :        -382.73958428 Ha      -10414.87399109 eV
  | Total energy, T -> 0          :        -382.73958428 Ha      -10414.87399109 eV  <-- do not rely on this value for anything but (periodic) metals
  | Electronic free energy        :        -382.73958428 Ha      -10414.87399109 eV

  Derived energy quantities:
  | Kinetic energy                :         381.79011132 Ha       10389.03751735 eV
  | Electrostatic energy          :        -717.92578440 Ha      -19535.75456181 eV
  | Energy correction for multipole
  | error in Hartree potential    :          -0.00679380 Ha          -0.18486875 eV
  | Sum of eigenvalues per atom                           :        -376.41519428 eV
  | Total energy (T->0) per atom                          :        -694.32493274 eV  <-- do not rely on this value for anything but (periodic) metals
  | Electronic free energy per atom                       :        -694.32493274 eV

  Self-consistency convergence accuracy:
  | Change of charge density      : 0.1144E-01
  | Change of sum of eigenvalues  : -.4326E+01 eV
  | Change of total energy        : 0.3735E-02 eV

  End self-consistency iteration #     7       :  max(cpu_time)    wall_clock(cpu1)
  | Time for this iteration                    :        1.909 s           1.909 s
  | Charge density update                      :        0.623 s           0.623 s
  | Density mixing                             :        0.013 s           0.012 s
  | Hartree multipole update                   :        0.005 s           0.005 s
  | Hartree multipole summation                :        0.322 s           0.323 s
  | Integration                                :        0.892 s           0.891 s
  | Solution of K.-S. eqns.                    :        0.054 s           0.054 s
  | Total energy evaluation                    :        0.000 s           0.000 s
------------------------------------------------------------

------------------------------------------------------------
          Begin self-consistency iteration #    8

  Date     :  20150727, Time     :  115508.684
------------------------------------------------------------
  Evaluating new KS density.
  Integration grid: deviation in total charge (<rho> - N_e) =   2.131628E-14
  Pulay mixing of updated and previous charge densities.

  Evaluating partitioned Hartree potential by multipole expansion.
  | Analytical far-field extrapolation by fixed multipoles:
  | Hartree multipole sum: apparent total charge =  -0.482800E-05
  Summing up the Hartree potential.
  Time summed over all CPUs for potential: real work        2.565 s, elapsed        2.575 s
  | RMS charge density error from multipole expansion :   0.180198E-01

  Integrating Hamiltonian matrix: batch-based integration.
  Time summed over all CPUs for integration: real work        7.020 s, elapsed        7.135 s

  Updating Kohn-Sham eigenvalues, eigenvectors, occupation numbers, and Fermi level.
  Solving generalized eigenproblem
  Updating Kohn-Sham eigenvalues and eigenfunctions.
  Solving real generalised eigenvalue problem by standard LAPACK (fast)
  Determining occupation numbers for Kohn-Sham eigenstates.
  | Chemical potential (Fermi level) in eV                 : -.21736270E+01
  | Error in electron count due to remaining E_F inaccuracy: 0.00000000E+00
  | Maximum occupation number of highest empty state:  0.00E+00

  Highest occupied state (VBM) at     -4.55579190 eV
  | Occupation number:      2.00000000

  Lowest unoccupied state (CBM) at    -2.10721961 eV
  | Occupation number:      0.00000000

  Overall HOMO-LUMO gap:      2.44857229 eV.

  Total energy components:
  | Sum of eigenvalues            :        -207.48697697 Ha       -5646.00790912 eV
  | XC energy correction          :         -46.60484943 Ha       -1268.18247727 eV
  | XC potential correction       :          59.57430590 Ha        1621.09934409 eV
  | Free-atom electrostatic energy:        -178.79378492 Ha       -4865.22642776 eV
  | Hartree energy correction     :          -9.42827818 Ha        -256.55650285 eV
  | van der Waals energy corr.    :           0.00000000 Ha           0.00000000 eV
  | Entropy correction            :           0.00000000 Ha           0.00000000 eV
  | ---------------------------
  | Total energy                  :        -382.73958361 Ha      -10414.87397291 eV
  | Total energy, T -> 0          :        -382.73958361 Ha      -10414.87397291 eV  <-- do not rely on this value for anything but (periodic) metals
  | Electronic free energy        :        -382.73958361 Ha      -10414.87397291 eV

  Derived energy quantities:
  | Kinetic energy                :         381.79413513 Ha       10389.14701089 eV
  | Electrostatic energy          :        -717.92886931 Ha      -19535.83850653 eV
  | Energy correction for multipole
  | error in Hartree potential    :          -0.00680965 Ha          -0.18530013 eV
  | Sum of eigenvalues per atom                           :        -376.40052727 eV
  | Total energy (T->0) per atom                          :        -694.32493153 eV  <-- do not rely on this value for anything but (periodic) metals
  | Electronic free energy per atom                       :        -694.32493153 eV

  Self-consistency convergence accuracy:
  | Change of charge density      : 0.2015E-02
  | Change of sum of eigenvalues  : 0.2200E+00 eV
  | Change of total energy        : 0.1818E-04 eV

  End self-consistency iteration #     8       :  max(cpu_time)    wall_clock(cpu1)
  | Time for this iteration                    :        1.913 s           1.912 s
  | Charge density update                      :        0.624 s           0.623 s
  | Density mixing                             :        0.014 s           0.014 s
  | Hartree multipole update                   :        0.005 s           0.005 s
  | Hartree multipole summation                :        0.322 s           0.323 s
  | Integration                                :        0.894 s           0.893 s
  | Solution of K.-S. eqns.                    :        0.053 s           0.054 s
  | Total energy evaluation                    :        0.000 s           0.000 s
------------------------------------------------------------

------------------------------------------------------------
          Begin self-consistency iteration #    9

  Date     :  20150727, Time     :  115510.596
------------------------------------------------------------
  Evaluating new KS density.
  Integration grid: deviation in total charge (<rho> - N_e) =   1.421085E-14
  Pulay mixing of updated and previous charge densities.

  Evaluating partitioned Hartree potential by multipole expansion.
  | Analytical far-field extrapolation by fixed multipoles:
  | Hartree multipole sum: apparent total charge =  -0.482202E-05
  Summing up the Hartree potential.
  Time summed over all CPUs for potential: real work        2.565 s, elapsed        2.574 s
  | RMS charge density error from multipole expansion :   0.180202E-01

  Integrating Hamiltonian matrix: batch-based integration.
  Time summed over all CPUs for integration: real work        7.024 s, elapsed        7.152 s

  Updating Kohn-Sham eigenvalues, eigenvectors, occupation numbers, and Fermi level.
  Solving generalized eigenproblem
  Updating Kohn-Sham eigenvalues and eigenfunctions.
  Solving real generalised eigenvalue problem by standard LAPACK (fast)
  Determining occupation numbers for Kohn-Sham eigenstates.
  | Chemical potential (Fermi level) in eV                 : -.21742687E+01
  | Error in electron count due to remaining E_F inaccuracy: 0.00000000E+00
  | Maximum occupation number of highest empty state:  0.00E+00

  Highest occupied state (VBM) at     -4.56193011 eV
  | Occupation number:      2.00000000

  Lowest unoccupied state (CBM) at    -2.10731960 eV
  | Occupation number:      0.00000000

  Overall HOMO-LUMO gap:      2.45461051 eV.

  Total energy components:
  | Sum of eigenvalues            :        -207.48912710 Ha       -5646.06641713 eV
  | XC energy correction          :         -46.60461103 Ha       -1268.17599021 eV
  | XC potential correction       :          59.57398227 Ha        1621.09053786 eV
  | Free-atom electrostatic energy:        -178.79378492 Ha       -4865.22642776 eV
  | Hartree energy correction     :          -9.42604225 Ha        -256.49565987 eV
  | van der Waals energy corr.    :           0.00000000 Ha           0.00000000 eV
  | Entropy correction            :           0.00000000 Ha           0.00000000 eV
  | ---------------------------
  | Total energy                  :        -382.73958303 Ha      -10414.87395710 eV
  | Total energy, T -> 0          :        -382.73958303 Ha      -10414.87395710 eV  <-- do not rely on this value for anything but (periodic) metals
  | Electronic free energy        :        -382.73958303 Ha      -10414.87395710 eV

  Derived energy quantities:
  | Kinetic energy                :         381.79644887 Ha       10389.20997106 eV
  | Electrostatic energy          :        -717.93142087 Ha      -19535.90793796 eV
  | Energy correction for multipole
[...]
   ----------------------------------------------------------------
   Total forces(   4)            : -.335931E+00 -.146026E+01 -.355817E+00
  atom #    5
   Hellmann-Feynman + Multipole  : -.493982E+00 0.464607E+00 0.847566E+00
   Pulay + GGA                   : 0.446108E-01 0.823022E-01 0.112880E+00
   Van der Waals               : -.954397E-03 0.536366E-02 -.180074E-02
   ----------------------------------------------------------------
   Total forces(   5)            : -.450325E+00 0.552273E+00 0.958645E+00
  atom #    6
   Hellmann-Feynman + Multipole  : 0.697532E+00 0.879164E+00 0.244162E+00
   Pulay + GGA                   : -.115065E+00 -.637793E-01 0.647646E-01
   Van der Waals               : 0.404286E-03 0.190377E-02 -.126790E-02
   ----------------------------------------------------------------
   Total forces(   6)            : 0.582871E+00 0.817289E+00 0.307659E+00
  atom #    7
   Hellmann-Feynman + Multipole  : -.616213E+01 -.815293E+01 0.915350E+01
   Pulay + GGA                   : 0.617188E+01 0.871113E+01 -.700059E+01
   Van der Waals               : -.246329E-02 0.385832E-02 0.527102E-02
   ----------------------------------------------------------------
   Total forces(   7)            : 0.728374E-02 0.562053E+00 0.215818E+01
  atom #    8
   Hellmann-Feynman + Multipole  : -.346419E+00 -.366888E+00 -.131610E+00
   Pulay + GGA                   : 0.413051E-01 0.826165E-01 -.135520E-02
   Van der Waals               : -.249974E-02 -.203850E-02 -.730823E-03
   ----------------------------------------------------------------
   Total forces(   8)            : -.307614E+00 -.286310E+00 -.133696E+00
  atom #    9
   Hellmann-Feynman + Multipole  : -.281050E+00 0.288658E+00 -.226962E+01
   Pulay + GGA                   : -.325853E-01 0.400236E-01 -.118080E+00
   Van der Waals               : 0.222821E-02 0.204886E-02 0.363982E-02
   ----------------------------------------------------------------
   Total forces(   9)            : -.311408E+00 0.330730E+00 -.238406E+01
  atom #   10
   Hellmann-Feynman + Multipole  : -.117713E+02 -.329799E+01 0.662063E+00
   Pulay + GGA                   : 0.131965E+02 0.485426E+01 -.137787E+01
   Van der Waals               : 0.130806E-02 -.365905E-02 -.134921E-02
   ----------------------------------------------------------------
   Total forces(  10)            : 0.142650E+01 0.155261E+01 -.717157E+00
  atom #   11
   Hellmann-Feynman + Multipole  : -.525421E+00 -.161659E-01 -.447848E-01
   Pulay + GGA                   : 0.119721E+00 -.521935E-01 0.284921E-01
   Van der Waals               : -.102930E-02 -.490575E-02 -.173968E-02
   ----------------------------------------------------------------
   Total forces(  11)            : -.406729E+00 -.732651E-01 -.180324E-01
  atom #   12
   Hellmann-Feynman + Multipole  : -.760134E+00 -.140639E+01 0.681090E+00
   Pulay + GGA                   : 0.439283E-01 0.974751E-01 -.591484E-01
   Van der Waals               : 0.325022E-03 -.380124E-03 -.837609E-03
   ----------------------------------------------------------------
   Total forces(  12)            : -.715881E+00 -.130929E+01 0.621104E+00
  atom #   13
   Hellmann-Feynman + Multipole  : 0.908282E+00 -.157378E+02 0.167375E+01
   Pulay + GGA                   : 0.205352E+00 0.159439E+02 -.311134E+01
   Van der Waals               : 0.148711E-02 -.759858E-02 -.438789E-02
   ----------------------------------------------------------------
   Total forces(  13)            : 0.111512E+01 0.198507E+00 -.144197E+01
  atom #   14
   Hellmann-Feynman + Multipole  : -.268971E+00 0.449593E+00 0.247648E+00
   Pulay + GGA                   : -.626525E-01 0.973438E-01 0.833817E-01
   Van der Waals               : 0.268344E-02 -.120496E-02 -.362727E-02
   ----------------------------------------------------------------
   Total forces(  14)            : -.328940E+00 0.545732E+00 0.327403E+00
  atom #   15
   Hellmann-Feynman + Multipole  : -.973720E+00 -.857234E+00 0.140870E+01
   Pulay + GGA                   : 0.357646E-01 0.694159E-01 -.637134E-01
   Van der Waals               : -.267758E-02 -.391800E-02 0.273552E-02
   ----------------------------------------------------------------
   Total forces(  15)            : -.940633E+00 -.791737E+00 0.134772E+01
  Timings for vdw_correction_hirshfeld (Tkatchenko-Scheffler 2009):
  | CPU time:        5.196 s, Wall clock time:        5.196 s.
  Removing unitary transformations (pure translations, rotations) from forces on atoms.
  Atomic forces before filtering:
  | Net force on center of mass :  0.125969E-01 0.374261E-02 -.314046E-02 eV/A
  | Net torque on center of mass:  -.805216E-02 0.109987E-01 -.126854E-01 eV
  Atomic forces after filtering:
  | Net force on center of mass :  0.892031E-15 0.802828E-15 -.713624E-15 eV/A
  | Net torque on center of mass:  0.415397E-14 0.113290E-14 0.151054E-14 eV
 
  Energy and forces in a compact form:
  | Total energy uncorrected      :         -0.104149393742421E+05 eV
  | Total energy corrected        :         -0.104149393742421E+05 eV  <-- do not rely on this value for anything but (periodic) metals
  | Electronic free energy        :         -0.104149393742421E+05 eV
  Total atomic forces (unitary forces cleaned) [eV/Ang]:
  |   1          0.987489814293706E+00          0.267916091709101E+01         -0.166128038480271E+01
  |   2          0.174262797214473E+01         -0.278983170822660E+01          0.114694618173415E+01
  |   3         -0.205254043023759E+01         -0.523975636972964E+00         -0.158080926941005E+00
  |   4         -0.336637475919312E+00         -0.146061608186666E+01         -0.355801486125139E+00
  |   5         -0.451301237694079E+00          0.551911765588473E+00          0.958774613288811E+00
  |   6          0.582185824799581E+00          0.816753347536401E+00          0.307445200520535E+00
  |   7          0.688380917419641E-02          0.561826679900506E+00          0.215823255701864E+01
  |   8         -0.308247222947523E+00         -0.286477733417220E+00         -0.133474390783100E+00
  |   9         -0.311620381944359E+00          0.330552111462409E+00         -0.238403687445019E+01
  |  10          0.142537441071367E+01          0.155249805035092E+01         -0.716652866633333E+00
  |  11         -0.407859734169654E+00         -0.732448717449363E-01         -0.173610649587402E-01
  |  12         -0.717068121692436E+00         -0.130930683427331E+01          0.621756140692050E+00
  |  13          0.111355919576181E+01          0.197914201112973E+00         -0.144187834429281E+01
  |  14         -0.330743067901037E+00          0.545013324326161E+00          0.327444877091362E+00
  |  15         -0.942103354381694E+00         -0.792177530867162E+00          0.134796676864147E+01
 
  ------------------------------------ 
  Start decomposition of the XC Energy 
  ------------------------------------ 
  Hartree-Fock part   :          0.000000000 Ha              0.000000000 eV
  ------------------------------------ 
  X Energy            :        -44.968367229 Ha          -1223.651530993 eV
  C Energy GGA        :         -1.636076491 Ha            -44.519906464 eV
  Total XC Energy     :        -46.604443719 Ha          -1268.171437458 eV
  LDA X and C from self-consistent density 
  X Energy LDA        :        -40.524207148 Ha          -1102.719782267 eV
  C Energy LDA        :         -3.300175116 Ha            -89.802333992 eV
  ------------------------------------ 
  End decomposition of the XC Energy 
  ------------------------------------ 
  Performing Hirshfeld analysis of fragment charges and moments.
  ----------------------------------------------------------------------
  | Atom     1: O
  |   Hirshfeld charge        :     -0.34789342
  |   Free atom volume        :     23.95238533
  |   Hirshfeld volume        :     23.65734581
  |   Hirshfeld dipole vector :      0.00657358       0.05517324       0.02816088
  |   Hirshfeld dipole moment :      0.06229233
  |   Hirshfeld second moments:      0.02800718      -0.01108096       0.01642328
  |                                 -0.01108096      -0.05225945      -0.03050293
  |                                  0.01642328      -0.03050293      -0.07800954
  ----------------------------------------------------------------------
  | Atom     2: H
  |   Hirshfeld charge        :      0.06613308
  |   Free atom volume        :     10.44207651
  |   Hirshfeld volume        :      8.37857802
  |   Hirshfeld dipole vector :     -0.02537132       0.03512620      -0.00707810
  |   Hirshfeld dipole moment :      0.04390505
  |   Hirshfeld second moments:      0.07158156       0.03191931       0.00141934
  |                                  0.03191931       0.02670576       0.00861580
  |                                  0.00141934       0.00861580       0.06276565
  ----------------------------------------------------------------------
  | Atom     3: H
  |   Hirshfeld charge        :      0.09100119
  |   Free atom volume        :     10.44207651
  |   Hirshfeld volume        :      7.52179693
  |   Hirshfeld dipole vector :      0.10914274       0.02865439       0.02122683
  |   Hirshfeld dipole moment :      0.11482068
  |   Hirshfeld second moments:      0.09214285      -0.00982337       0.00177121
  |                                 -0.00982337       0.08424613      -0.00915576
  |                                  0.00177121      -0.00915576       0.06747967
  ----------------------------------------------------------------------
  | Atom     4: O
  |   Hirshfeld charge        :     -0.28471645
  |   Free atom volume        :     23.95238533
  |   Hirshfeld volume        :     21.87449567
  |   Hirshfeld dipole vector :     -0.03315049       0.02325042       0.01752525
  |   Hirshfeld dipole moment :      0.04412110
  |   Hirshfeld second moments:      0.02763232       0.05816284      -0.00696333
  |                                  0.05816284       0.03139532       0.02593952
  |                                 -0.00696333       0.02593952       0.00090398
  ----------------------------------------------------------------------
  | Atom     5: H
  |   Hirshfeld charge        :      0.12787210
  |   Free atom volume        :     10.44207651
  |   Hirshfeld volume        :      7.07145921
  |   Hirshfeld dipole vector :      0.03728619       0.08954220       0.05757224
  |   Hirshfeld dipole moment :      0.11279463
  |   Hirshfeld second moments:      0.11053369       0.02244110      -0.00687747
  |                                  0.02244110       0.08308861      -0.00020970
  |                                 -0.00687747      -0.00020970       0.09563647
  ----------------------------------------------------------------------
  | Atom     6: H
  |   Hirshfeld charge        :      0.14038092
  |   Free atom volume        :     10.44207651
  |   Hirshfeld volume        :      6.60519766
  |   Hirshfeld dipole vector :     -0.10379720      -0.06290491       0.02026180
  |   Hirshfeld dipole moment :      0.12305051
  |   Hirshfeld second moments:      0.10064007       0.01379976       0.00065745
  |                                  0.01379976       0.11490681       0.01313080
  |                                  0.00065745       0.01313080       0.10559452
  ----------------------------------------------------------------------
  | Atom     7: O
  |   Hirshfeld charge        :     -0.19624745
  |   Free atom volume        :     23.95238533
  |   Hirshfeld volume        :     20.38203149
  |   Hirshfeld dipole vector :      0.02558085      -0.01110447      -0.01264811
  |   Hirshfeld dipole moment :      0.03062130
  |   Hirshfeld second moments:      0.03790995       0.01208810       0.02620774
  |                                  0.01208810       0.07896890       0.00502056
  |                                  0.02620774       0.00502056       0.10167371
  ----------------------------------------------------------------------
  | Atom     8: H
  |   Hirshfeld charge        :      0.11817829
  |   Free atom volume        :     10.44207651
  |   Hirshfeld volume        :      7.16971493
  |   Hirshfeld dipole vector :      0.02709844       0.04182323       0.01100433
  |   Hirshfeld dipole moment :      0.05103532
  |   Hirshfeld second moments:      0.08561554      -0.02133263      -0.00546652
  |                                 -0.02133263       0.07435364      -0.02681562
  |                                 -0.00546652      -0.02681562       0.10475851
  ----------------------------------------------------------------------
  | Atom     9: H
  |   Hirshfeld charge        :      0.16290051
  |   Free atom volume        :     10.44207651
  |   Hirshfeld volume        :      5.91058760
  |   Hirshfeld dipole vector :     -0.01974409       0.00945021      -0.11902487
  |   Hirshfeld dipole moment :      0.12102089
  |   Hirshfeld second moments:      0.12044651       0.00902763       0.00767188
  |                                  0.00902763       0.13474387       0.00243647
  |                                  0.00767188       0.00243647       0.12449024
  ----------------------------------------------------------------------
  | Atom    10: O
  |   Hirshfeld charge        :     -0.16093226
  |   Free atom volume        :     23.95238533
  |   Hirshfeld volume        :     19.46185166
  |   Hirshfeld dipole vector :     -0.00096569      -0.01141067       0.00466473
  |   Hirshfeld dipole moment :      0.01236510
  |   Hirshfeld second moments:      0.09746647      -0.00586871       0.01019471
  |                                 -0.00586871       0.11190797      -0.02660582
  |                                  0.01019471      -0.02660582       0.07679586
  ----------------------------------------------------------------------
  | Atom    11: H
  |   Hirshfeld charge        :      0.18516180
  |   Free atom volume        :     10.44207651
  |   Hirshfeld volume        :      5.61166521
  |   Hirshfeld dipole vector :      0.09939577      -0.04939241       0.04088515
  |   Hirshfeld dipole moment :      0.11828240
  |   Hirshfeld second moments:      0.13463985       0.00625594      -0.00040428
  |                                  0.00625594       0.14153313      -0.00592061
  |                                 -0.00040428      -0.00592061       0.12926345
  ----------------------------------------------------------------------
  | Atom    12: H
  |   Hirshfeld charge        :      0.18420340
  |   Free atom volume        :     10.44207651
  |   Hirshfeld volume        :      5.21653315
  |   Hirshfeld dipole vector :      0.03317151       0.10279273      -0.05096076
  |   Hirshfeld dipole moment :      0.11943071
  |   Hirshfeld second moments:      0.15080684      -0.00789294       0.00715955
  |                                 -0.00789294       0.13638483      -0.00193667
  |                                  0.00715955      -0.00193667       0.13615223
  ----------------------------------------------------------------------
  | Atom    13: O
  |   Hirshfeld charge        :     -0.31210053
  |   Free atom volume        :     23.95238533
  |   Hirshfeld volume        :     22.26153418
  |   Hirshfeld dipole vector :     -0.00774782       0.04836654      -0.01233896
  |   Hirshfeld dipole moment :      0.05051338
  |   Hirshfeld second moments:     -0.01265646      -0.02018931      -0.05798445
  |                                 -0.02018931       0.00605291       0.00923023
  |                                 -0.05798445       0.00923023       0.02043552
  ----------------------------------------------------------------------
  | Atom    14: H
  |   Hirshfeld charge        :      0.13073899
  |   Free atom volume        :     10.44207651
  |   Hirshfeld volume        :      6.47411641
  |   Hirshfeld dipole vector :     -0.06449153       0.08619033       0.06453048
  |   Hirshfeld dipole moment :      0.12550742
  |   Hirshfeld second moments:      0.10121205       0.00184276      -0.01679934
  |                                  0.00184276       0.10734281      -0.00719790
  |                                 -0.01679934      -0.00719790       0.11559382
  ----------------------------------------------------------------------
  | Atom    15: H
  |   Hirshfeld charge        :      0.09526644
  |   Free atom volume        :     10.44207651
  |   Hirshfeld volume        :      7.55279564
  |   Hirshfeld dipole vector :      0.02209025       0.04094148      -0.04610292
  |   Hirshfeld dipole moment :      0.06549552
  |   Hirshfeld second moments:      0.07286583      -0.01887645       0.01332218
  |                                 -0.01887645       0.10013634       0.01409790
  |                                  0.01332218       0.01409790       0.05451084
  ----------------------------------------------------------------------


------------------------------------------------------------------------------
  Final output of selected total energy values:

  The following output summarizes some interesting total energy values
  at the end of a run (AFTER all relaxation, molecular dynamics, etc.).

  | Total energy of the DFT / Hartree-Fock s.c.f. calculation      :         -10414.939374242 eV
  | Final zero-broadening corrected energy (caution - metals only) :         -10414.939374242 eV
  | For reference only, the value of 1 Hartree used in FHI-aims is :             27.211384500 eV

  Before relying on these values, please be sure to understand exactly which
  total energy value is referred to by a given number. Different objects may
  all carry the same name 'total energy'. Definitions:

  Total energy of the DFT / Hartree-Fock s.c.f. calculation:
  | Note that this energy does not include ANY quantities calculated after the
  | s.c.f. cycle, in particular not ANY RPA, MP2, etc. many-body perturbation terms.

  Final zero-broadening corrected energy:
  | For metallic systems only, a broadening of the occupation numbers at the Fermi
  | level can be extrapolated back to zero broadening by an electron-gas inspired
  | formula. For all systems that are not real metals, this value can be
  | meaningless and should be avoided.

------------------------------------------------------------------------------

------------------------------------------------------------
          Leaving FHI-aims.
          Date     :  20150727, Time     :  115529.883

          Computational steps:
          | Number of self-consistency cycles          :           16

          Detailed time accounting                     :  max(cpu_time)    wall_clock(cpu1)
          | Total time                                 :       37.143 s          37.173 s
          | Preparation time                           :        0.171 s           0.666 s
          | Grid partitioning                          :        0.132 s           0.132 s
          | Preloading free-atom quantities on grid    :        0.013 s           0.013 s
          | Free-atom superposition energy             :        0.065 s           0.065 s
          | Total time for integrations                :       15.708 s          15.708 s
          | Total time for solution of K.-S. equations :        1.052 s           1.055 s
          | Total time for density & force components  :       12.693 s          12.692 s
          | Total time for mixing                      :        0.209 s           0.209 s
          | Total time for Hartree multipole update    :        0.080 s           0.077 s
          | Total time for Hartree multipole sum       :        6.239 s           6.242 s
          | Total time for total energy evaluation     :        0.004 s           0.002 s
          | Total time for scaled ZORA corrections     :        0.000 s           0.000 s
          | Total time for TS (2009) vdW correction    :        0.051 s           0.051 s

          Have a nice day.
------------------------------------------------------------
