  MPI-parallelism will be employed.
------------------------------------------------------------
          Invoking FHI-aims ...
          Version 081213
          Compiled on 2013/08/29 at 17:41:06 on host generoso.

          When using FHI-aims, please cite the following reference:

          Volker Blum, Ralf Gehrke, Felix Hanke, Paula Havu,
          Ville Havu, Xinguo Ren, Karsten Reuter, and Matthias Scheffler,
          'Ab Initio Molecular Simulations with Numeric Atom-Centered Orbitals: FHI-aims',
          Computer Physics Communications 180, 2175-2196 (2009)

          For any questions about FHI-aims, please visit the aimsclub website
          with its forums and wiki. Contributions to both the forums and the
          wiki are warmly encouraged - they are for you, and everyone is welcome there.

------------------------------------------------------------

  Date     :  20150727, Time     :  120835.929
  Time zero on CPU 1             :   0.369940000000000E-01  s.
  Internal wall clock time zero  :           207230915.929  s.

  Using        8 parallel tasks.
  Task        0 on host gen60 reporting.
  Task        1 on host gen60 reporting.
  Task        2 on host gen60 reporting.
  Task        3 on host gen60 reporting.
  Task        4 on host gen60 reporting.
  Task        5 on host gen60 reporting.
  Task        6 on host gen60 reporting.
  Task        7 on host gen60 reporting.

  Performing system and environment tests:
  | Environment variable OMP_NUM_THREADS correctly set to 1.
  | Checking for scalapack...
  | No scalapack compiled in.

  Obtaining array dimensions for all initial allocations:
  
  -----------------------------------------------------------------------
  Parsing control.in (first pass over file, find array dimensions only).
  The contents of control.in will be repeated verbatim below
  unless switched off by setting 'verbatim_writeout .false.' .
  in the first line of control.in .
  -----------------------------------------------------------------------
  
  #########################################################################################
  #
  #  Volker Blum, FHI 2008 : Test run input file control.in
  #
  #########################################################################################
  #
  #  Physical model
  #
    xc                 rpbe
    spin               none
    relativistic       atomic_zora scalar
    charge             0.
   vdw_correction_hirshfeld
  #
  #  SCF convergence
  #
    occupation_type    gaussian 0.01
    mixer              pulay
      n_max_pulay        10
      charge_mix_param   0.1
    sc_accuracy_rho    5E-5
    sc_accuracy_eev    5E-3
    sc_accuracy_etot   5E-6
    sc_iter_limit      3000
  #
  #  Eigenvalue solver
  #
    KS_method          lapack
      empty_states       8
      basis_threshold    0.e-5
  #
  #  Efficiency
  #
  #   all previous settings are now default, except stratmann still
  #   undecided. Continue to handle stratmann with care, if at all.
  #
  #  partition_type stratmann
    partition_type rho_r2
  #  hartree_partition_type stratmann
  #
  #  Oprions for large clusters (100's of atoms: memory saving / better scaling)
  #
  # for periodic systems:
  #
    density_update_method orbital
    packed_matrix_format none
  #  k_grid 6 6 6
  #  output k_eigenvalue 1
  #  distributed_spline_storage .true.
  #
  #  Relaxation
  #
  #  relax_geometry   bfgs 5.e-3
    sc_accuracy_forces 5.E-4
    final_forces_cleaned .true.
  #
  #  Output options
  #
  #  output mulliken
    output Hirshfeld
  #  output dipole
  
  #harmonic_length_scale 0.001
  
  ################################################################################
  #
  #  FHI-aims code project
  #  VB, Fritz-Haber Institut, 2007
  #
  #  Suggested "safe" defaults for H atom (to be pasted into control.in file)
  #  Basis constructed for a non-relativistic H2 molecule using the
  #  PW-LDA functional.
  #
  ################################################################################
    species        H
  #     global species definitions
      nucleus             1
      cut_pot             4.0  2.0  1.0
      cut_free_atom       finite 8.0
      logarithmic         0.00010000 100.00  1.0123
      basis_dep_cutoff    1d-4  # 1d-4 is safe default - please check 5d-4 if you wish!
      radial_base         24 7.0
      radial_multiplier   2
      angular_grids       specified
        division   0.2783  110
        division   0.3822  194
        division   0.5626  302
  #      division   0.5922  434
  #      division   0.6227  590
  #      division   0.7206  770
        outer_grid  302
      l_hartree           4
  ################################################################################
  #
  #  Definition of "minimal" basis
  #
  ################################################################################
  #     valence basis states
      valence      1  s   1.
  #     ion occupancy
      ion_occ      1  s   0.5
  ################################################################################
  #
  #  Suggested additional basis functions. For production calculations,
  #  uncomment them one after another (the most important basis functions are
  #  listed first).
  #
  ################################################################################
  #  "First tier" - improvements: -1014.90 meV to -62.69 meV
       hydro 2 s 2.1
       hydro 2 p 3.5
  #  "Second tier" - improvements: -12.89 meV to -1.83 meV
       hydro 1 s 0.85
       hydro 2 p 3.7
       hydro 2 s 1.2
       hydro 3 d 7
  #  "Third tier" - improvements: -0.25 meV to -0.12 meV
  #     hydro 4 f 11.2
  #     hydro 3 p 4.8
  #     hydro 4 d 9
  #     hydro 3 s 3.2
  
  ################################################################################
  #
  #  FHI-aims code project
  #  VB, Fritz-Haber Institut, 2007
  #
  #  Suggested "safe" defaults for O atom (to be pasted into control.in file)
  #  All values have been tested for a non-relativistic, non-spinpolarized O2
  #  molecule using the PW-LDA functional. Validity for PBE is expected.
  #
  #  Constructed for dimers: 1.0 A, 1.208 A, 1.5 A, 2.0 A, 3.0 A
  #
  ################################################################################
    species        O
  #     global species definitions
      nucleus             8
      mass                15.9994
      l_hartree           4
      cut_pot             4.0  2.0  1.0
      cut_free_atom       finite 8.0
      basis_dep_cutoff    1d-4  # 1d-4 is safe default - please check 5d-4 if you wish!
      logarithmic         0.00010000 100.00  1.0123
      radial_base         36 7.0
      radial_multiplier   2
       angular_grids specified
        division   0.4087  110
        division   0.5181  194
        division   0.6184  302
  #      division   0.7315  434
  #      division   0.7934  590
  #      division   0.9656  770
  #      division   1.4041  974
  #      outer_grid 974
        outer_grid 302
  ################################################################################
  #
  #  Definition of "minimal" basis
  #
  ################################################################################
  #     valence basis states
      valence      2  s   2.
      valence      2  p   4.
  #     ion occupancy
      ion_occ      2  s   1.
      ion_occ      2  p   3.
  ################################################################################
  #
  #  Suggested additional basis functions. For production calculations,
  #  uncomment them one after another (the most important basis functions are
  #  listed first).
  #
  ################################################################################
  #  "First tier" - improvements: -699.05 meV to -159.38 meV
       hydro 2 p 1.8
       hydro 3 d 7.6
       hydro 3 s 6.4
  #  "Second tier" - improvements: -49.91 meV to -5.39 meV
       hydro 4 f 11.6
       hydro 3 p 6.2
       hydro 3 d 5.6
       hydro 5 g 17.6
       hydro 1 s 0.75
  #  "Third tier" - improvements: -2.83 meV to -0.50 meV
  #     ionic 2 p auto
  #     hydro 4 f 10.8
  #     hydro 4 d 4.7
  #     hydro 2 s 6.8
  #  "Fourth tier" - improvements: -0.40 meV to -0.12 meV
  #     hydro 3 p 5
  #     hydro 3 s 3.3
  #     hydro 5 g 15.6
  #     hydro 4 f 17.6
  #     hydro 4 d 14
  # Further basis functions - -0.08 meV and below
  #     hydro 3 s 2.1
  #     hydro 4 d 11.6
  #     hydro 3 p 16
  #     hydro 2 s 17.2
  
  
  -----------------------------------------------------------------------
  Completed first pass over input file control.in .
  -----------------------------------------------------------------------
  
  
  -----------------------------------------------------------------------
  Parsing geometry.in (first pass over file, find array dimensions only).
  The contents of geometry.in will be repeated verbatim below
  unless switched off by setting 'verbatim_writeout .false.' .
  in the first line of geometry.in .
  -----------------------------------------------------------------------
  
  atom      -4.053030000      0.065001000     -1.525160000  O
  atom      -4.566710000      0.974813000     -1.912820000  H
  atom      -3.067820000      0.330172000     -1.477310000  H
  atom      -4.581760000     -0.256435000      0.939478000  O
  atom      -4.349860000      0.471090000      1.504340000  H
  atom      -5.393870000     -0.726611000      1.228070000  H
  atom      -3.818880000      2.024990000      2.187990000  O
  atom      -3.690880000      1.961360000      3.202150000  H
  atom      -4.546490000      2.751300000      2.045370000  H
  atom      -1.975360000      2.858040000      0.453140000  O
  atom      -1.223550000      3.375850000      0.786238000  H
  atom      -2.537520000      2.567960000      1.156120000  H
  atom      -5.628340000      3.730740000      1.385610000  O
  atom      -6.090650000      4.418470000      1.860350000  H
  atom      -5.158540000      4.200260000      0.615875000  H
  
  -----------------------------------------------------------------------
  Completed first pass over input file geometry.in .
  -----------------------------------------------------------------------
  
 
  Basic array size parameters: 
  | Number of species                 :        2
  | Number of atoms                   :       15
  | Max. basis fn. angular momentum   :        4
  | Max. atomic/ionic basis occupied n:        2
  | Max. number of basis fn. types    :        2
  | Max. radial fns per species/type  :        8
  | Max. logarithmic grid size        :     1301
  | Max. radial integration grid size :       73
  | Max. angular integration grid size:      302
  | Max. angular grid division number :        8
  | Radial grid for Hartree potential :     1301
  | Number of spin channels           :        1

------------------------------------------------------------
          Reading file control.in.
------------------------------------------------------------
  XC: Using RPBE gradient-corrected functionals.
  Spin treatment: No spin polarisation.
  Scalar relativistic treatment of kinetic energy: on-site free-atom approximation to ZORA.
  Charge =   0.000000E+00: Neutral system requested explicitly.
  Using non-empirical van der Waals correction (Hirshfeld partitioning):
  Occupation type: Gaussian broadening, width =   0.100000E-01 eV.
  Using pulay charge density mixing.
  Pulay mixing - number of memorized iterations:   10
  Charge density mixing - mixing parameter:     0.1000
  Convergence accuracy of self-consistent charge density: 0.5000E-04
  Convergence accuracy of sum of eigenvalues: 0.5000E-02
  Convergence accuracy of total energy: 0.5000E-05
  Maximum number of s.-c. iterations  :  3000
  Kohn-Sham eigenvalues and eigenfunctions calculated by lapack diagonalisation (D&C).
  Number of empty states per atom:        8
  Threshold for basis singularities: 0.0000E+00
  Partition function in integrals calculations: rho / r^2
 Using packed matrix format           0
  Convergence accuracy of forces: 0.5000E-03
  Cleaning forces before final output.
  Hirshfeld charge analysis will be performed.
 
  Reading configuration options for species H                   .
  | Found nuclear charge :   1.0000
  | Found cutoff potl. onset [A], width [A], scale factor :    4.00000    2.00000    1.00000
  | Found cutoff specification for free atom: Cutoff potential begins at    8.00000 A.
  | Found logarithmic grid data [bohr] : 0.1000E-03 0.1000E+03 0.1012E+01
  | Threshold for basis-dependent cutoff potential is   0.100000E-03
  | Found data for basic radial integration grid :    24 points, outermost radius =    7.000 A
  | Found multiplier for basic radial grid :   2
  | Found angular grid specification: user-specified.
  | Specified grid contains     4 separate shells.
  | Check grid settings after all constraints further below.
  | Found l_max for Hartree potential  :   4
  | Found free-atom valence shell :  1 s   1.000
  | No ionic wave fns used. Skipping ion_occ.
  | Found hydrogenic basis function :  2 s   2.100
  | Found hydrogenic basis function :  2 p   3.500
  | Found hydrogenic basis function :  1 s   0.850
  | Found hydrogenic basis function :  2 p   3.700
  | Found hydrogenic basis function :  2 s   1.200
  | Found hydrogenic basis function :  3 d   7.000
  Species H                   : Missing cutoff potential type.
  Defaulting to exp(1/x)/(1-x)^2 type cutoff potential.
  Species H : On-site basis accuracy parameter (for Gram-Schmidt orthonormalisation) not specified.
  Using default value basis_acc =  0.1000000E-03.
  Species H                   : Using default innermost maximum threshold i_radial=  2 for radial functions.
  Species H                   : Basic radial grid will be enhanced according to radial_multiplier =   2, to contain    49 grid points.
 
  Reading configuration options for species O                   .
  | Found nuclear charge :   8.0000
  | Found atomic mass :    15.9994000000000      amu
  | Found l_max for Hartree potential  :   4
  | Found cutoff potl. onset [A], width [A], scale factor :    4.00000    2.00000    1.00000
  | Found cutoff specification for free atom: Cutoff potential begins at    8.00000 A.
  | Threshold for basis-dependent cutoff potential is   0.100000E-03
  | Found logarithmic grid data [bohr] : 0.1000E-03 0.1000E+03 0.1012E+01
  | Found data for basic radial integration grid :    36 points, outermost radius =    7.000 A
  | Found multiplier for basic radial grid :   2
  | Found angular grid specification: user-specified.
  | Specified grid contains     4 separate shells.
  | Check grid settings after all constraints further below.
  | Found free-atom valence shell :  2 s   2.000
  | Found free-atom valence shell :  2 p   4.000
  | No ionic wave fns used. Skipping ion_occ.
  | No ionic wave fns used. Skipping ion_occ.
  | Found hydrogenic basis function :  2 p   1.800
  | Found hydrogenic basis function :  3 d   7.600
  | Found hydrogenic basis function :  3 s   6.400
  | Found hydrogenic basis function :  4 f  11.600
  | Found hydrogenic basis function :  3 p   6.200
  | Found hydrogenic basis function :  3 d   5.600
  | Found hydrogenic basis function :  5 g  17.600
  | Found hydrogenic basis function :  1 s   0.750
  Species O                   : Missing cutoff potential type.
  Defaulting to exp(1/x)/(1-x)^2 type cutoff potential.
  Species O : On-site basis accuracy parameter (for Gram-Schmidt orthonormalisation) not specified.
  Using default value basis_acc =  0.1000000E-03.
  Species O                   : Using default innermost maximum threshold i_radial=  2 for radial functions.
  Species O                   : Basic radial grid will be enhanced according to radial_multiplier =   2, to contain    73 grid points.
 
  Finished reading input file 'control.in'. Consistency checks are next.
 
  Target number of points in a grid batch is not set. Defaulting to  100
  Method for grid partitioning is not set. Defaulting to parallel hash+maxmin partitioning.
  Batch size limit is not set. Defaulting to    200
  By default, will store active basis functions for each batch.
  If in need of memory, prune_basis_once .false. can be used to disable this option.
  communication_type for Hartree potential was not specified.
  Defaulting to calc_hartree .
  Pulay mixer: Number of initial linear mixing iterations not set.
  Defaulting to    0 iterations.
  Work space size for distributed Hartree potential not set.
  Defaulting to   0.200000E+03 MB.
  Algorithm-dependent basis array size parameters:
  | n_max_pulay                         :       10
  Geometry relaxation not requested: no relaxation will be performed.
  Handling of forces: Unphysical translation and rotation will be removed from forces.
  No accuracy limit for integral partition fn. given. Defaulting to 0.1000E-14.
  No threshold value for u(r) in integrations given. Defaulting to 0.1000E-05.
  No accuracy for occupation numbers given. Defaulting to 0.1000E-07.
  No threshold value for occupation numbers given. Defaulting to 0.0000E+00.
  No accuracy for fermi level given. Defaulting to 0.1000E-19.
  Maximum # of iterations to find E_F not set. Defaulting to  200.
  Will not use alltoall communication since running on < 1024 CPUs.
  Partitioning for Hartree potential was not defined. Using partition_type for integrals.
  | Reporting present value of keyword multip_moments_threshold  :       0.10000000E-09
  | This value may affect high angular momentum components of the Hartree potential in periodic systems.
  No q(lm)/r^(l+1) cutoff set for long-range Hartree potential.
  | Using default value of  0.100000E-09 .
  | Verify using the multipole_threshold keyword.
  Defaulting to new monopole extrapolation.
  Density update method: Loop over occupied states selected for charge density update.
------------------------------------------------------------


------------------------------------------------------------
          Reading geometry description geometry.in.
------------------------------------------------------------
  Input structure read successfully.
  The structure contains       15 atoms,  and a total of         50.000 electrons.

  Input geometry:
  | No unit cell requested.
  | Atomic structure:
  |       Atom                x [A]            y [A]            z [A]
  |    1: Species O             -4.053030         0.065001        -1.525160
  |    2: Species H             -4.566710         0.974813        -1.912820
  |    3: Species H             -3.067820         0.330172        -1.477310
  |    4: Species O             -4.581760        -0.256435         0.939478
  |    5: Species H             -4.349860         0.471090         1.504340
  |    6: Species H             -5.393870        -0.726611         1.228070
  |    7: Species O             -3.818880         2.024990         2.187990
  |    8: Species H             -3.690880         1.961360         3.202150
  |    9: Species H             -4.546490         2.751300         2.045370
  |   10: Species O             -1.975360         2.858040         0.453140
  |   11: Species H             -1.223550         3.375850         0.786238
  |   12: Species H             -2.537520         2.567960         1.156120
  |   13: Species O             -5.628340         3.730740         1.385610
  |   14: Species H             -6.090650         4.418470         1.860350
  |   15: Species H             -5.158540         4.200260         0.615875
  |

  | The smallest distance between any two atoms is         0.94570141 AA.
  |
  | The first atom of this pair is atom number                     10 .
  | The second atom of this pair is atom number                    12 .

  Structure-dependent array size parameters: 
  | Maximum number of distinct radial functions  :       18
  | Maximum number of basis functions            :      345
  | Number of Kohn-Sham states (occupied + empty):       85
------------------------------------------------------------

------------------------------------------------------------
          Preparing all fixed parts of the calculation.
------------------------------------------------------------
  Determining machine precision:
    2.225073858507201E-308
  Setting up grids for atomic and cluster calculations.

  Creating wave function, potential, and density for free atoms.

  Species: H

  List of occupied orbitals and eigenvalues:
    n    l              occ      energy [Ha]    energy [eV]
    1    0           1.0000        -0.241408        -6.5691


  Species: O

  List of occupied orbitals and eigenvalues:
    n    l              occ      energy [Ha]    energy [eV]
    1    0           2.0000       -18.944147      -515.4965
    2    0           2.0000        -0.883529       -24.0421
    2    1           4.0000        -0.330176        -8.9845

  Creating fixed part of basis set: Ionic, confined, hydrogenic.
 
  H                    hydrogenic:
 
  List of hydrogenic basis orbitals: 
    n    l      effective z      eigenvalue [eV]  inner max. [A]     outer max. [A]     outer radius [A]   
    2    0         2.100000       -14.9965           0.193241           1.317192           5.372934
    2    1         3.500000       -41.6672           0.602363           0.602363           4.056010
    1    0         0.850000        -9.8292           0.624864           0.624864           5.372934
    2    1         3.700000       -46.5653           0.573616           0.573616           3.909951
    2    0         1.200000        -4.5995           0.334977           2.228160           5.505921
    3    2         7.000000       -74.0753           0.680692           0.680692           3.769152
 
 
  O                    hydrogenic:
 
  List of hydrogenic basis orbitals: 
    n    l      effective z      eigenvalue [eV]  inner max. [A]     outer max. [A]     outer radius [A]   
    2    1         1.800000       -11.0118           1.178546           1.178546           5.432516
    3    2         7.600000       -87.3182           0.624117           0.624117           3.541422
    3    0         6.400000       -61.9209           0.061166           1.081887           4.306510
    4    3        11.600000      -114.4238           0.731621           0.731621           3.584982
    3    1         6.200000       -58.1113           0.255677           1.030255           4.306510
    3    2         5.600000       -47.4081           0.847222           0.847222           4.413102
    5    4        17.600000      -168.5799           0.749730           0.749730           3.372413
    1    0         0.750000        -7.6499           0.705275           0.705275           5.366508
 

  Adding cutoff potential to free-atom effective potential.
  Creating atomic-like basis functions for current effective potential.

  Species H                   :

  List of atomic basis orbitals and eigenvalues:
    n    l      energy [Ha]    energy [eV]    outer radius [A]
    1    0        -0.241374        -6.5681       5.372934


  Species O                   :

  List of atomic basis orbitals and eigenvalues:
    n    l      energy [Ha]    energy [eV]    outer radius [A]
    1    0       -18.944147      -515.4965       1.415745
    2    0        -0.883529       -24.0421       5.048305
    2    1        -0.330173        -8.9845       5.301302

  Assembling full basis from fixed parts.
  | Species H :   atomic orbital   1 s accepted.
  | Species H :    hydro orbital   2 s accepted.
  | Species H :    hydro orbital   1 s accepted.
  | Species H :    hydro orbital   2 s accepted.
  | Species H :    hydro orbital   2 p accepted.
  | Species H :    hydro orbital   2 p accepted.
  | Species H :    hydro orbital   3 d accepted.
  | Species O :   atomic orbital   1 s accepted.
  | Species O :    hydro orbital   3 s accepted.
  | Species O :   atomic orbital   2 s accepted.
  | Species O :    hydro orbital   1 s accepted.
  | Species O :    hydro orbital   3 p accepted.
  | Species O :   atomic orbital   2 p accepted.
  | Species O :    hydro orbital   2 p accepted.
  | Species O :    hydro orbital   3 d accepted.
  | Species O :    hydro orbital   3 d accepted.
  | Species O :    hydro orbital   4 f accepted.
  | Species O :    hydro orbital   5 g accepted.
 
  Basis size parameters after reduction:
  | Total number of radial functions:       18
  | Total number of basis functions :      345
 
  Testing on-site integration grid accuracy.
  |  Species  Function  <phi|h_atom|phi> (log., in eV)  <phi|h_atom|phi> (rad., in eV)
           1        1                 -6.5683835025                 -6.5684759159
           1        2                 13.3711789951                 13.3708738703
           1        3                 23.6590910787                 23.6532055418
           1        4                 16.2963827186                 16.1870710655 ***
           1        5                 28.7627214838                 28.7627215090
           1        6                 59.5965249172                 59.5965950857
           1        7                 60.2220506392                 60.2220503827
           2        8               -515.4964576505               -515.4964530710
           2        9                 15.3030791347                 15.3030722972
           2       10                -21.7296094581                -21.7296135470
           2       11                 14.2969371730                 14.2969701621
           2       12                 21.0679693190                 21.0679697493
           2       13                 -2.3833606469                 -2.3833613176
           2       14                 13.7067136422                 13.7066766629
           2       15                 45.8013116808                 45.8013116965
           2       16                 52.2309815402                 52.2309831494
           2       17                 85.4120732416                 85.4120732763
           2       18                142.1019167745                142.1019167817
 * Note: Onsite integrals marked "***" above are less accurate than
 * onsite_accuracy_threshold =    0.03000 eV. Usually, this is harmless.
 * When in doubt, tighten the "radial" and/or "radial_multiplier" flags to check.

  Preparing densities etc. for the partition functions (integrals / Hartree potential).

  Preparations completed.
  max(cpu_time)          :      0.170 s.
  Wall clock time (cpu1) :      0.532 s.
------------------------------------------------------------

------------------------------------------------------------
          Begin self-consistency loop: Initialization.

          Date     :  20150727, Time     :  120836.501
------------------------------------------------------------

  Initializing index lists of integration centers etc. from given atomic structure:
  | Number of centers in hartree potential         :        15
  | Number of centers in hartree multipole         :        15
  | Number of centers in electron density summation:        15
  | Number of centers in basis integrals           :        15
  | Number of centers in integrals                 :        15
  Partitioning the integration grid into batches with parallel hashing+maxmin method.
  | Number of batches:     2058
  | Maximal batch size:     185
  | Minimal batch size:      49
  | Average batch size:      95.583
  | Standard deviation of batch sizes:      28.097

  Integration load balanced across     8 MPI tasks.
  Work distribution over tasks is as follows:
  Task     0 has      24538 integration points.
  Task     1 has      24588 integration points.
  Task     2 has      24633 integration points.
  Task     3 has      24579 integration points.
  Task     4 has      24587 integration points.
  Task     5 has      24640 integration points.
  Task     6 has      24544 integration points.
  Task     7 has      24601 integration points.
  Initializing partition tables, free-atom densities, potentials, etc. across the integration grid (initialize_grid_storage).
  | Net number of integration points:   196710
  | of which are non-zero points    :   196170
  Obtaining max. number of non-zero basis functions in each batch (get_n_compute_maxes).
  | Maximal number of non-zero basis functions:      342 in task     0
  | Maximal number of non-zero basis functions:      342 in task     1
  | Maximal number of non-zero basis functions:      342 in task     2
  | Maximal number of non-zero basis functions:      342 in task     3
  | Maximal number of non-zero basis functions:      342 in task     4
  | Maximal number of non-zero basis functions:      342 in task     5
  | Maximal number of non-zero basis functions:      342 in task     6
  | Maximal number of non-zero basis functions:      342 in task     7
  Integrating Hamiltonian matrix: batch-based integration.
  Time summed over all CPUs for integration: real work        7.467 s, elapsed        7.624 s
  Integrating overlap matrix.
  Time summed over all CPUs for integration: real work        4.030 s, elapsed        4.095 s

  Updating Kohn-Sham eigenvalues, eigenvectors, occupation numbers, and Fermi level.
  Solving generalized eigenproblem
  Updating Kohn-Sham eigenvalues and eigenfunctions.
  Transforming overlap matrix and checking for singularities.
  Overlap matrix is nonsingular:
  | Lowest eigenvalue:  0.275044E-03
  Solving real generalised eigenvalue problem by standard LAPACK (fast)
  Determining occupation numbers for Kohn-Sham eigenstates.
  | Chemical potential (Fermi level) in eV                 : -.35919378E+01
  | Error in electron count due to remaining E_F inaccuracy: 0.00000000E+00
  | Maximum occupation number of highest empty state:  0.00E+00

  Writing Kohn-Sham eigenvalues.

  State    Occupation    Eigenvalue [Ha]    Eigenvalue [eV]
      1       2.00000         -19.054651         -518.50343
      2       2.00000         -19.052094         -518.43385
      3       2.00000         -19.050543         -518.39164
      4       2.00000         -19.036159         -518.00025
      5       2.00000         -19.019441         -517.54532
      6       2.00000          -1.106337          -30.10497
      7       2.00000          -1.100657          -29.95040
      8       2.00000          -1.098343          -29.88743
      9       2.00000          -1.067983          -29.06129
     10       2.00000          -1.043116          -28.38463
     11       2.00000          -0.652151          -17.74594
     12       2.00000          -0.648431          -17.64471
     13       2.00000          -0.629112          -17.11900
     14       2.00000          -0.605076          -16.46496
     15       2.00000          -0.569976          -15.50983
     16       2.00000          -0.525497          -14.29951
     17       2.00000          -0.508153          -13.82753
     18       2.00000          -0.504467          -13.72726
     19       2.00000          -0.489024          -13.30702
     20       2.00000          -0.474887          -12.92233
     21       2.00000          -0.441292          -12.00816
     22       2.00000          -0.438720          -11.93819
     23       2.00000          -0.438553          -11.93364
     24       2.00000          -0.430504          -11.71461
     25       2.00000          -0.402250          -10.94578
     26       0.00000          -0.097180           -2.64440
     27       0.00000          -0.075859           -2.06422
     28       0.00000          -0.058266           -1.58551
     29       0.00000          -0.048184           -1.31115
     30       0.00000          -0.034354           -0.93482
     31       0.00000          -0.019051           -0.51842
     32       0.00000          -0.003569           -0.09711
     33       0.00000           0.040717            1.10797
     34       0.00000           0.047743            1.29915
     35       0.00000           0.059925            1.63065
     36       0.00000           0.068314            1.85892
     37       0.00000           0.079150            2.15378
     38       0.00000           0.090656            2.46689
     39       0.00000           0.095969            2.61145
     40       0.00000           0.107679            2.93010
     41       0.00000           0.109220            2.97203
     42       0.00000           0.114522            3.11630
     43       0.00000           0.118018            3.21144
     44       0.00000           0.125984            3.42821
     45       0.00000           0.129517            3.52433
     46       0.00000           0.142581            3.87983
     47       0.00000           0.155540            4.23247
     48       0.00000           0.163483            4.44859
     49       0.00000           0.170318            4.63460
     50       0.00000           0.178911            4.86843
     51       0.00000           0.188650            5.13342
     52       0.00000           0.213622            5.81294
     53       0.00000           0.242450            6.59739
     54       0.00000           0.245709            6.68608
     55       0.00000           0.255341            6.94819
     56       0.00000           0.265819            7.23331
     57       0.00000           0.280560            7.63441
     58       0.00000           0.289057            7.86565
     59       0.00000           0.312214            8.49579
     60       0.00000           0.322809            8.78409
     61       0.00000           0.343664            9.35156
     62       0.00000           0.347056            9.44387
     63       0.00000           0.365316            9.94076
     64       0.00000           0.372315           10.13121
     65       0.00000           0.391493           10.65308
     66       0.00000           0.396407           10.78679
     67       0.00000           0.405678           11.03905
     68       0.00000           0.427039           11.62032
     69       0.00000           0.438310           11.92703
     70       0.00000           0.445724           12.12878
     71       0.00000           0.453270           12.33410
     72       0.00000           0.464009           12.62634
     73       0.00000           0.497723           13.54372
     74       0.00000           0.501949           13.65873
     75       0.00000           0.504977           13.74114
     76       0.00000           0.542910           14.77335
     77       0.00000           0.547462           14.89720
     78       0.00000           0.563236           15.32642
     79       0.00000           0.577078           15.70309
     80       0.00000           0.592023           16.10976
     81       0.00000           0.631647           17.18798
     82       0.00000           0.664319           18.07703
     83       0.00000           0.707240           19.24497
     84       0.00000           0.721769           19.64034
     85       0.00000           0.744525           20.25955

  Highest occupied state (VBM) at    -10.94578029 eV
  | Occupation number:      2.00000000

  Lowest unoccupied state (CBM) at    -2.64440014 eV
  | Occupation number:      0.00000000

  Overall HOMO-LUMO gap:      8.30138014 eV.
  Calculating total energy contributions from superposition of free atom densities.

  Total energy components:
  | Sum of eigenvalues            :        -216.77483323 Ha       -5898.74333688 eV
  | XC energy correction          :         -45.55028041 Ha       -1239.48619436 eV
  | XC potential correction       :          58.20248177 Ha        1583.77011028 eV
  | Free-atom electrostatic energy:        -178.95520749 Ha       -4869.61895941 eV
  | Hartree energy correction     :           0.00000000 Ha           0.00000000 eV
  | van der Waals energy corr.    :           0.00000000 Ha           0.00000000 eV
  | Entropy correction            :           0.00000000 Ha           0.00000000 eV
  | ---------------------------
  | Total energy                  :        -383.07783936 Ha      -10424.07838036 eV
  | Total energy, T -> 0          :        -383.07783936 Ha      -10424.07838036 eV  <-- do not rely on this value for anything but (periodic) metals
  | Electronic free energy        :        -383.07783936 Ha      -10424.07838036 eV

  Derived energy quantities:
  | Kinetic energy                :         379.11938863 Ha       10316.36345540 eV
  | Electrostatic energy          :        -716.64694758 Ha      -19500.95564141 eV
  | Energy correction for multipole
  | error in Hartree potential    :           0.00000000 Ha           0.00000000 eV
  | Sum of eigenvalues per atom                           :        -393.24955579 eV
  | Total energy (T->0) per atom                          :        -694.93855869 eV  <-- do not rely on this value for anything but (periodic) metals
  | Electronic free energy per atom                       :        -694.93855869 eV
  Initialize hartree_potential_storage
  Max. number of atoms included in rho_multipole:           15

  End scf initialization - timings             :  max(cpu_time)    wall_clock(cpu1)
  | Time for scf. initialization               :        2.046 s           2.045 s
  | Boundary condition initialization          :        0.000 s           0.000 s
  | Integration                                :        1.469 s           1.468 s
  | Solution of K.-S. eqns.                    :        0.197 s           0.197 s
  | Grid partitioning                          :        0.164 s           0.164 s
  | Preloading free-atom quantities on grid    :        0.013 s           0.013 s
  | Free-atom superposition energy             :        0.066 s           0.066 s
  | Total energy evaluation                    :        0.001 s           0.001 s
------------------------------------------------------------

------------------------------------------------------------
          Begin self-consistency iteration #    1

  Date     :  20150727, Time     :  120838.546
------------------------------------------------------------
  Evaluating new KS density.
  Integration grid: deviation in total charge (<rho> - N_e) =   2.131628E-14
  Pulay mixing of updated and previous charge densities.

  Evaluating partitioned Hartree potential by multipole expansion.
  | Analytical far-field extrapolation by fixed multipoles:
  | Hartree multipole sum: apparent total charge =  -0.163663E-05
  Summing up the Hartree potential.
  Time summed over all CPUs for potential: real work        2.568 s, elapsed        2.577 s
  | RMS charge density error from multipole expansion :   0.162443E-02

  Integrating Hamiltonian matrix: batch-based integration.
  Time summed over all CPUs for integration: real work        7.440 s, elapsed        7.582 s

  Updating Kohn-Sham eigenvalues, eigenvectors, occupation numbers, and Fermi level.
  Solving generalized eigenproblem
  Updating Kohn-Sham eigenvalues and eigenfunctions.
  Solving real generalised eigenvalue problem by standard LAPACK (fast)
  Determining occupation numbers for Kohn-Sham eigenstates.
  | Chemical potential (Fermi level) in eV                 : -.31765964E+01
  | Error in electron count due to remaining E_F inaccuracy: 0.00000000E+00
  | Maximum occupation number of highest empty state:  0.00E+00

  Writing Kohn-Sham eigenvalues.

  State    Occupation    Eigenvalue [Ha]    Eigenvalue [eV]
      1       2.00000         -18.985523         -516.62238
      2       2.00000         -18.968456         -516.15795
      3       2.00000         -18.968162         -516.14995
      4       2.00000         -18.960011         -515.92815
      5       2.00000         -18.938522         -515.34340
      6       2.00000          -1.070405          -29.12720
      7       2.00000          -1.061460          -28.88379
      8       2.00000          -1.051291          -28.60708
      9       2.00000          -1.032700          -28.10119
     10       2.00000          -0.998862          -27.18041
     11       2.00000          -0.613869          -16.70424
     12       2.00000          -0.605426          -16.47447
     13       2.00000          -0.603432          -16.42023
     14       2.00000          -0.577576          -15.71665
     15       2.00000          -0.532949          -14.50227
     16       2.00000          -0.493593          -13.43134
     17       2.00000          -0.465678          -12.67174
     18       2.00000          -0.461490          -12.55779
     19       2.00000          -0.449656          -12.23575
     20       2.00000          -0.430328          -11.70983
     21       2.00000          -0.407739          -11.09515
     22       2.00000          -0.396418          -10.78707
     23       2.00000          -0.391499          -10.65323
     24       2.00000          -0.387480          -10.54386
     25       2.00000          -0.354084           -9.63511
     26       0.00000          -0.087856           -2.39068
     27       0.00000          -0.065565           -1.78411
     28       0.00000          -0.051186           -1.39285
     29       0.00000          -0.038573           -1.04963
     30       0.00000          -0.024821           -0.67542
     31       0.00000          -0.007776           -0.21160
     32       0.00000           0.002815            0.07660
     33       0.00000           0.051473            1.40065
     34       0.00000           0.055494            1.51006
     35       0.00000           0.067428            1.83480
     36       0.00000           0.078660            2.14045
     37       0.00000           0.089489            2.43512
     38       0.00000           0.099543            2.70872
     39       0.00000           0.105779            2.87840
     40       0.00000           0.114716            3.12159
     41       0.00000           0.121118            3.29578
     42       0.00000           0.124820            3.39652
     43       0.00000           0.129743            3.53050
     44       0.00000           0.136535            3.71530
     45       0.00000           0.140391            3.82024
     46       0.00000           0.158850            4.32253
     47       0.00000           0.168798            4.59323
     48       0.00000           0.176315            4.79778
     49       0.00000           0.182784            4.97382
     50       0.00000           0.188963            5.14194
     51       0.00000           0.201099            5.47217
     52       0.00000           0.224722            6.11500
     53       0.00000           0.253448            6.89667
     54       0.00000           0.256067            6.96793
     55       0.00000           0.267359            7.27521
     56       0.00000           0.276533            7.52484
     57       0.00000           0.292192            7.95095
     58       0.00000           0.297516            8.09583
     59       0.00000           0.322206            8.76766
     60       0.00000           0.333215            9.06725
     61       0.00000           0.353053            9.60707
     62       0.00000           0.354249            9.63961
     63       0.00000           0.376332           10.24050
     64       0.00000           0.384004           10.44929
     65       0.00000           0.400772           10.90557
     66       0.00000           0.408395           11.11299
     67       0.00000           0.415702           11.31183
     68       0.00000           0.437462           11.90394
     69       0.00000           0.447626           12.18053
     70       0.00000           0.456296           12.41644
     71       0.00000           0.462941           12.59725
     72       0.00000           0.477573           12.99542
     73       0.00000           0.508286           13.83118
     74       0.00000           0.516301           14.04926
     75       0.00000           0.518120           14.09875
     76       0.00000           0.555046           15.10357
     77       0.00000           0.561211           15.27134
     78       0.00000           0.575479           15.65959
     79       0.00000           0.591879           16.10586
     80       0.00000           0.606052           16.49151
     81       0.00000           0.649295           17.66820
     82       0.00000           0.678399           18.46017
     83       0.00000           0.720585           19.60811
     84       0.00000           0.734854           19.99638
     85       0.00000           0.757293           20.60700

  Highest occupied state (VBM) at     -9.63510874 eV
  | Occupation number:      2.00000000

  Lowest unoccupied state (CBM) at    -2.39068023 eV
  | Occupation number:      0.00000000

  Overall HOMO-LUMO gap:      7.24442851 eV.

  Total energy components:
  | Sum of eigenvalues            :        -214.41321674 Ha       -5834.48048271 eV
  | XC energy correction          :         -45.79301861 Ha       -1246.09143694 eV
  | XC potential correction       :          58.52016565 Ha        1592.41472864 eV
  | Free-atom electrostatic energy:        -178.95520749 Ha       -4869.61895941 eV
  | Hartree energy correction     :          -2.28760493 Ha         -62.24889720 eV
  | van der Waals energy corr.    :           0.00000000 Ha           0.00000000 eV
  | Entropy correction            :           0.00000000 Ha           0.00000000 eV
  | ---------------------------
  | Total energy                  :        -382.92888212 Ha      -10420.02504763 eV
  | Total energy, T -> 0          :        -382.92888212 Ha      -10420.02504763 eV  <-- do not rely on this value for anything but (periodic) metals
  | Electronic free energy        :        -382.92888212 Ha      -10420.02504763 eV

  Derived energy quantities:
  | Kinetic energy                :         380.56284339 Ha       10355.64185793 eV
  | Electrostatic energy          :        -717.69870690 Ha      -19529.57546861 eV
  | Energy correction for multipole
  | error in Hartree potential    :           0.00005451 Ha           0.00148317 eV
  | Sum of eigenvalues per atom                           :        -388.96536551 eV
  | Total energy (T->0) per atom                          :        -694.66833651 eV  <-- do not rely on this value for anything but (periodic) metals
  | Electronic free energy per atom                       :        -694.66833651 eV

  Self-consistency convergence accuracy:
  | Change of charge density      : 0.6680E+00
  | Change of sum of eigenvalues  : 0.6426E+02 eV
  | Change of total energy        : 0.4053E+01 eV

  End self-consistency iteration #     1       :  max(cpu_time)    wall_clock(cpu1)
  | Time for this iteration                    :        1.983 s           1.983 s
  | Charge density update                      :        0.647 s           0.647 s
  | Density mixing                             :        0.004 s           0.004 s
  | Hartree multipole update                   :        0.005 s           0.005 s
  | Hartree multipole summation                :        0.323 s           0.323 s
  | Integration                                :        0.949 s           0.949 s
  | Solution of K.-S. eqns.                    :        0.054 s           0.054 s
  | Total energy evaluation                    :        0.000 s           0.001 s
------------------------------------------------------------

------------------------------------------------------------
          Begin self-consistency iteration #    2

  Date     :  20150727, Time     :  120840.529
------------------------------------------------------------
  Evaluating new KS density.
  Integration grid: deviation in total charge (<rho> - N_e) =  -7.105427E-15
  Pulay mixing of updated and previous charge densities.

  Evaluating partitioned Hartree potential by multipole expansion.
  | Analytical far-field extrapolation by fixed multipoles:
  | Hartree multipole sum: apparent total charge =  -0.438787E-05
  Summing up the Hartree potential.
  Time summed over all CPUs for potential: real work        2.568 s, elapsed        2.577 s
  | RMS charge density error from multipole expansion :   0.647323E-02

  Integrating Hamiltonian matrix: batch-based integration.
  Time summed over all CPUs for integration: real work        7.434 s, elapsed        7.573 s

  Updating Kohn-Sham eigenvalues, eigenvectors, occupation numbers, and Fermi level.
  Solving generalized eigenproblem
  Updating Kohn-Sham eigenvalues and eigenfunctions.
  Solving real generalised eigenvalue problem by standard LAPACK (fast)
  Determining occupation numbers for Kohn-Sham eigenstates.
  | Chemical potential (Fermi level) in eV                 : -.21296859E+01
  | Error in electron count due to remaining E_F inaccuracy: 0.00000000E+00
  | Maximum occupation number of highest empty state:  0.00E+00

  Highest occupied state (VBM) at     -6.52322111 eV
  | Occupation number:      2.00000000

  Lowest unoccupied state (CBM) at    -1.92783806 eV
  | Occupation number:      0.00000000

  Overall HOMO-LUMO gap:      4.59538305 eV.

  Total energy components:
  | Sum of eigenvalues            :        -208.86937526 Ha       -5683.62488039 eV
  | XC energy correction          :         -46.38691555 Ha       -1262.25219480 eV
  | XC potential correction       :          59.29673159 Ha        1613.54616279 eV
  | Free-atom electrostatic energy:        -178.95520749 Ha       -4869.61895941 eV
  | Hartree energy correction     :          -7.84290160 Ha        -213.41621114 eV
  | van der Waals energy corr.    :           0.00000000 Ha           0.00000000 eV
  | Entropy correction            :           0.00000000 Ha           0.00000000 eV
  | ---------------------------
  | Total energy                  :        -382.75766832 Ha      -10415.36608296 eV
  | Total energy, T -> 0          :        -382.75766832 Ha      -10415.36608296 eV  <-- do not rely on this value for anything but (periodic) metals
  | Electronic free energy        :        -382.75766832 Ha      -10415.36608296 eV

  Derived energy quantities:
  | Kinetic energy                :         383.43393163 Ha       10433.76814406 eV
  | Electrostatic energy          :        -719.80468440 Ha      -19586.88203222 eV
  | Energy correction for multipole
  | error in Hartree potential    :          -0.00061616 Ha          -0.01676666 eV
  | Sum of eigenvalues per atom                           :        -378.90832536 eV
  | Total energy (T->0) per atom                          :        -694.35773886 eV  <-- do not rely on this value for anything but (periodic) metals
  | Electronic free energy per atom                       :        -694.35773886 eV

  Self-consistency convergence accuracy:
  | Change of charge density      : 0.5050E+00
  | Change of sum of eigenvalues  : 0.1509E+03 eV
  | Change of total energy        : 0.4659E+01 eV

  End self-consistency iteration #     2       :  max(cpu_time)    wall_clock(cpu1)
  | Time for this iteration                    :        1.978 s           1.978 s
  | Charge density update                      :        0.643 s           0.642 s
  | Density mixing                             :        0.005 s           0.006 s
  | Hartree multipole update                   :        0.005 s           0.005 s
  | Hartree multipole summation                :        0.323 s           0.323 s
  | Integration                                :        0.948 s           0.948 s
  | Solution of K.-S. eqns.                    :        0.054 s           0.054 s
  | Total energy evaluation                    :        0.000 s           0.000 s
------------------------------------------------------------

------------------------------------------------------------
          Begin self-consistency iteration #    3

  Date     :  20150727, Time     :  120842.507
------------------------------------------------------------
  Evaluating new KS density.
  Integration grid: deviation in total charge (<rho> - N_e) =   1.421085E-14
  Pulay mixing of updated and previous charge densities.

  Evaluating partitioned Hartree potential by multipole expansion.
  | Analytical far-field extrapolation by fixed multipoles:
  | Hartree multipole sum: apparent total charge =  -0.312975E-05
  Summing up the Hartree potential.
  Time summed over all CPUs for potential: real work        2.568 s, elapsed        2.577 s
  | RMS charge density error from multipole expansion :   0.129981E-01

  Integrating Hamiltonian matrix: batch-based integration.
  Time summed over all CPUs for integration: real work        7.433 s, elapsed        7.566 s

  Updating Kohn-Sham eigenvalues, eigenvectors, occupation numbers, and Fermi level.
  Solving generalized eigenproblem
  Updating Kohn-Sham eigenvalues and eigenfunctions.
  Solving real generalised eigenvalue problem by standard LAPACK (fast)
  Determining occupation numbers for Kohn-Sham eigenstates.
  | Chemical potential (Fermi level) in eV                 : -.30957355E+01
  | Error in electron count due to remaining E_F inaccuracy: 0.00000000E+00
  | Maximum occupation number of highest empty state:  0.00E+00

  Highest occupied state (VBM) at     -6.41641328 eV
  | Occupation number:      2.00000000

  Lowest unoccupied state (CBM) at    -1.91110459 eV
  | Occupation number:      0.00000000

  Overall HOMO-LUMO gap:      4.50530869 eV.

  Total energy components:
  | Sum of eigenvalues            :        -209.07640445 Ha       -5689.25843134 eV
  | XC energy correction          :         -46.35857719 Ha       -1261.48106880 eV
  | XC potential correction       :          59.25458954 Ha        1612.39941946 eV
  | Free-atom electrostatic energy:        -178.95520749 Ha       -4869.61895941 eV
  | Hartree energy correction     :          -7.61735741 Ha        -207.27884143 eV
  | van der Waals energy corr.    :           0.00000000 Ha           0.00000000 eV
  | Entropy correction            :           0.00000000 Ha           0.00000000 eV
  | ---------------------------
  | Total energy                  :        -382.75295700 Ha      -10415.23788154 eV
  | Total energy, T -> 0          :        -382.75295700 Ha      -10415.23788154 eV  <-- do not rely on this value for anything but (periodic) metals
  | Electronic free energy        :        -382.75295700 Ha      -10415.23788154 eV

  Derived energy quantities:
  | Kinetic energy                :         381.40614544 Ha       10378.58927415 eV
  | Electrostatic energy          :        -717.80052525 Ha      -19532.34608688 eV
  | Energy correction for multipole
  | error in Hartree potential    :          -0.00492320 Ha          -0.13396699 eV
  | Sum of eigenvalues per atom                           :        -379.28389542 eV
  | Total energy (T->0) per atom                          :        -694.34919210 eV  <-- do not rely on this value for anything but (periodic) metals
  | Electronic free energy per atom                       :        -694.34919210 eV

  Self-consistency convergence accuracy:
  | Change of charge density      : 0.2547E+00
  | Change of sum of eigenvalues  : -.5634E+01 eV
  | Change of total energy        : 0.1282E+00 eV

  End self-consistency iteration #     3       :  max(cpu_time)    wall_clock(cpu1)
  | Time for this iteration                    :        1.974 s           1.974 s
  | Charge density update                      :        0.637 s           0.638 s
  | Density mixing                             :        0.007 s           0.007 s
  | Hartree multipole update                   :        0.005 s           0.005 s
  | Hartree multipole summation                :        0.323 s           0.323 s
  | Integration                                :        0.948 s           0.947 s
  | Solution of K.-S. eqns.                    :        0.053 s           0.054 s
  | Total energy evaluation                    :        0.000 s           0.000 s
------------------------------------------------------------

------------------------------------------------------------
          Begin self-consistency iteration #    4

  Date     :  20150727, Time     :  120844.481
------------------------------------------------------------
  Evaluating new KS density.
  Integration grid: deviation in total charge (<rho> - N_e) =   2.131628E-14
  Pulay mixing of updated and previous charge densities.

  Evaluating partitioned Hartree potential by multipole expansion.
  | Analytical far-field extrapolation by fixed multipoles:
  | Hartree multipole sum: apparent total charge =  -0.353242E-05
  Summing up the Hartree potential.
  Time summed over all CPUs for potential: real work        2.567 s, elapsed        2.576 s
  | RMS charge density error from multipole expansion :   0.168032E-01

  Integrating Hamiltonian matrix: batch-based integration.
  Time summed over all CPUs for integration: real work        7.428 s, elapsed        7.551 s

  Updating Kohn-Sham eigenvalues, eigenvectors, occupation numbers, and Fermi level.
  Solving generalized eigenproblem
  Updating Kohn-Sham eigenvalues and eigenfunctions.
  Solving real generalised eigenvalue problem by standard LAPACK (fast)
  Determining occupation numbers for Kohn-Sham eigenstates.
  | Chemical potential (Fermi level) in eV                 : -.26119424E+01
  | Error in electron count due to remaining E_F inaccuracy: 0.00000000E+00
  | Maximum occupation number of highest empty state:  0.00E+00

  Highest occupied state (VBM) at     -5.27470209 eV
  | Occupation number:      2.00000000

  Lowest unoccupied state (CBM) at    -1.79610804 eV
  | Occupation number:      0.00000000

  Overall HOMO-LUMO gap:      3.47859405 eV.

  Total energy components:
  | Sum of eigenvalues            :        -207.34489334 Ha       -5642.14161686 eV
  | XC energy correction          :         -46.56167902 Ha       -1267.00775078 eV
  | XC potential correction       :          59.51908569 Ha        1619.59672587 eV
  | Free-atom electrostatic energy:        -178.95520749 Ha       -4869.61895941 eV
  | Hartree energy correction     :          -9.39813327 Ha        -255.73621787 eV
  | van der Waals energy corr.    :           0.00000000 Ha           0.00000000 eV
  | Entropy correction            :           0.00000000 Ha           0.00000000 eV
  | ---------------------------
  | Total energy                  :        -382.74082743 Ha      -10414.90781905 eV
  | Total energy, T -> 0          :        -382.74082743 Ha      -10414.90781905 eV  <-- do not rely on this value for anything but (periodic) metals
  | Electronic free energy        :        -382.74082743 Ha      -10414.90781905 eV

  Derived energy quantities:
  | Kinetic energy                :         381.62436872 Ha       10384.52743176 eV
  | Electrostatic energy          :        -717.80351713 Ha      -19532.42750003 eV
  | Energy correction for multipole
  | error in Hartree potential    :          -0.00667854 Ha          -0.18173245 eV
  | Sum of eigenvalues per atom                           :        -376.14277446 eV
  | Total energy (T->0) per atom                          :        -694.32718794 eV  <-- do not rely on this value for anything but (periodic) metals
  | Electronic free energy per atom                       :        -694.32718794 eV

  Self-consistency convergence accuracy:
  | Change of charge density      : 0.1418E+00
  | Change of sum of eigenvalues  : 0.4712E+02 eV
  | Change of total energy        : 0.3301E+00 eV

  End self-consistency iteration #     4       :  max(cpu_time)    wall_clock(cpu1)
  | Time for this iteration                    :        1.974 s           1.974 s
  | Charge density update                      :        0.638 s           0.638 s
  | Density mixing                             :        0.008 s           0.008 s
  | Hartree multipole update                   :        0.005 s           0.005 s
  | Hartree multipole summation                :        0.323 s           0.323 s
  | Integration                                :        0.946 s           0.945 s
  | Solution of K.-S. eqns.                    :        0.053 s           0.053 s
  | Total energy evaluation                    :        0.000 s           0.001 s
------------------------------------------------------------

------------------------------------------------------------
          Begin self-consistency iteration #    5

  Date     :  20150727, Time     :  120846.455
------------------------------------------------------------
  Evaluating new KS density.
  Integration grid: deviation in total charge (<rho> - N_e) =   7.105427E-15
  Pulay mixing of updated and previous charge densities.

  Evaluating partitioned Hartree potential by multipole expansion.
  | Analytical far-field extrapolation by fixed multipoles:
  | Hartree multipole sum: apparent total charge =  -0.338719E-05
  Summing up the Hartree potential.
  Time summed over all CPUs for potential: real work        2.567 s, elapsed        2.575 s
  | RMS charge density error from multipole expansion :   0.175829E-01

  Integrating Hamiltonian matrix: batch-based integration.
  Time summed over all CPUs for integration: real work        7.425 s, elapsed        7.546 s

  Updating Kohn-Sham eigenvalues, eigenvectors, occupation numbers, and Fermi level.
  Solving generalized eigenproblem
  Updating Kohn-Sham eigenvalues and eigenfunctions.
  Solving real generalised eigenvalue problem by standard LAPACK (fast)
  Determining occupation numbers for Kohn-Sham eigenstates.
  | Chemical potential (Fermi level) in eV                 : -.25936549E+01
  | Error in electron count due to remaining E_F inaccuracy: 0.00000000E+00
  | Maximum occupation number of highest empty state:  0.00E+00

  Highest occupied state (VBM) at     -5.10814372 eV
  | Occupation number:      2.00000000

  Lowest unoccupied state (CBM) at    -1.78908144 eV
  | Occupation number:      0.00000000

  Overall HOMO-LUMO gap:      3.31906228 eV.

  Total energy components:
  | Sum of eigenvalues            :        -207.23924702 Ha       -5639.26683402 eV
  | XC energy correction          :         -46.57834849 Ha       -1267.46135025 eV
  | XC potential correction       :          59.54026977 Ha        1620.17317387 eV
  | Free-atom electrostatic energy:        -178.95520749 Ha       -4869.61895941 eV
  | Hartree energy correction     :          -9.50784921 Ha        -258.72174071 eV
  | van der Waals energy corr.    :           0.00000000 Ha           0.00000000 eV
  | Entropy correction            :           0.00000000 Ha           0.00000000 eV
  | ---------------------------
  | Total energy                  :        -382.74038245 Ha      -10414.89571053 eV
  | Total energy, T -> 0          :        -382.74038245 Ha      -10414.89571053 eV  <-- do not rely on this value for anything but (periodic) metals
  | Electronic free energy        :        -382.74038245 Ha      -10414.89571053 eV

  Derived energy quantities:
  | Kinetic energy                :         381.60594242 Ha       10384.02602679 eV
  | Electrostatic energy          :        -717.76797638 Ha      -19531.46038707 eV
  | Energy correction for multipole
  | error in Hartree potential    :          -0.00700817 Ha          -0.19070197 eV
  | Sum of eigenvalues per atom                           :        -375.95112227 eV
  | Total energy (T->0) per atom                          :        -694.32638070 eV  <-- do not rely on this value for anything but (periodic) metals
  | Electronic free energy per atom                       :        -694.32638070 eV

  Self-consistency convergence accuracy:
  | Change of charge density      : 0.3922E-01
  | Change of sum of eigenvalues  : 0.2875E+01 eV
  | Change of total energy        : 0.1211E-01 eV

  End self-consistency iteration #     5       :  max(cpu_time)    wall_clock(cpu1)
  | Time for this iteration                    :        1.974 s           1.974 s
  | Charge density update                      :        0.638 s           0.638 s
  | Density mixing                             :        0.009 s           0.009 s
  | Hartree multipole update                   :        0.004 s           0.005 s
  | Hartree multipole summation                :        0.323 s           0.323 s
  | Integration                                :        0.945 s           0.945 s
  | Solution of K.-S. eqns.                    :        0.054 s           0.053 s
  | Total energy evaluation                    :        0.000 s           0.000 s
------------------------------------------------------------

------------------------------------------------------------
          Begin self-consistency iteration #    6

  Date     :  20150727, Time     :  120848.429
------------------------------------------------------------
  Evaluating new KS density.
  Integration grid: deviation in total charge (<rho> - N_e) =   0.000000E+00
  Pulay mixing of updated and previous charge densities.

  Evaluating partitioned Hartree potential by multipole expansion.
  | Analytical far-field extrapolation by fixed multipoles:
  | Hartree multipole sum: apparent total charge =  -0.337040E-05
  Summing up the Hartree potential.
  Time summed over all CPUs for potential: real work        2.567 s, elapsed        2.575 s
  | RMS charge density error from multipole expansion :   0.177606E-01

  Integrating Hamiltonian matrix: batch-based integration.
  Time summed over all CPUs for integration: real work        7.432 s, elapsed        7.554 s

  Updating Kohn-Sham eigenvalues, eigenvectors, occupation numbers, and Fermi level.
  Solving generalized eigenproblem
  Updating Kohn-Sham eigenvalues and eigenfunctions.
  Solving real generalised eigenvalue problem by standard LAPACK (fast)
  Determining occupation numbers for Kohn-Sham eigenstates.
  | Chemical potential (Fermi level) in eV                 : -.25837905E+01
  | Error in electron count due to remaining E_F inaccuracy: 0.00000000E+00
  | Maximum occupation number of highest empty state:  0.00E+00

  Highest occupied state (VBM) at     -5.09269559 eV
  | Occupation number:      2.00000000

  Lowest unoccupied state (CBM) at    -1.78363391 eV
  | Occupation number:      0.00000000

  Overall HOMO-LUMO gap:      3.30906168 eV.

  Total energy components:
  | Sum of eigenvalues            :        -207.19902747 Ha       -5638.17240456 eV
  | XC energy correction          :         -46.58369114 Ha       -1267.60673091 eV
  | XC potential correction       :          59.54714433 Ha        1620.36024012 eV
  | Free-atom electrostatic energy:        -178.95520749 Ha       -4869.61895941 eV
  | Hartree energy correction     :          -9.54964048 Ha        -259.85893906 eV
  | van der Waals energy corr.    :           0.00000000 Ha           0.00000000 eV
  | Entropy correction            :           0.00000000 Ha           0.00000000 eV
  | ---------------------------
  | Total energy                  :        -382.74042226 Ha      -10414.89679383 eV
  | Total energy, T -> 0          :        -382.74042226 Ha      -10414.89679383 eV  <-- do not rely on this value for anything but (periodic) metals
  | Electronic free energy        :        -382.74042226 Ha      -10414.89679383 eV

  Derived energy quantities:
  | Kinetic energy                :         381.60205301 Ha       10383.92019032 eV
  | Electrostatic energy          :        -717.75878413 Ha      -19531.21025323 eV
  | Energy correction for multipole
  | error in Hartree potential    :          -0.00709160 Ha          -0.19297229 eV
  | Sum of eigenvalues per atom                           :        -375.87816030 eV
  | Total energy (T->0) per atom                          :        -694.32645292 eV  <-- do not rely on this value for anything but (periodic) metals
  | Electronic free energy per atom                       :        -694.32645292 eV

  Self-consistency convergence accuracy:
  | Change of charge density      : 0.1099E-01
  | Change of sum of eigenvalues  : 0.1094E+01 eV
  | Change of total energy        : -.1083E-02 eV

  End self-consistency iteration #     6       :  max(cpu_time)    wall_clock(cpu1)
  | Time for this iteration                    :        1.976 s           1.975 s
  | Charge density update                      :        0.637 s           0.636 s
  | Density mixing                             :        0.011 s           0.011 s
  | Hartree multipole update                   :        0.005 s           0.004 s
  | Hartree multipole summation                :        0.323 s           0.323 s
  | Integration                                :        0.946 s           0.946 s
  | Solution of K.-S. eqns.                    :        0.053 s           0.053 s
  | Total energy evaluation                    :        0.001 s           0.000 s
------------------------------------------------------------

------------------------------------------------------------
          Begin self-consistency iteration #    7

  Date     :  20150727, Time     :  120850.404
------------------------------------------------------------
  Evaluating new KS density.
  Integration grid: deviation in total charge (<rho> - N_e) =   2.131628E-14
  Pulay mixing of updated and previous charge densities.

  Evaluating partitioned Hartree potential by multipole expansion.
  | Analytical far-field extrapolation by fixed multipoles:
  | Hartree multipole sum: apparent total charge =  -0.310075E-05
  Summing up the Hartree potential.
  Time summed over all CPUs for potential: real work        2.567 s, elapsed        2.576 s
  | RMS charge density error from multipole expansion :   0.177992E-01

  Integrating Hamiltonian matrix: batch-based integration.
  Time summed over all CPUs for integration: real work        7.429 s, elapsed        7.561 s

  Updating Kohn-Sham eigenvalues, eigenvectors, occupation numbers, and Fermi level.
  Solving generalized eigenproblem
  Updating Kohn-Sham eigenvalues and eigenfunctions.
  Solving real generalised eigenvalue problem by standard LAPACK (fast)
  Determining occupation numbers for Kohn-Sham eigenstates.
  | Chemical potential (Fermi level) in eV                 : -.26622908E+01
  | Error in electron count due to remaining E_F inaccuracy: 0.00000000E+00
  | Maximum occupation number of highest empty state:  0.00E+00

  Highest occupied state (VBM) at     -5.19903648 eV
  | Occupation number:      2.00000000

  Lowest unoccupied state (CBM) at    -1.79462336 eV
  | Occupation number:      0.00000000

  Overall HOMO-LUMO gap:      3.40441312 eV.

  Total energy components:
  | Sum of eigenvalues            :        -207.35338689 Ha       -5642.37273815 eV
  | XC energy correction          :         -46.56899782 Ha       -1267.20690538 eV
  | XC potential correction       :          59.52732928 Ha        1619.82104518 eV
  | Free-atom electrostatic energy:        -178.95520749 Ha       -4869.61895941 eV
  | Hartree energy correction     :          -9.39006752 Ha        -255.51673779 eV
  | van der Waals energy corr.    :           0.00000000 Ha           0.00000000 eV
  | Entropy correction            :           0.00000000 Ha           0.00000000 eV
  | ---------------------------
  | Total energy                  :        -382.74033045 Ha      -10414.89429556 eV
  | Total energy, T -> 0          :        -382.74033045 Ha      -10414.89429556 eV  <-- do not rely on this value for anything but (periodic) metals
  | Electronic free energy        :        -382.74033045 Ha      -10414.89429556 eV

  Derived energy quantities:
  | Kinetic energy                :         381.66405799 Ha       10385.60743180 eV
  | Electrostatic energy          :        -717.83539062 Ha      -19533.29482197 eV
  | Energy correction for multipole
  | error in Hartree potential    :          -0.00698185 Ha          -0.18998572 eV
  | Sum of eigenvalues per atom                           :        -376.15818254 eV
  | Total energy (T->0) per atom                          :        -694.32628637 eV  <-- do not rely on this value for anything but (periodic) metals
  | Electronic free energy per atom                       :        -694.32628637 eV

  Self-consistency convergence accuracy:
  | Change of charge density      : 0.1024E-01
  | Change of sum of eigenvalues  : -.4200E+01 eV
  | Change of total energy        : 0.2498E-02 eV

  End self-consistency iteration #     7       :  max(cpu_time)    wall_clock(cpu1)
  | Time for this iteration                    :        1.977 s           1.977 s
  | Charge density update                      :        0.636 s           0.636 s
  | Density mixing                             :        0.013 s           0.013 s
  | Hartree multipole update                   :        0.004 s           0.005 s
  | Hartree multipole summation                :        0.322 s           0.322 s
  | Integration                                :        0.947 s           0.947 s
  | Solution of K.-S. eqns.                    :        0.054 s           0.054 s
  | Total energy evaluation                    :        0.000 s           0.000 s
------------------------------------------------------------

------------------------------------------------------------
          Begin self-consistency iteration #    8

  Date     :  20150727, Time     :  120852.381
------------------------------------------------------------
  Evaluating new KS density.
  Integration grid: deviation in total charge (<rho> - N_e) =   1.421085E-14
  Pulay mixing of updated and previous charge densities.

  Evaluating partitioned Hartree potential by multipole expansion.
  | Analytical far-field extrapolation by fixed multipoles:
  | Hartree multipole sum: apparent total charge =  -0.310168E-05
  Summing up the Hartree potential.
  Time summed over all CPUs for potential: real work        2.567 s, elapsed        2.576 s
  | RMS charge density error from multipole expansion :   0.178502E-01

  Integrating Hamiltonian matrix: batch-based integration.
  Time summed over all CPUs for integration: real work        7.433 s, elapsed        7.547 s

  Updating Kohn-Sham eigenvalues, eigenvectors, occupation numbers, and Fermi level.
  Solving generalized eigenproblem
  Updating Kohn-Sham eigenvalues and eigenfunctions.
  Solving real generalised eigenvalue problem by standard LAPACK (fast)
  Determining occupation numbers for Kohn-Sham eigenstates.
  | Chemical potential (Fermi level) in eV                 : -.26408911E+01
  | Error in electron count due to remaining E_F inaccuracy: 0.00000000E+00
  | Maximum occupation number of highest empty state:  0.00E+00

  Highest occupied state (VBM) at     -5.18384642 eV
  | Occupation number:      2.00000000

  Lowest unoccupied state (CBM) at    -1.79388264 eV
  | Occupation number:      0.00000000

  Overall HOMO-LUMO gap:      3.38996378 eV.

  Total energy components:
  | Sum of eigenvalues            :        -207.33517987 Ha       -5641.87729988 eV
  | XC energy correction          :         -46.57095604 Ha       -1267.26019127 eV
  | XC potential correction       :          59.52987713 Ha        1619.89037587 eV
  | Free-atom electrostatic energy:        -178.95520749 Ha       -4869.61895941 eV
  | Hartree energy correction     :          -9.40886484 Ha        -256.02823881 eV
  | van der Waals energy corr.    :           0.00000000 Ha           0.00000000 eV
  | Entropy correction            :           0.00000000 Ha           0.00000000 eV
  | ---------------------------
  | Total energy                  :        -382.74033111 Ha      -10414.89431351 eV
  | Total energy, T -> 0          :        -382.74033111 Ha      -10414.89431351 eV  <-- do not rely on this value for anything but (periodic) metals
  | Electronic free energy        :        -382.74033111 Ha      -10414.89431351 eV

  Derived energy quantities:
  | Kinetic energy                :         381.66334098 Ha       10385.58792097 eV
  | Electrostatic energy          :        -717.83271605 Ha      -19533.22204322 eV
  | Energy correction for multipole
  | error in Hartree potential    :          -0.00701430 Ha          -0.19086883 eV
  | Sum of eigenvalues per atom                           :        -376.12515333 eV
  | Total energy (T->0) per atom                          :        -694.32628757 eV  <-- do not rely on this value for anything but (periodic) metals
  | Electronic free energy per atom                       :        -694.32628757 eV

  Self-consistency convergence accuracy:
  | Change of charge density      : 0.1736E-02
  | Change of sum of eigenvalues  : 0.4954E+00 eV
  | Change of total energy        : -.1795E-04 eV

  End self-consistency iteration #     8       :  max(cpu_time)    wall_clock(cpu1)
  | Time for this iteration                    :        1.978 s           1.978 s
  | Charge density update                      :        0.637 s           0.637 s
  | Density mixing                             :        0.014 s           0.014 s
  | Hartree multipole update                   :        0.005 s           0.005 s
  | Hartree multipole summation                :        0.323 s           0.323 s
  | Integration                                :        0.945 s           0.945 s
  | Solution of K.-S. eqns.                    :        0.053 s           0.053 s
  | Total energy evaluation                    :        0.000 s           0.001 s
------------------------------------------------------------

------------------------------------------------------------
          Begin self-consistency iteration #    9

  Date     :  20150727, Time     :  120854.359
------------------------------------------------------------
  Evaluating new KS density.
  Integration grid: deviation in total charge (<rho> - N_e) =   7.105427E-15
  Pulay mixing of updated and previous charge densities.

  Evaluating partitioned Hartree potential by multipole expansion.
  | Analytical far-field extrapolation by fixed multipoles:
  | Hartree multipole sum: apparent total charge =  -0.310057E-05
  Summing up the Hartree potential.
  Time summed over all CPUs for potential: real work        2.567 s, elapsed        2.576 s
  | RMS charge density error from multipole expansion :   0.178514E-01

  Integrating Hamiltonian matrix: batch-based integration.
  Time summed over all CPUs for integration: real work        7.426 s, elapsed        7.551 s

  Updating Kohn-Sham eigenvalues, eigenvectors, occupation numbers, and Fermi level.
  Solving generalized eigenproblem
  Updating Kohn-Sham eigenvalues and eigenfunctions.
  Solving real generalised eigenvalue problem by standard LAPACK (fast)
  Determining occupation numbers for Kohn-Sham eigenstates.
  | Chemical potential (Fermi level) in eV                 : -.26339384E+01
  | Error in electron count due to remaining E_F inaccuracy: 0.00000000E+00
  | Maximum occupation number of highest empty state:  0.00E+00

  Highest occupied state (VBM) at     -5.18334377 eV
  | Occupation number:      2.00000000

  Lowest unoccupied state (CBM) at    -1.79408720 eV
  | Occupation number:      0.00000000

  Overall HOMO-LUMO gap:      3.38925656 eV.

  Total energy components:
  | Sum of eigenvalues            :        -207.33145363 Ha       -5641.77590370 eV
  | XC energy correction          :         -46.57118055 Ha       -1267.26630068 eV
  | XC potential correction       :          59.53017108 Ha        1619.89837454 eV
  | Free-atom electrostatic energy:        -178.95520749 Ha       -4869.61895941 eV
  | Hartree energy correction     :          -9.41265973 Ha        -256.13150311 eV
  | van der Waals energy corr.    :           0.00000000 Ha           0.00000000 eV
  | Entropy correction            :           0.00000000 Ha           0.00000000 eV
  | ---------------------------
  | Total energy                  :        -382.74033033 Ha      -10414.89429236 eV
  | Total energy, T -> 0          :        -382.74033033 Ha      -10414.89429236 eV  <-- do not rely on this value for anything but (periodic) metals
  | Electronic free energy        :        -382.74033033 Ha      -10414.89429236 eV

  Derived energy quantities:
  | Kinetic energy                :         381.66626951 Ha       10385.66761044 eV
  | Electrostatic energy          :        -717.83541929 Ha      -19533.29560212 eV
  | Energy correction for multipole
[...]
   ----------------------------------------------------------------
   Total forces(   4)            : -.766639E+00 -.202667E+01 -.601267E+00
  atom #    5
   Hellmann-Feynman + Multipole  : -.228489E+00 0.783123E+00 0.961309E+00
   Pulay + GGA                   : 0.749610E-02 0.370395E-01 0.849238E-01
   Van der Waals               : -.144906E-02 0.185361E-02 -.109159E-02
   ----------------------------------------------------------------
   Total forces(   5)            : -.222442E+00 0.822016E+00 0.104514E+01
  atom #    6
   Hellmann-Feynman + Multipole  : 0.763517E+00 0.762539E+00 0.144918E+00
   Pulay + GGA                   : -.106988E+00 -.484684E-01 0.621884E-01
   Van der Waals               : 0.247328E-02 0.514538E-02 0.472381E-03
   ----------------------------------------------------------------
   Total forces(   6)            : 0.659002E+00 0.719216E+00 0.207579E+00
  atom #    7
   Hellmann-Feynman + Multipole  : 0.435861E+01 -.575555E+01 -.717760E+01
   Pulay + GGA                   : -.501827E+01 0.664858E+01 0.980022E+01
   Van der Waals               : 0.105715E-03 -.210249E-02 -.622321E-03
   ----------------------------------------------------------------
   Total forces(   7)            : -.659551E+00 0.890928E+00 0.262199E+01
  atom #    8
   Hellmann-Feynman + Multipole  : -.277598E+00 0.179263E+00 -.231581E+01
   Pulay + GGA                   : 0.115005E-01 0.788842E-02 0.121740E+00
   Van der Waals               : -.149526E-02 0.109852E-02 -.414855E-02
   ----------------------------------------------------------------
   Total forces(   8)            : -.267592E+00 0.188250E+00 -.219822E+01
  atom #    9
   Hellmann-Feynman + Multipole  : 0.107145E+01 -.124294E+01 0.262683E+00
   Pulay + GGA                   : -.474450E-01 0.670405E-01 0.132300E-01
   Van der Waals               : -.169145E-02 -.132717E-02 0.130187E-02
   ----------------------------------------------------------------
   Total forces(   9)            : 0.102231E+01 -.117723E+01 0.277214E+00
  atom #   10
   Hellmann-Feynman + Multipole  : -.190183E+01 -.361985E+01 -.159249E+02
   Pulay + GGA                   : 0.327479E+01 0.443533E+01 0.138255E+02
   Van der Waals               : -.813310E-02 -.551935E-02 -.253564E-02
   ----------------------------------------------------------------
   Total forces(  10)            : 0.136483E+01 0.809968E+00 -.210194E+01
  atom #   11
   Hellmann-Feynman + Multipole  : -.491432E+00 -.341004E+00 0.181745E+00
   Pulay + GGA                   : 0.886394E-01 0.725707E-01 0.577488E-01
   Van der Waals               : -.497978E-02 -.209119E-02 0.134612E-02
   ----------------------------------------------------------------
   Total forces(  11)            : -.407773E+00 -.270524E+00 0.240840E+00
  atom #   12
   Hellmann-Feynman + Multipole  : -.600942E+00 -.405917E+00 0.148874E+01
   Pulay + GGA                   : -.439699E-01 -.879537E-02 0.626672E-01
   Van der Waals               : -.264879E-02 -.184976E-03 -.513694E-02
   ----------------------------------------------------------------
   Total forces(  12)            : -.647560E+00 -.414897E+00 0.154627E+01
  atom #   13
   Hellmann-Feynman + Multipole  : -.170975E+01 -.133329E+02 -.204353E+00
   Pulay + GGA                   : 0.267820E+01 0.138826E+02 -.176226E+01
   Van der Waals               : 0.617891E-02 -.655263E-02 -.159044E-02
   ----------------------------------------------------------------
   Total forces(  13)            : 0.974633E+00 0.543151E+00 -.196820E+01
  atom #   14
   Hellmann-Feynman + Multipole  : -.278765E+00 0.528777E+00 0.303075E+00
   Pulay + GGA                   : -.828639E-01 0.903442E-01 0.722491E-01
   Van der Waals               : 0.246077E-02 -.247489E-02 0.774509E-04
   ----------------------------------------------------------------
   Total forces(  14)            : -.359168E+00 0.616646E+00 0.375401E+00
  atom #   15
   Hellmann-Feynman + Multipole  : -.912613E+00 -.905766E+00 0.151510E+01
   Pulay + GGA                   : 0.387254E-01 0.724929E-01 -.105072E+00
   Van der Waals               : 0.379003E-02 -.255513E-02 -.101157E-02
   ----------------------------------------------------------------
   Total forces(  15)            : -.870098E+00 -.835828E+00 0.140902E+01
  Timings for vdw_correction_hirshfeld (Tkatchenko-Scheffler 2009):
  | CPU time:        5.359 s, Wall clock time:        5.360 s.
  Removing unitary transformations (pure translations, rotations) from forces on atoms.
  Atomic forces before filtering:
  | Net force on center of mass :  0.895122E-02 0.391479E-02 0.306135E-02 eV/A
  | Net torque on center of mass:  0.228492E-03 -.163640E-01 0.276974E-02 eV
  Atomic forces after filtering:
  | Net force on center of mass :  0.356812E-15 -.356812E-15 -.713624E-15 eV/A
  | Net torque on center of mass:  0.384714E-14 -.566451E-15 0.415397E-14 eV
 
  Energy and forces in a compact form:
  | Total energy uncorrected      :         -0.104149679276349E+05 eV
  | Total energy corrected        :         -0.104149679276349E+05 eV  <-- do not rely on this value for anything but (periodic) metals
  | Electronic free energy        :         -0.104149679276349E+05 eV
  Total atomic forces (unitary forces cleaned) [eV/Ang]:
  |   1         -0.105163941412939E+00          0.375883100454569E+01         -0.221542846943688E+01
  |   2          0.232409115127346E+01         -0.343008865886331E+01          0.148590894207994E+01
  |   3         -0.203384603812704E+01         -0.190660644697000E+00         -0.121981381597554E+00
  |   4         -0.767172528520494E+00         -0.202693407762445E+01         -0.601305669524140E+00
  |   5         -0.222818422259437E+00          0.821752789049781E+00          0.104503171982500E+01
  |   6          0.658561073354335E+00          0.718937356499562E+00          0.207781734906961E+00
  |   7         -0.659748014602758E+00          0.890674830742669E+00          0.262172317995345E+01
  |   8         -0.267488154392018E+00          0.188000832039041E+00         -0.219852470670462E+01
  |   9          0.102206358917837E+01         -0.117749060517491E+01          0.277155919867250E+00
  |  10          0.136410674430919E+01          0.809735451463906E+00         -0.210275866930567E+01
  |  11         -0.408403288916377E+00         -0.270745123477358E+00          0.239796829884281E+00
  |  12         -0.648069822784838E+00         -0.415135455610193E+00          0.154561621002258E+01
  |  13          0.974174208574092E+00          0.542868819310175E+00         -0.196794339375473E+01
  |  14         -0.359496022767038E+00          0.616359183617255E+00          0.375794394129628E+00
  |  15         -0.870790532906505E+00         -0.836105701820853E+00          0.140913335965451E+01
 
  ------------------------------------ 
  Start decomposition of the XC Energy 
  ------------------------------------ 
  Hartree-Fock part   :          0.000000000 Ha              0.000000000 eV
  ------------------------------------ 
  X Energy            :        -44.936193572 Ha          -1222.776041251 eV
  C Energy GGA        :         -1.634395314 Ha            -44.474159318 eV
  Total XC Energy     :        -46.570588886 Ha          -1267.250200569 eV
  LDA X and C from self-consistent density 
  X Energy LDA        :        -40.493808733 Ha          -1101.892599304 eV
  C Energy LDA        :         -3.298567363 Ha            -89.758584824 eV
  ------------------------------------ 
  End decomposition of the XC Energy 
  ------------------------------------ 
  Performing Hirshfeld analysis of fragment charges and moments.
  ----------------------------------------------------------------------
  | Atom     1: O
  |   Hirshfeld charge        :     -0.27730640
  |   Free atom volume        :     23.95238533
  |   Hirshfeld volume        :     22.65232781
  |   Hirshfeld dipole vector :      0.02272595       0.04022773       0.02920257
  |   Hirshfeld dipole moment :      0.05465830
  |   Hirshfeld second moments:      0.05178494      -0.02063934       0.02007685
  |                                 -0.02063934      -0.00597050      -0.03396352
  |                                  0.02007685      -0.03396352      -0.05401028
  ----------------------------------------------------------------------
  | Atom     2: H
  |   Hirshfeld charge        :      0.13174212
  |   Free atom volume        :     10.44207651
  |   Hirshfeld volume        :      6.97025175
  |   Hirshfeld dipole vector :     -0.06366148       0.09141453      -0.03067487
  |   Hirshfeld dipole moment :      0.11554371
  |   Hirshfeld second moments:      0.11755249       0.00400684       0.00573497
  |                                  0.00400684       0.08856020      -0.00725977
  |                                  0.00573497      -0.00725977       0.08498368
  ----------------------------------------------------------------------
  | Atom     3: H
  |   Hirshfeld charge        :      0.13039190
  |   Free atom volume        :     10.44207651
  |   Hirshfeld volume        :      7.33139899
  |   Hirshfeld dipole vector :      0.11152389       0.01690418       0.01580977
  |   Hirshfeld dipole moment :      0.11390030
  |   Hirshfeld second moments:      0.09851704      -0.01864453      -0.00383012
  |                                 -0.01864453       0.09528619      -0.01461266
  |                                 -0.00383012      -0.01461266       0.08032032
  ----------------------------------------------------------------------
  | Atom     4: O
  |   Hirshfeld charge        :     -0.31230560
  |   Free atom volume        :     23.95238533
  |   Hirshfeld volume        :     22.31299968
  |   Hirshfeld dipole vector :     -0.02715957       0.02435590       0.01794760
  |   Hirshfeld dipole moment :      0.04065672
  |   Hirshfeld second moments:      0.01842794       0.05501385      -0.01214142
  |                                  0.05501385       0.01049268       0.01748113
  |                                 -0.01214142       0.01748113      -0.00842259
  ----------------------------------------------------------------------
  | Atom     5: H
  |   Hirshfeld charge        :      0.07509607
  |   Free atom volume        :     10.44207651
  |   Hirshfeld volume        :      8.01101316
  |   Hirshfeld dipole vector :      0.01529111       0.04122156       0.03130555
  |   Hirshfeld dipole moment :      0.05397289
  |   Hirshfeld second moments:      0.08485947       0.00058912      -0.01256886
  |                                  0.00058912       0.03704860      -0.01993077
  |                                 -0.01256886      -0.01993077       0.07142961
  ----------------------------------------------------------------------
  | Atom     6: H
  |   Hirshfeld charge        :      0.12480258
  |   Free atom volume        :     10.44207651
  |   Hirshfeld volume        :      6.79772044
  |   Hirshfeld dipole vector :     -0.10179718      -0.06114270       0.02192965
  |   Hirshfeld dipole moment :      0.12075597
  |   Hirshfeld second moments:      0.09393168       0.01359558      -0.00020388
  |                                  0.01359558       0.10737426       0.01246686
  |                                 -0.00020388       0.01246686       0.10026047
  ----------------------------------------------------------------------
  | Atom     7: O
  |   Hirshfeld charge        :     -0.19174029
  |   Free atom volume        :     23.95238533
  |   Hirshfeld volume        :     20.34496529
  |   Hirshfeld dipole vector :      0.00059926      -0.00801966      -0.01413104
  |   Hirshfeld dipole moment :      0.01625916
  |   Hirshfeld second moments:      0.05969640      -0.01385141       0.00725562
  |                                 -0.01385141       0.05839988      -0.00623938
  |                                  0.00725562      -0.00623938       0.09771905
  ----------------------------------------------------------------------
  | Atom     8: H
  |   Hirshfeld charge        :      0.16229011
  |   Free atom volume        :     10.44207651
  |   Hirshfeld volume        :      5.83124464
  |   Hirshfeld dipole vector :      0.01937306      -0.01521692       0.11408182
  |   Hirshfeld dipole moment :      0.11671132
  |   Hirshfeld second moments:      0.13040773      -0.00792304      -0.00019094
  |                                 -0.00792304       0.12639325       0.00010233
  |                                 -0.00019094       0.00010233       0.12179491
  ----------------------------------------------------------------------
  | Atom     9: H
  |   Hirshfeld charge        :      0.10363617
  |   Free atom volume        :     10.44207651
  |   Hirshfeld volume        :      7.31354934
  |   Hirshfeld dipole vector :     -0.02638895       0.02444849       0.00300290
  |   Hirshfeld dipole moment :      0.03609879
  |   Hirshfeld second moments:      0.06604135       0.02357413      -0.01744302
  |                                  0.02357413       0.06848635       0.01299146
  |                                 -0.01744302       0.01299146       0.11010934
  ----------------------------------------------------------------------
  | Atom    10: O
  |   Hirshfeld charge        :     -0.32954326
  |   Free atom volume        :     23.95238533
  |   Hirshfeld volume        :     22.32517432
  |   Hirshfeld dipole vector :      0.00778931      -0.00039363       0.06312410
  |   Hirshfeld dipole moment :      0.06360409
  |   Hirshfeld second moments:      0.03539697       0.05398547      -0.00598948
  |                                  0.05398547      -0.01299800       0.00336768
  |                                 -0.00598948       0.00336768      -0.01421546
  ----------------------------------------------------------------------
  | Atom    11: H
  |   Hirshfeld charge        :      0.13227098
  |   Free atom volume        :     10.44207651
  |   Hirshfeld volume        :      6.58267088
  |   Hirshfeld dipole vector :      0.09991678       0.06450974       0.03948115
  |   Hirshfeld dipole moment :      0.12531413
  |   Hirshfeld second moments:      0.11010855       0.01230438      -0.01132760
  |                                  0.01230438       0.09734116      -0.00506045
  |                                 -0.01132760      -0.00506045       0.10913725
  ----------------------------------------------------------------------
  | Atom    12: H
  |   Hirshfeld charge        :      0.08049027
  |   Free atom volume        :     10.44207651
  |   Hirshfeld volume        :      7.85194673
  |   Hirshfeld dipole vector :     -0.02650471      -0.02005445       0.03893403
  |   Hirshfeld dipole moment :      0.05119121
  |   Hirshfeld second moments:      0.06790710      -0.00091651       0.03478827
  |                                 -0.00091651       0.07678294       0.01509031
  |                                  0.03478827       0.01509031       0.05915761
  ----------------------------------------------------------------------
  | Atom    13: O
  |   Hirshfeld charge        :     -0.18950027
  |   Free atom volume        :     23.95238533
  |   Hirshfeld volume        :     19.98634345
  |   Hirshfeld dipole vector :      0.02270766       0.01475287       0.01046728
  |   Hirshfeld dipole moment :      0.02903186
  |   Hirshfeld second moments:      0.06231989      -0.02305125      -0.04039398
  |                                 -0.02305125       0.07580189      -0.00693883
  |                                 -0.04039398      -0.00693883       0.09698117
  ----------------------------------------------------------------------
  | Atom    14: H
  |   Hirshfeld charge        :      0.17321844
  |   Free atom volume        :     10.44207651
  |   Hirshfeld volume        :      5.43410048
  |   Hirshfeld dipole vector :     -0.06085993       0.08364777       0.06675971
  |   Hirshfeld dipole moment :      0.12311677
  |   Hirshfeld second moments:      0.13158554       0.00025571      -0.00944607
  |                                  0.00025571       0.13334600      -0.01223067
  |                                 -0.00944607      -0.01223067       0.14212405
  ----------------------------------------------------------------------
  | Atom    15: H
  |   Hirshfeld charge        :      0.18636252
  |   Free atom volume        :     10.44207651
  |   Hirshfeld volume        :      5.94990459
  |   Hirshfeld dipole vector :      0.05000583       0.05233279      -0.09052222
  |   Hirshfeld dipole moment :      0.11590330
  |   Hirshfeld second moments:      0.11139347      -0.00990897       0.00112572
  |                                 -0.00990897       0.13841929       0.00562220
  |                                  0.00112572       0.00562220       0.13158426
  ----------------------------------------------------------------------


------------------------------------------------------------------------------
  Final output of selected total energy values:

  The following output summarizes some interesting total energy values
  at the end of a run (AFTER all relaxation, molecular dynamics, etc.).

  | Total energy of the DFT / Hartree-Fock s.c.f. calculation      :         -10414.967927635 eV
  | Final zero-broadening corrected energy (caution - metals only) :         -10414.967927635 eV
  | For reference only, the value of 1 Hartree used in FHI-aims is :             27.211384500 eV

  Before relying on these values, please be sure to understand exactly which
  total energy value is referred to by a given number. Different objects may
  all carry the same name 'total energy'. Definitions:

  Total energy of the DFT / Hartree-Fock s.c.f. calculation:
  | Note that this energy does not include ANY quantities calculated after the
  | s.c.f. cycle, in particular not ANY RPA, MP2, etc. many-body perturbation terms.

  Final zero-broadening corrected energy:
  | For metallic systems only, a broadening of the occupation numbers at the Fermi
  | level can be extrapolated back to zero broadening by an electron-gas inspired
  | formula. For all systems that are not real metals, this value can be
  | meaningless and should be avoided.

------------------------------------------------------------------------------

------------------------------------------------------------
          Leaving FHI-aims.
          Date     :  20150727, Time     :  120910.323

          Computational steps:
          | Number of self-consistency cycles          :           14

          Detailed time accounting                     :  max(cpu_time)    wall_clock(cpu1)
          | Total time                                 :       34.357 s          34.394 s
          | Preparation time                           :        0.170 s           0.532 s
          | Grid partitioning                          :        0.164 s           0.164 s
          | Preloading free-atom quantities on grid    :        0.013 s           0.013 s
          | Free-atom superposition energy             :        0.066 s           0.066 s
          | Total time for integrations                :       14.745 s          14.744 s
          | Total time for solution of K.-S. equations :        0.946 s           0.947 s
          | Total time for density & force components  :       11.769 s          11.770 s
          | Total time for mixing                      :        0.174 s           0.174 s
          | Total time for Hartree multipole update    :        0.067 s           0.068 s
          | Total time for Hartree multipole sum       :        5.589 s           5.590 s
          | Total time for total energy evaluation     :        0.004 s           0.006 s
          | Total time for scaled ZORA corrections     :        0.000 s           0.000 s
          | Total time for TS (2009) vdW correction    :        0.051 s           0.051 s

          Have a nice day.
------------------------------------------------------------
