  MPI-parallelism will be employed.
------------------------------------------------------------
          Invoking FHI-aims ...
          Version 081213
          Compiled on 2013/08/29 at 17:41:06 on host generoso.

          When using FHI-aims, please cite the following reference:

          Volker Blum, Ralf Gehrke, Felix Hanke, Paula Havu,
          Ville Havu, Xinguo Ren, Karsten Reuter, and Matthias Scheffler,
          'Ab Initio Molecular Simulations with Numeric Atom-Centered Orbitals: FHI-aims',
          Computer Physics Communications 180, 2175-2196 (2009)

          For any questions about FHI-aims, please visit the aimsclub website
          with its forums and wiki. Contributions to both the forums and the
          wiki are warmly encouraged - they are for you, and everyone is welcome there.

------------------------------------------------------------

  Date     :  20150727, Time     :  115154.233
  Time zero on CPU 1             :   0.349940000000000E-01  s.
  Internal wall clock time zero  :           207229914.233  s.

  Using        8 parallel tasks.
  Task        0 on host gen60 reporting.
  Task        1 on host gen60 reporting.
  Task        2 on host gen60 reporting.
  Task        3 on host gen60 reporting.
  Task        4 on host gen60 reporting.
  Task        5 on host gen60 reporting.
  Task        6 on host gen60 reporting.
  Task        7 on host gen60 reporting.

  Performing system and environment tests:
  | Environment variable OMP_NUM_THREADS correctly set to 1.
  | Checking for scalapack...
  | No scalapack compiled in.

  Obtaining array dimensions for all initial allocations:
  
  -----------------------------------------------------------------------
  Parsing control.in (first pass over file, find array dimensions only).
  The contents of control.in will be repeated verbatim below
  unless switched off by setting 'verbatim_writeout .false.' .
  in the first line of control.in .
  -----------------------------------------------------------------------
  
  #########################################################################################
  #
  #  Volker Blum, FHI 2008 : Test run input file control.in
  #
  #########################################################################################
  #
  #  Physical model
  #
    xc                 rpbe
    spin               none
    relativistic       atomic_zora scalar
    charge             0.
   vdw_correction_hirshfeld
  #
  #  SCF convergence
  #
    occupation_type    gaussian 0.01
    mixer              pulay
      n_max_pulay        10
      charge_mix_param   0.1
    sc_accuracy_rho    5E-5
    sc_accuracy_eev    5E-3
    sc_accuracy_etot   5E-6
    sc_iter_limit      3000
  #
  #  Eigenvalue solver
  #
    KS_method          lapack
      empty_states       8
      basis_threshold    0.e-5
  #
  #  Efficiency
  #
  #   all previous settings are now default, except stratmann still
  #   undecided. Continue to handle stratmann with care, if at all.
  #
  #  partition_type stratmann
    partition_type rho_r2
  #  hartree_partition_type stratmann
  #
  #  Oprions for large clusters (100's of atoms: memory saving / better scaling)
  #
  # for periodic systems:
  #
    density_update_method orbital
    packed_matrix_format none
  #  k_grid 6 6 6
  #  output k_eigenvalue 1
  #  distributed_spline_storage .true.
  #
  #  Relaxation
  #
  #  relax_geometry   bfgs 5.e-3
    sc_accuracy_forces 5.E-4
    final_forces_cleaned .true.
  #
  #  Output options
  #
  #  output mulliken
    output Hirshfeld
  #  output dipole
  
  #harmonic_length_scale 0.001
  
  ################################################################################
  #
  #  FHI-aims code project
  #  VB, Fritz-Haber Institut, 2007
  #
  #  Suggested "safe" defaults for H atom (to be pasted into control.in file)
  #  Basis constructed for a non-relativistic H2 molecule using the
  #  PW-LDA functional.
  #
  ################################################################################
    species        H
  #     global species definitions
      nucleus             1
      cut_pot             4.0  2.0  1.0
      cut_free_atom       finite 8.0
      logarithmic         0.00010000 100.00  1.0123
      basis_dep_cutoff    1d-4  # 1d-4 is safe default - please check 5d-4 if you wish!
      radial_base         24 7.0
      radial_multiplier   2
      angular_grids       specified
        division   0.2783  110
        division   0.3822  194
        division   0.5626  302
  #      division   0.5922  434
  #      division   0.6227  590
  #      division   0.7206  770
        outer_grid  302
      l_hartree           4
  ################################################################################
  #
  #  Definition of "minimal" basis
  #
  ################################################################################
  #     valence basis states
      valence      1  s   1.
  #     ion occupancy
      ion_occ      1  s   0.5
  ################################################################################
  #
  #  Suggested additional basis functions. For production calculations,
  #  uncomment them one after another (the most important basis functions are
  #  listed first).
  #
  ################################################################################
  #  "First tier" - improvements: -1014.90 meV to -62.69 meV
       hydro 2 s 2.1
       hydro 2 p 3.5
  #  "Second tier" - improvements: -12.89 meV to -1.83 meV
       hydro 1 s 0.85
       hydro 2 p 3.7
       hydro 2 s 1.2
       hydro 3 d 7
  #  "Third tier" - improvements: -0.25 meV to -0.12 meV
  #     hydro 4 f 11.2
  #     hydro 3 p 4.8
  #     hydro 4 d 9
  #     hydro 3 s 3.2
  
  ################################################################################
  #
  #  FHI-aims code project
  #  VB, Fritz-Haber Institut, 2007
  #
  #  Suggested "safe" defaults for O atom (to be pasted into control.in file)
  #  All values have been tested for a non-relativistic, non-spinpolarized O2
  #  molecule using the PW-LDA functional. Validity for PBE is expected.
  #
  #  Constructed for dimers: 1.0 A, 1.208 A, 1.5 A, 2.0 A, 3.0 A
  #
  ################################################################################
    species        O
  #     global species definitions
      nucleus             8
      mass                15.9994
      l_hartree           4
      cut_pot             4.0  2.0  1.0
      cut_free_atom       finite 8.0
      basis_dep_cutoff    1d-4  # 1d-4 is safe default - please check 5d-4 if you wish!
      logarithmic         0.00010000 100.00  1.0123
      radial_base         36 7.0
      radial_multiplier   2
       angular_grids specified
        division   0.4087  110
        division   0.5181  194
        division   0.6184  302
  #      division   0.7315  434
  #      division   0.7934  590
  #      division   0.9656  770
  #      division   1.4041  974
  #      outer_grid 974
        outer_grid 302
  ################################################################################
  #
  #  Definition of "minimal" basis
  #
  ################################################################################
  #     valence basis states
      valence      2  s   2.
      valence      2  p   4.
  #     ion occupancy
      ion_occ      2  s   1.
      ion_occ      2  p   3.
  ################################################################################
  #
  #  Suggested additional basis functions. For production calculations,
  #  uncomment them one after another (the most important basis functions are
  #  listed first).
  #
  ################################################################################
  #  "First tier" - improvements: -699.05 meV to -159.38 meV
       hydro 2 p 1.8
       hydro 3 d 7.6
       hydro 3 s 6.4
  #  "Second tier" - improvements: -49.91 meV to -5.39 meV
       hydro 4 f 11.6
       hydro 3 p 6.2
       hydro 3 d 5.6
       hydro 5 g 17.6
       hydro 1 s 0.75
  #  "Third tier" - improvements: -2.83 meV to -0.50 meV
  #     ionic 2 p auto
  #     hydro 4 f 10.8
  #     hydro 4 d 4.7
  #     hydro 2 s 6.8
  #  "Fourth tier" - improvements: -0.40 meV to -0.12 meV
  #     hydro 3 p 5
  #     hydro 3 s 3.3
  #     hydro 5 g 15.6
  #     hydro 4 f 17.6
  #     hydro 4 d 14
  # Further basis functions - -0.08 meV and below
  #     hydro 3 s 2.1
  #     hydro 4 d 11.6
  #     hydro 3 p 16
  #     hydro 2 s 17.2
  
  
  -----------------------------------------------------------------------
  Completed first pass over input file control.in .
  -----------------------------------------------------------------------
  
  
  -----------------------------------------------------------------------
  Parsing geometry.in (first pass over file, find array dimensions only).
  The contents of geometry.in will be repeated verbatim below
  unless switched off by setting 'verbatim_writeout .false.' .
  in the first line of geometry.in .
  -----------------------------------------------------------------------
  
  atom      -4.053030000      0.065001000     -1.525160000  O
  atom      -4.566710000      0.974813000     -1.912820000  H
  atom      -3.067820000      0.330172000     -1.477310000  H
  atom      -4.581760000     -0.256435000      0.939478000  O
  atom      -4.349860000      0.471090000      1.504340000  H
  atom      -5.393870000     -0.726611000      1.228070000  H
  atom      -5.293160000      2.192130000     -2.328800000  O
  atom      -4.829300000      2.988660000     -1.973850000  H
  atom      -5.428570000      2.328640000     -3.235170000  H
  atom      -3.818880000      2.024990000      2.187990000  O
  atom      -3.690880000      1.961360000      3.202150000  H
  atom      -4.546490000      2.751300000      2.045370000  H
  
  -----------------------------------------------------------------------
  Completed first pass over input file geometry.in .
  -----------------------------------------------------------------------
  
 
  Basic array size parameters: 
  | Number of species                 :        2
  | Number of atoms                   :       12
  | Max. basis fn. angular momentum   :        4
  | Max. atomic/ionic basis occupied n:        2
  | Max. number of basis fn. types    :        2
  | Max. radial fns per species/type  :        8
  | Max. logarithmic grid size        :     1301
  | Max. radial integration grid size :       73
  | Max. angular integration grid size:      302
  | Max. angular grid division number :        8
  | Radial grid for Hartree potential :     1301
  | Number of spin channels           :        1

------------------------------------------------------------
          Reading file control.in.
------------------------------------------------------------
  XC: Using RPBE gradient-corrected functionals.
  Spin treatment: No spin polarisation.
  Scalar relativistic treatment of kinetic energy: on-site free-atom approximation to ZORA.
  Charge =   0.000000E+00: Neutral system requested explicitly.
  Using non-empirical van der Waals correction (Hirshfeld partitioning):
  Occupation type: Gaussian broadening, width =   0.100000E-01 eV.
  Using pulay charge density mixing.
  Pulay mixing - number of memorized iterations:   10
  Charge density mixing - mixing parameter:     0.1000
  Convergence accuracy of self-consistent charge density: 0.5000E-04
  Convergence accuracy of sum of eigenvalues: 0.5000E-02
  Convergence accuracy of total energy: 0.5000E-05
  Maximum number of s.-c. iterations  :  3000
  Kohn-Sham eigenvalues and eigenfunctions calculated by lapack diagonalisation (D&C).
  Number of empty states per atom:        8
  Threshold for basis singularities: 0.0000E+00
  Partition function in integrals calculations: rho / r^2
 Using packed matrix format           0
  Convergence accuracy of forces: 0.5000E-03
  Cleaning forces before final output.
  Hirshfeld charge analysis will be performed.
 
  Reading configuration options for species H                   .
  | Found nuclear charge :   1.0000
  | Found cutoff potl. onset [A], width [A], scale factor :    4.00000    2.00000    1.00000
  | Found cutoff specification for free atom: Cutoff potential begins at    8.00000 A.
  | Found logarithmic grid data [bohr] : 0.1000E-03 0.1000E+03 0.1012E+01
  | Threshold for basis-dependent cutoff potential is   0.100000E-03
  | Found data for basic radial integration grid :    24 points, outermost radius =    7.000 A
  | Found multiplier for basic radial grid :   2
  | Found angular grid specification: user-specified.
  | Specified grid contains     4 separate shells.
  | Check grid settings after all constraints further below.
  | Found l_max for Hartree potential  :   4
  | Found free-atom valence shell :  1 s   1.000
  | No ionic wave fns used. Skipping ion_occ.
  | Found hydrogenic basis function :  2 s   2.100
  | Found hydrogenic basis function :  2 p   3.500
  | Found hydrogenic basis function :  1 s   0.850
  | Found hydrogenic basis function :  2 p   3.700
  | Found hydrogenic basis function :  2 s   1.200
  | Found hydrogenic basis function :  3 d   7.000
  Species H                   : Missing cutoff potential type.
  Defaulting to exp(1/x)/(1-x)^2 type cutoff potential.
  Species H : On-site basis accuracy parameter (for Gram-Schmidt orthonormalisation) not specified.
  Using default value basis_acc =  0.1000000E-03.
  Species H                   : Using default innermost maximum threshold i_radial=  2 for radial functions.
  Species H                   : Basic radial grid will be enhanced according to radial_multiplier =   2, to contain    49 grid points.
 
  Reading configuration options for species O                   .
  | Found nuclear charge :   8.0000
  | Found atomic mass :    15.9994000000000      amu
  | Found l_max for Hartree potential  :   4
  | Found cutoff potl. onset [A], width [A], scale factor :    4.00000    2.00000    1.00000
  | Found cutoff specification for free atom: Cutoff potential begins at    8.00000 A.
  | Threshold for basis-dependent cutoff potential is   0.100000E-03
  | Found logarithmic grid data [bohr] : 0.1000E-03 0.1000E+03 0.1012E+01
  | Found data for basic radial integration grid :    36 points, outermost radius =    7.000 A
  | Found multiplier for basic radial grid :   2
  | Found angular grid specification: user-specified.
  | Specified grid contains     4 separate shells.
  | Check grid settings after all constraints further below.
  | Found free-atom valence shell :  2 s   2.000
  | Found free-atom valence shell :  2 p   4.000
  | No ionic wave fns used. Skipping ion_occ.
  | No ionic wave fns used. Skipping ion_occ.
  | Found hydrogenic basis function :  2 p   1.800
  | Found hydrogenic basis function :  3 d   7.600
  | Found hydrogenic basis function :  3 s   6.400
  | Found hydrogenic basis function :  4 f  11.600
  | Found hydrogenic basis function :  3 p   6.200
  | Found hydrogenic basis function :  3 d   5.600
  | Found hydrogenic basis function :  5 g  17.600
  | Found hydrogenic basis function :  1 s   0.750
  Species O                   : Missing cutoff potential type.
  Defaulting to exp(1/x)/(1-x)^2 type cutoff potential.
  Species O : On-site basis accuracy parameter (for Gram-Schmidt orthonormalisation) not specified.
  Using default value basis_acc =  0.1000000E-03.
  Species O                   : Using default innermost maximum threshold i_radial=  2 for radial functions.
  Species O                   : Basic radial grid will be enhanced according to radial_multiplier =   2, to contain    73 grid points.
 
  Finished reading input file 'control.in'. Consistency checks are next.
 
  Target number of points in a grid batch is not set. Defaulting to  100
  Method for grid partitioning is not set. Defaulting to parallel hash+maxmin partitioning.
  Batch size limit is not set. Defaulting to    200
  By default, will store active basis functions for each batch.
  If in need of memory, prune_basis_once .false. can be used to disable this option.
  communication_type for Hartree potential was not specified.
  Defaulting to calc_hartree .
  Pulay mixer: Number of initial linear mixing iterations not set.
  Defaulting to    0 iterations.
  Work space size for distributed Hartree potential not set.
  Defaulting to   0.200000E+03 MB.
  Algorithm-dependent basis array size parameters:
  | n_max_pulay                         :       10
  Geometry relaxation not requested: no relaxation will be performed.
  Handling of forces: Unphysical translation and rotation will be removed from forces.
  No accuracy limit for integral partition fn. given. Defaulting to 0.1000E-14.
  No threshold value for u(r) in integrations given. Defaulting to 0.1000E-05.
  No accuracy for occupation numbers given. Defaulting to 0.1000E-07.
  No threshold value for occupation numbers given. Defaulting to 0.0000E+00.
  No accuracy for fermi level given. Defaulting to 0.1000E-19.
  Maximum # of iterations to find E_F not set. Defaulting to  200.
  Will not use alltoall communication since running on < 1024 CPUs.
  Partitioning for Hartree potential was not defined. Using partition_type for integrals.
  | Reporting present value of keyword multip_moments_threshold  :       0.10000000E-09
  | This value may affect high angular momentum components of the Hartree potential in periodic systems.
  No q(lm)/r^(l+1) cutoff set for long-range Hartree potential.
  | Using default value of  0.100000E-09 .
  | Verify using the multipole_threshold keyword.
  Defaulting to new monopole extrapolation.
  Density update method: Loop over occupied states selected for charge density update.
------------------------------------------------------------


------------------------------------------------------------
          Reading geometry description geometry.in.
------------------------------------------------------------
  Input structure read successfully.
  The structure contains       12 atoms,  and a total of         40.000 electrons.

  Input geometry:
  | No unit cell requested.
  | Atomic structure:
  |       Atom                x [A]            y [A]            z [A]
  |    1: Species O             -4.053030         0.065001        -1.525160
  |    2: Species H             -4.566710         0.974813        -1.912820
  |    3: Species H             -3.067820         0.330172        -1.477310
  |    4: Species O             -4.581760        -0.256435         0.939478
  |    5: Species H             -4.349860         0.471090         1.504340
  |    6: Species H             -5.393870        -0.726611         1.228070
  |    7: Species O             -5.293160         2.192130        -2.328800
  |    8: Species H             -4.829300         2.988660        -1.973850
  |    9: Species H             -5.428570         2.328640        -3.235170
  |   10: Species O             -3.818880         2.024990         2.187990
  |   11: Species H             -3.690880         1.961360         3.202150
  |   12: Species H             -4.546490         2.751300         2.045370
  |

  | The smallest distance between any two atoms is         0.92654057 AA.
  |
  | The first atom of this pair is atom number                      7 .
  | The second atom of this pair is atom number                     9 .

  Structure-dependent array size parameters: 
  | Maximum number of distinct radial functions  :       18
  | Maximum number of basis functions            :      276
  | Number of Kohn-Sham states (occupied + empty):       68
------------------------------------------------------------

------------------------------------------------------------
          Preparing all fixed parts of the calculation.
------------------------------------------------------------
  Determining machine precision:
    2.225073858507201E-308
  Setting up grids for atomic and cluster calculations.

  Creating wave function, potential, and density for free atoms.

  Species: H

  List of occupied orbitals and eigenvalues:
    n    l              occ      energy [Ha]    energy [eV]
    1    0           1.0000        -0.241408        -6.5691


  Species: O

  List of occupied orbitals and eigenvalues:
    n    l              occ      energy [Ha]    energy [eV]
    1    0           2.0000       -18.944147      -515.4965
    2    0           2.0000        -0.883529       -24.0421
    2    1           4.0000        -0.330176        -8.9845

  Creating fixed part of basis set: Ionic, confined, hydrogenic.
 
  H                    hydrogenic:
 
  List of hydrogenic basis orbitals: 
    n    l      effective z      eigenvalue [eV]  inner max. [A]     outer max. [A]     outer radius [A]   
    2    0         2.100000       -14.9965           0.193241           1.317192           5.372934
    2    1         3.500000       -41.6672           0.602363           0.602363           4.056010
    1    0         0.850000        -9.8292           0.624864           0.624864           5.372934
    2    1         3.700000       -46.5653           0.573616           0.573616           3.909951
    2    0         1.200000        -4.5995           0.334977           2.228160           5.505921
    3    2         7.000000       -74.0753           0.680692           0.680692           3.769152
 
 
  O                    hydrogenic:
 
  List of hydrogenic basis orbitals: 
    n    l      effective z      eigenvalue [eV]  inner max. [A]     outer max. [A]     outer radius [A]   
    2    1         1.800000       -11.0118           1.178546           1.178546           5.432516
    3    2         7.600000       -87.3182           0.624117           0.624117           3.541422
    3    0         6.400000       -61.9209           0.061166           1.081887           4.306510
    4    3        11.600000      -114.4238           0.731621           0.731621           3.584982
    3    1         6.200000       -58.1113           0.255677           1.030255           4.306510
    3    2         5.600000       -47.4081           0.847222           0.847222           4.413102
    5    4        17.600000      -168.5799           0.749730           0.749730           3.372413
    1    0         0.750000        -7.6499           0.705275           0.705275           5.366508
 

  Adding cutoff potential to free-atom effective potential.
  Creating atomic-like basis functions for current effective potential.

  Species H                   :

  List of atomic basis orbitals and eigenvalues:
    n    l      energy [Ha]    energy [eV]    outer radius [A]
    1    0        -0.241374        -6.5681       5.372934


  Species O                   :

  List of atomic basis orbitals and eigenvalues:
    n    l      energy [Ha]    energy [eV]    outer radius [A]
    1    0       -18.944147      -515.4965       1.415745
    2    0        -0.883529       -24.0421       5.048305
    2    1        -0.330173        -8.9845       5.301302

  Assembling full basis from fixed parts.
  | Species H :   atomic orbital   1 s accepted.
  | Species H :    hydro orbital   2 s accepted.
  | Species H :    hydro orbital   1 s accepted.
  | Species H :    hydro orbital   2 s accepted.
  | Species H :    hydro orbital   2 p accepted.
  | Species H :    hydro orbital   2 p accepted.
  | Species H :    hydro orbital   3 d accepted.
  | Species O :   atomic orbital   1 s accepted.
  | Species O :    hydro orbital   3 s accepted.
  | Species O :   atomic orbital   2 s accepted.
  | Species O :    hydro orbital   1 s accepted.
  | Species O :    hydro orbital   3 p accepted.
  | Species O :   atomic orbital   2 p accepted.
  | Species O :    hydro orbital   2 p accepted.
  | Species O :    hydro orbital   3 d accepted.
  | Species O :    hydro orbital   3 d accepted.
  | Species O :    hydro orbital   4 f accepted.
  | Species O :    hydro orbital   5 g accepted.
 
  Basis size parameters after reduction:
  | Total number of radial functions:       18
  | Total number of basis functions :      276
 
  Testing on-site integration grid accuracy.
  |  Species  Function  <phi|h_atom|phi> (log., in eV)  <phi|h_atom|phi> (rad., in eV)
           1        1                 -6.5683835025                 -6.5684759159
           1        2                 13.3711789951                 13.3708738703
           1        3                 23.6590910787                 23.6532055418
           1        4                 16.2963827186                 16.1870710655 ***
           1        5                 28.7627214838                 28.7627215090
           1        6                 59.5965249172                 59.5965950857
           1        7                 60.2220506392                 60.2220503827
           2        8               -515.4964576505               -515.4964530710
           2        9                 15.3030791347                 15.3030722972
           2       10                -21.7296094581                -21.7296135470
           2       11                 14.2969371730                 14.2969701621
           2       12                 21.0679693190                 21.0679697493
           2       13                 -2.3833606469                 -2.3833613176
           2       14                 13.7067136422                 13.7066766629
           2       15                 45.8013116808                 45.8013116965
           2       16                 52.2309815402                 52.2309831494
           2       17                 85.4120732416                 85.4120732763
           2       18                142.1019167745                142.1019167817
 * Note: Onsite integrals marked "***" above are less accurate than
 * onsite_accuracy_threshold =    0.03000 eV. Usually, this is harmless.
 * When in doubt, tighten the "radial" and/or "radial_multiplier" flags to check.

  Preparing densities etc. for the partition functions (integrals / Hartree potential).

  Preparations completed.
  max(cpu_time)          :      0.168 s.
  Wall clock time (cpu1) :      0.668 s.
------------------------------------------------------------

------------------------------------------------------------
          Begin self-consistency loop: Initialization.

          Date     :  20150727, Time     :  115154.968
------------------------------------------------------------

  Initializing index lists of integration centers etc. from given atomic structure:
  | Number of centers in hartree potential         :        12
  | Number of centers in hartree multipole         :        12
  | Number of centers in electron density summation:        12
  | Number of centers in basis integrals           :        12
  | Number of centers in integrals                 :        12
  Partitioning the integration grid into batches with parallel hashing+maxmin method.
  | Number of batches:     1624
  | Maximal batch size:     190
  | Minimal batch size:      49
  | Average batch size:      96.901
  | Standard deviation of batch sizes:      29.204

  Integration load balanced across     8 MPI tasks.
  Work distribution over tasks is as follows:
  Task     0 has      19670 integration points.
  Task     1 has      19624 integration points.
  Task     2 has      19804 integration points.
  Task     3 has      19762 integration points.
  Task     4 has      19625 integration points.
  Task     5 has      19626 integration points.
  Task     6 has      19628 integration points.
  Task     7 has      19629 integration points.
  Initializing partition tables, free-atom densities, potentials, etc. across the integration grid (initialize_grid_storage).
  | Net number of integration points:   157368
  | of which are non-zero points    :   156845
  Obtaining max. number of non-zero basis functions in each batch (get_n_compute_maxes).
  | Maximal number of non-zero basis functions:      273 in task     0
  | Maximal number of non-zero basis functions:      274 in task     1
  | Maximal number of non-zero basis functions:      274 in task     2
  | Maximal number of non-zero basis functions:      274 in task     3
  | Maximal number of non-zero basis functions:      274 in task     4
  | Maximal number of non-zero basis functions:      274 in task     5
  | Maximal number of non-zero basis functions:      274 in task     6
  | Maximal number of non-zero basis functions:      274 in task     7
  Integrating Hamiltonian matrix: batch-based integration.
  Time summed over all CPUs for integration: real work        4.375 s, elapsed        4.458 s
  Integrating overlap matrix.
  Time summed over all CPUs for integration: real work        2.279 s, elapsed        2.319 s

  Updating Kohn-Sham eigenvalues, eigenvectors, occupation numbers, and Fermi level.
  Solving generalized eigenproblem
  Updating Kohn-Sham eigenvalues and eigenfunctions.
  Transforming overlap matrix and checking for singularities.
  Overlap matrix is nonsingular:
  | Lowest eigenvalue:  0.303639E-03
  Solving real generalised eigenvalue problem by standard LAPACK (fast)
  Determining occupation numbers for Kohn-Sham eigenstates.
  | Chemical potential (Fermi level) in eV                 : -.45755775E+01
  | Error in electron count due to remaining E_F inaccuracy: 0.00000000E+00
  | Maximum occupation number of highest empty state:  0.00E+00

  Writing Kohn-Sham eigenvalues.

  State    Occupation    Eigenvalue [Ha]    Eigenvalue [eV]
      1       2.00000         -19.064784         -518.77918
      2       2.00000         -19.052080         -518.43346
      3       2.00000         -19.032022         -517.88766
      4       2.00000         -19.019665         -517.55142
      5       2.00000          -1.121149          -30.50801
      6       2.00000          -1.100228          -29.93873
      7       2.00000          -1.064200          -28.95837
      8       2.00000          -1.043452          -28.39378
      9       2.00000          -0.650083          -17.68966
     10       2.00000          -0.648414          -17.64426
     11       2.00000          -0.596412          -16.22919
     12       2.00000          -0.593825          -16.15880
     13       2.00000          -0.525209          -14.29166
     14       2.00000          -0.508103          -13.82619
     15       2.00000          -0.492298          -13.39611
     16       2.00000          -0.479018          -13.03474
     17       2.00000          -0.441322          -12.00899
     18       2.00000          -0.438743          -11.93881
     19       2.00000          -0.424427          -11.54926
     20       2.00000          -0.402472          -10.95182
     21       0.00000          -0.091040           -2.47733
     22       0.00000          -0.071269           -1.93932
     23       0.00000          -0.048065           -1.30791
     24       0.00000          -0.035054           -0.95385
     25       0.00000          -0.017356           -0.47228
     26       0.00000           0.000041            0.00113
     27       0.00000           0.040294            1.09645
     28       0.00000           0.053511            1.45611
     29       0.00000           0.077017            2.09573
     30       0.00000           0.089765            2.44263
     31       0.00000           0.095645            2.60264
     32       0.00000           0.097628            2.65658
     33       0.00000           0.101579            2.76412
     34       0.00000           0.110508            3.00707
     35       0.00000           0.120895            3.28973
     36       0.00000           0.123135            3.35068
     37       0.00000           0.133112            3.62217
     38       0.00000           0.146928            3.99812
     39       0.00000           0.164359            4.47243
     40       0.00000           0.184122            5.01022
     41       0.00000           0.198268            5.39516
     42       0.00000           0.217070            5.90677
     43       0.00000           0.231804            6.30770
     44       0.00000           0.236092            6.42439
     45       0.00000           0.261809            7.12418
     46       0.00000           0.272490            7.41483
     47       0.00000           0.286127            7.78592
     48       0.00000           0.309895            8.43268
     49       0.00000           0.331362            9.01682
     50       0.00000           0.341207            9.28471
     51       0.00000           0.374779           10.19826
     52       0.00000           0.383356           10.43165
     53       0.00000           0.391493           10.65305
     54       0.00000           0.400295           10.89257
     55       0.00000           0.419866           11.42513
     56       0.00000           0.427648           11.63691
     57       0.00000           0.442474           12.04034
     58       0.00000           0.447492           12.17688
     59       0.00000           0.477319           12.98852
     60       0.00000           0.499905           13.60311
     61       0.00000           0.528702           14.38670
     62       0.00000           0.547091           14.88711
     63       0.00000           0.560864           15.26190
     64       0.00000           0.578203           15.73370
     65       0.00000           0.591712           16.10130
     66       0.00000           0.640903           17.43987
     67       0.00000           0.665584           18.11146
     68       0.00000           0.707976           19.26500

  Highest occupied state (VBM) at    -10.95181804 eV
  | Occupation number:      2.00000000

  Lowest unoccupied state (CBM) at    -2.47733417 eV
  | Occupation number:      0.00000000

  Overall HOMO-LUMO gap:      8.47448387 eV.
  Calculating total energy contributions from superposition of free atom densities.

  Total energy components:
  | Sum of eigenvalues            :        -173.39581291 Ha       -4718.34013580 eV
  | XC energy correction          :         -36.43611902 Ha        -991.47724433 eV
  | XC potential correction       :          46.55553583 Ha        1266.84058605 eV
  | Free-atom electrostatic energy:        -143.18363185 Ha       -3896.22486033 eV
  | Hartree energy correction     :           0.00000000 Ha           0.00000000 eV
  | van der Waals energy corr.    :           0.00000000 Ha           0.00000000 eV
  | Entropy correction            :           0.00000000 Ha           0.00000000 eV
  | ---------------------------
  | Total energy                  :        -306.46002795 Ha       -8339.20165442 eV
  | Total energy, T -> 0          :        -306.46002795 Ha       -8339.20165442 eV  <-- do not rely on this value for anything but (periodic) metals
  | Electronic free energy        :        -306.46002795 Ha       -8339.20165442 eV

  Derived energy quantities:
  | Kinetic energy                :         303.29168251 Ha        8252.98658836 eV
  | Electrostatic energy          :        -573.31559144 Ha      -15600.71099845 eV
  | Energy correction for multipole
  | error in Hartree potential    :           0.00000000 Ha           0.00000000 eV
  | Sum of eigenvalues per atom                           :        -393.19501132 eV
  | Total energy (T->0) per atom                          :        -694.93347120 eV  <-- do not rely on this value for anything but (periodic) metals
  | Electronic free energy per atom                       :        -694.93347120 eV
  Initialize hartree_potential_storage
  Max. number of atoms included in rho_multipole:           12

  End scf initialization - timings             :  max(cpu_time)    wall_clock(cpu1)
  | Time for scf. initialization               :        1.230 s           1.229 s
  | Boundary condition initialization          :        0.000 s           0.000 s
  | Integration                                :        0.849 s           0.850 s
  | Solution of K.-S. eqns.                    :        0.119 s           0.119 s
  | Grid partitioning                          :        0.113 s           0.112 s
  | Preloading free-atom quantities on grid    :        0.014 s           0.013 s
  | Free-atom superposition energy             :        0.046 s           0.046 s
  | Total energy evaluation                    :        0.000 s           0.000 s
------------------------------------------------------------

------------------------------------------------------------
          Begin self-consistency iteration #    1

  Date     :  20150727, Time     :  115156.197
------------------------------------------------------------
  Evaluating new KS density.
  Integration grid: deviation in total charge (<rho> - N_e) =   2.131628E-14
  Pulay mixing of updated and previous charge densities.

  Evaluating partitioned Hartree potential by multipole expansion.
  | Analytical far-field extrapolation by fixed multipoles:
  | Hartree multipole sum: apparent total charge =  -0.160555E-05
  Summing up the Hartree potential.
  Time summed over all CPUs for potential: real work        1.654 s, elapsed        1.661 s
  | RMS charge density error from multipole expansion :   0.144029E-02

  Integrating Hamiltonian matrix: batch-based integration.
  Time summed over all CPUs for integration: real work        4.362 s, elapsed        4.444 s

  Updating Kohn-Sham eigenvalues, eigenvectors, occupation numbers, and Fermi level.
  Solving generalized eigenproblem
  Updating Kohn-Sham eigenvalues and eigenfunctions.
  Solving real generalised eigenvalue problem by standard LAPACK (fast)
  Determining occupation numbers for Kohn-Sham eigenstates.
  | Chemical potential (Fermi level) in eV                 : -.41179980E+01
  | Error in electron count due to remaining E_F inaccuracy: 0.00000000E+00
  | Maximum occupation number of highest empty state:  0.00E+00

  Writing Kohn-Sham eigenvalues.

  State    Occupation    Eigenvalue [Ha]    Eigenvalue [eV]
      1       2.00000         -18.997860         -516.95808
      2       2.00000         -18.964850         -516.05982
      3       2.00000         -18.959480         -515.91369
      4       2.00000         -18.928283         -515.06478
      5       2.00000          -1.090013          -29.66077
      6       2.00000          -1.051253          -28.60604
      7       2.00000          -1.030794          -28.04934
      8       2.00000          -0.992644          -27.01122
      9       2.00000          -0.623536          -16.96727
     10       2.00000          -0.604841          -16.45856
     11       2.00000          -0.567348          -15.43832
     12       2.00000          -0.559273          -15.21858
     13       2.00000          -0.484720          -13.18991
     14       2.00000          -0.466241          -12.68707
     15       2.00000          -0.452517          -12.31362
     16       2.00000          -0.438127          -11.92205
     17       2.00000          -0.398021          -10.83070
     18       2.00000          -0.390241          -10.61899
     19       2.00000          -0.385653          -10.49415
     20       2.00000          -0.348802           -9.49139
     21       0.00000          -0.083665           -2.27663
     22       0.00000          -0.064455           -1.75391
     23       0.00000          -0.036746           -0.99990
     24       0.00000          -0.023029           -0.62665
     25       0.00000          -0.012182           -0.33150
     26       0.00000           0.005105            0.13890
     27       0.00000           0.050598            1.37684
     28       0.00000           0.064199            1.74695
     29       0.00000           0.088705            2.41378
     30       0.00000           0.099511            2.70782
     31       0.00000           0.103598            2.81904
     32       0.00000           0.110320            3.00197
     33       0.00000           0.115137            3.13303
     34       0.00000           0.119605            3.25461
     35       0.00000           0.128815            3.50522
     36       0.00000           0.136019            3.70128
     37       0.00000           0.151726            4.12868
     38       0.00000           0.156515            4.25899
     39       0.00000           0.175894            4.78633
     40       0.00000           0.197610            5.37724
     41       0.00000           0.208509            5.67383
     42       0.00000           0.228915            6.22908
     43       0.00000           0.241275            6.56543
     44       0.00000           0.248690            6.76719
     45       0.00000           0.271121            7.37759
     46       0.00000           0.281641            7.66384
     47       0.00000           0.298727            8.12878
     48       0.00000           0.320975            8.73418
     49       0.00000           0.343426            9.34510
     50       0.00000           0.351576            9.56688
     51       0.00000           0.384469           10.46194
     52       0.00000           0.393068           10.69591
     53       0.00000           0.400767           10.90542
     54       0.00000           0.413417           11.24965
     55       0.00000           0.432274           11.76277
     56       0.00000           0.434956           11.83575
     57       0.00000           0.449012           12.21824
     58       0.00000           0.458197           12.46818
     59       0.00000           0.486138           13.22848
     60       0.00000           0.511128           13.90849
     61       0.00000           0.542899           14.77303
     62       0.00000           0.559885           15.23524
     63       0.00000           0.577518           15.71508
     64       0.00000           0.593795           16.15799
     65       0.00000           0.609147           16.57573
     66       0.00000           0.655076           17.82552
     67       0.00000           0.679628           18.49361
     68       0.00000           0.722468           19.65936

  Highest occupied state (VBM) at     -9.49138913 eV
  | Occupation number:      2.00000000

  Lowest unoccupied state (CBM) at    -2.27663451 eV
  | Occupation number:      0.00000000

  Overall HOMO-LUMO gap:      7.21475462 eV.

  Total energy components:
  | Sum of eigenvalues            :        -171.46899427 Ha       -4665.90873278 eV
  | XC energy correction          :         -36.63105860 Ha        -996.78182028 eV
  | XC potential correction       :          46.81083568 Ha        1273.78764849 eV
  | Free-atom electrostatic energy:        -143.18363185 Ha       -3896.22486033 eV
  | Hartree energy correction     :          -1.86284749 Ha         -50.69065931 eV
  | van der Waals energy corr.    :           0.00000000 Ha           0.00000000 eV
  | Entropy correction            :           0.00000000 Ha           0.00000000 eV
  | ---------------------------
  | Total energy                  :        -306.33569653 Ha       -8335.81842422 eV
  | Total energy, T -> 0          :        -306.33569653 Ha       -8335.81842422 eV  <-- do not rely on this value for anything but (periodic) metals
  | Electronic free energy        :        -306.33569653 Ha       -8335.81842422 eV

  Derived energy quantities:
  | Kinetic energy                :         304.45330253 Ha        8284.59587741 eV
  | Electrostatic energy          :        -574.15794045 Ha      -15623.63248135 eV
  | Energy correction for multipole
  | error in Hartree potential    :          -0.00006221 Ha          -0.00169274 eV
  | Sum of eigenvalues per atom                           :        -388.82572773 eV
  | Total energy (T->0) per atom                          :        -694.65153535 eV  <-- do not rely on this value for anything but (periodic) metals
  | Electronic free energy per atom                       :        -694.65153535 eV

  Self-consistency convergence accuracy:
  | Change of charge density      : 0.5974E+00
  | Change of sum of eigenvalues  : 0.5243E+02 eV
  | Change of total energy        : 0.3383E+01 eV

  End self-consistency iteration #     1       :  max(cpu_time)    wall_clock(cpu1)
  | Time for this iteration                    :        1.175 s           1.175 s
  | Charge density update                      :        0.372 s           0.371 s
  | Density mixing                             :        0.002 s           0.003 s
  | Hartree multipole update                   :        0.005 s           0.004 s
  | Hartree multipole summation                :        0.208 s           0.209 s
  | Integration                                :        0.557 s           0.556 s
  | Solution of K.-S. eqns.                    :        0.031 s           0.031 s
  | Total energy evaluation                    :        0.000 s           0.001 s
------------------------------------------------------------

------------------------------------------------------------
          Begin self-consistency iteration #    2

  Date     :  20150727, Time     :  115157.373
------------------------------------------------------------
  Evaluating new KS density.
  Integration grid: deviation in total charge (<rho> - N_e) =  -2.131628E-14
  Pulay mixing of updated and previous charge densities.

  Evaluating partitioned Hartree potential by multipole expansion.
  | Analytical far-field extrapolation by fixed multipoles:
  | Hartree multipole sum: apparent total charge =  -0.459375E-05
  Summing up the Hartree potential.
  Time summed over all CPUs for potential: real work        1.653 s, elapsed        1.661 s
  | RMS charge density error from multipole expansion :   0.572207E-02

  Integrating Hamiltonian matrix: batch-based integration.
  Time summed over all CPUs for integration: real work        4.348 s, elapsed        4.421 s

  Updating Kohn-Sham eigenvalues, eigenvectors, occupation numbers, and Fermi level.
  Solving generalized eigenproblem
  Updating Kohn-Sham eigenvalues and eigenfunctions.
  Solving real generalised eigenvalue problem by standard LAPACK (fast)
  Determining occupation numbers for Kohn-Sham eigenstates.
  | Chemical potential (Fermi level) in eV                 : -.29858317E+01
  | Error in electron count due to remaining E_F inaccuracy: 0.00000000E+00
  | Maximum occupation number of highest empty state:  0.00E+00

  Highest occupied state (VBM) at     -6.03091348 eV
  | Occupation number:      2.00000000

  Lowest unoccupied state (CBM) at    -1.86847564 eV
  | Occupation number:      0.00000000

  Overall HOMO-LUMO gap:      4.16243783 eV.

  Total energy components:
  | Sum of eigenvalues            :        -166.95538185 Ha       -4543.08708984 eV
  | XC energy correction          :         -37.10534280 Ha       -1009.68774981 eV
  | XC potential correction       :          47.43151834 Ha        1290.67728297 eV
  | Free-atom electrostatic energy:        -143.18363185 Ha       -3896.22486033 eV
  | Hartree energy correction     :          -6.37784367 Ha        -173.54995636 eV
  | van der Waals energy corr.    :           0.00000000 Ha           0.00000000 eV
  | Entropy correction            :           0.00000000 Ha           0.00000000 eV
  | ---------------------------
  | Total energy                  :        -306.19068182 Ha       -8331.87237337 eV
  | Total energy, T -> 0          :        -306.19068182 Ha       -8331.87237337 eV  <-- do not rely on this value for anything but (periodic) metals
  | Electronic free energy        :        -306.19068182 Ha       -8331.87237337 eV

  Derived energy quantities:
  | Kinetic energy                :         306.74745433 Ha        8347.02292421 eV
  | Electrostatic energy          :        -575.83279336 Ha      -15669.20754777 eV
  | Energy correction for multipole
  | error in Hartree potential    :          -0.00084835 Ha          -0.02308489 eV
  | Sum of eigenvalues per atom                           :        -378.59059082 eV
  | Total energy (T->0) per atom                          :        -694.32269778 eV  <-- do not rely on this value for anything but (periodic) metals
  | Electronic free energy per atom                       :        -694.32269778 eV

  Self-consistency convergence accuracy:
  | Change of charge density      : 0.4511E+00
  | Change of sum of eigenvalues  : 0.1228E+03 eV
  | Change of total energy        : 0.3946E+01 eV

  End self-consistency iteration #     2       :  max(cpu_time)    wall_clock(cpu1)
  | Time for this iteration                    :        1.171 s           1.171 s
  | Charge density update                      :        0.369 s           0.369 s
  | Density mixing                             :        0.004 s           0.004 s
  | Hartree multipole update                   :        0.004 s           0.004 s
  | Hartree multipole summation                :        0.209 s           0.209 s
  | Integration                                :        0.554 s           0.554 s
  | Solution of K.-S. eqns.                    :        0.030 s           0.030 s
  | Total energy evaluation                    :        0.000 s           0.001 s
------------------------------------------------------------

------------------------------------------------------------
          Begin self-consistency iteration #    3

  Date     :  20150727, Time     :  115158.544
------------------------------------------------------------
  Evaluating new KS density.
  Integration grid: deviation in total charge (<rho> - N_e) =  -7.105427E-15
  Pulay mixing of updated and previous charge densities.

  Evaluating partitioned Hartree potential by multipole expansion.
  | Analytical far-field extrapolation by fixed multipoles:
  | Hartree multipole sum: apparent total charge =  -0.435534E-05
  Summing up the Hartree potential.
  Time summed over all CPUs for potential: real work        1.653 s, elapsed        1.661 s
  | RMS charge density error from multipole expansion :   0.114786E-01

  Integrating Hamiltonian matrix: batch-based integration.
  Time summed over all CPUs for integration: real work        4.341 s, elapsed        4.418 s

  Updating Kohn-Sham eigenvalues, eigenvectors, occupation numbers, and Fermi level.
  Solving generalized eigenproblem
  Updating Kohn-Sham eigenvalues and eigenfunctions.
  Solving real generalised eigenvalue problem by standard LAPACK (fast)
  Determining occupation numbers for Kohn-Sham eigenstates.
  | Chemical potential (Fermi level) in eV                 : -.26978293E+01
  | Error in electron count due to remaining E_F inaccuracy: 0.00000000E+00
  | Maximum occupation number of highest empty state:  0.00E+00

  Highest occupied state (VBM) at     -5.81282673 eV
  | Occupation number:      2.00000000

  Lowest unoccupied state (CBM) at    -1.82652167 eV
  | Occupation number:      0.00000000

  Overall HOMO-LUMO gap:      3.98630506 eV.

  Total energy components:
  | Sum of eigenvalues            :        -167.10091591 Ha       -4547.04727304 eV
  | XC energy correction          :         -37.07431303 Ha       -1008.84338697 eV
  | XC potential correction       :          47.38742978 Ha        1289.47757234 eV
  | Free-atom electrostatic energy:        -143.18363185 Ha       -3896.22486033 eV
  | Hartree energy correction     :          -6.21397787 Ha        -169.09094118 eV
  | van der Waals energy corr.    :           0.00000000 Ha           0.00000000 eV
  | Entropy correction            :           0.00000000 Ha           0.00000000 eV
  | ---------------------------
  | Total energy                  :        -306.18540887 Ha       -8331.72888918 eV
  | Total energy, T -> 0          :        -306.18540887 Ha       -8331.72888918 eV  <-- do not rely on this value for anything but (periodic) metals
  | Electronic free energy        :        -306.18540887 Ha       -8331.72888918 eV

  Derived energy quantities:
  | Kinetic energy                :         305.08979665 Ha        8301.91576379 eV
  | Electrostatic energy          :        -574.20089250 Ha      -15624.80126600 eV
  | Energy correction for multipole
  | error in Hartree potential    :          -0.00422605 Ha          -0.11499676 eV
  | Sum of eigenvalues per atom                           :        -378.92060609 eV
  | Total energy (T->0) per atom                          :        -694.31074076 eV  <-- do not rely on this value for anything but (periodic) metals
  | Electronic free energy per atom                       :        -694.31074076 eV

  Self-consistency convergence accuracy:
  | Change of charge density      : 0.2286E+00
  | Change of sum of eigenvalues  : -.3960E+01 eV
  | Change of total energy        : 0.1435E+00 eV

  End self-consistency iteration #     3       :  max(cpu_time)    wall_clock(cpu1)
  | Time for this iteration                    :        1.168 s           1.167 s
  | Charge density update                      :        0.365 s           0.365 s
  | Density mixing                             :        0.005 s           0.005 s
  | Hartree multipole update                   :        0.005 s           0.005 s
  | Hartree multipole summation                :        0.208 s           0.208 s
  | Integration                                :        0.554 s           0.553 s
  | Solution of K.-S. eqns.                    :        0.030 s           0.031 s
  | Total energy evaluation                    :        0.001 s           0.000 s
------------------------------------------------------------

------------------------------------------------------------
          Begin self-consistency iteration #    4

  Date     :  20150727, Time     :  115159.712
------------------------------------------------------------
  Evaluating new KS density.
  Integration grid: deviation in total charge (<rho> - N_e) =   7.105427E-15
  Pulay mixing of updated and previous charge densities.

  Evaluating partitioned Hartree potential by multipole expansion.
  | Analytical far-field extrapolation by fixed multipoles:
  | Hartree multipole sum: apparent total charge =  -0.530282E-05
  Summing up the Hartree potential.
  Time summed over all CPUs for potential: real work        1.653 s, elapsed        1.661 s
  | RMS charge density error from multipole expansion :   0.151058E-01

  Integrating Hamiltonian matrix: batch-based integration.
  Time summed over all CPUs for integration: real work        4.346 s, elapsed        4.418 s

  Updating Kohn-Sham eigenvalues, eigenvectors, occupation numbers, and Fermi level.
  Solving generalized eigenproblem
  Updating Kohn-Sham eigenvalues and eigenfunctions.
  Solving real generalised eigenvalue problem by standard LAPACK (fast)
  Determining occupation numbers for Kohn-Sham eigenstates.
  | Chemical potential (Fermi level) in eV                 : -.22201747E+01
  | Error in electron count due to remaining E_F inaccuracy: 0.00000000E+00
  | Maximum occupation number of highest empty state:  0.00E+00

  Highest occupied state (VBM) at     -4.49644460 eV
  | Occupation number:      2.00000000

  Lowest unoccupied state (CBM) at    -1.66520856 eV
  | Occupation number:      0.00000000

  Overall HOMO-LUMO gap:      2.83123603 eV.

  Total energy components:
  | Sum of eigenvalues            :        -165.56586244 Ha       -4505.27634285 eV
  | XC energy correction          :         -37.24725916 Ha       -1013.54949057 eV
  | XC potential correction       :          47.61303341 Ha        1295.61655946 eV
  | Free-atom electrostatic energy:        -143.18363185 Ha       -3896.22486033 eV
  | Hartree energy correction     :          -7.79047635 Ha        -211.98964727 eV
  | van der Waals energy corr.    :           0.00000000 Ha           0.00000000 eV
  | Entropy correction            :           0.00000000 Ha           0.00000000 eV
  | ---------------------------
  | Total energy                  :        -306.17419638 Ha       -8331.42378157 eV
  | Total energy, T -> 0          :        -306.17419638 Ha       -8331.42378157 eV  <-- do not rely on this value for anything but (periodic) metals
  | Electronic free energy        :        -306.17419638 Ha       -8331.42378157 eV

  Derived energy quantities:
  | Kinetic energy                :         305.26719178 Ha        8306.74293072 eV
  | Electrostatic energy          :        -574.19412899 Ha      -15624.61722172 eV
  | Energy correction for multipole
  | error in Hartree potential    :          -0.00578517 Ha          -0.15742244 eV
  | Sum of eigenvalues per atom                           :        -375.43969524 eV
  | Total energy (T->0) per atom                          :        -694.28531513 eV  <-- do not rely on this value for anything but (periodic) metals
  | Electronic free energy per atom                       :        -694.28531513 eV

  Self-consistency convergence accuracy:
  | Change of charge density      : 0.1317E+00
  | Change of sum of eigenvalues  : 0.4177E+02 eV
  | Change of total energy        : 0.3051E+00 eV

  End self-consistency iteration #     4       :  max(cpu_time)    wall_clock(cpu1)
  | Time for this iteration                    :        1.169 s           1.168 s
  | Charge density update                      :        0.365 s           0.365 s
  | Density mixing                             :        0.007 s           0.006 s
  | Hartree multipole update                   :        0.004 s           0.005 s
  | Hartree multipole summation                :        0.208 s           0.208 s
  | Integration                                :        0.554 s           0.553 s
  | Solution of K.-S. eqns.                    :        0.030 s           0.031 s
  | Total energy evaluation                    :        0.001 s           0.000 s
------------------------------------------------------------

------------------------------------------------------------
          Begin self-consistency iteration #    5

  Date     :  20150727, Time     :  115200.881
------------------------------------------------------------
  Evaluating new KS density.
  Integration grid: deviation in total charge (<rho> - N_e) =   1.421085E-14
  Pulay mixing of updated and previous charge densities.

  Evaluating partitioned Hartree potential by multipole expansion.
  | Analytical far-field extrapolation by fixed multipoles:
  | Hartree multipole sum: apparent total charge =  -0.522024E-05
  Summing up the Hartree potential.
  Time summed over all CPUs for potential: real work        1.653 s, elapsed        1.661 s
  | RMS charge density error from multipole expansion :   0.156735E-01

  Integrating Hamiltonian matrix: batch-based integration.
  Time summed over all CPUs for integration: real work        4.339 s, elapsed        4.441 s

  Updating Kohn-Sham eigenvalues, eigenvectors, occupation numbers, and Fermi level.
  Solving generalized eigenproblem
  Updating Kohn-Sham eigenvalues and eigenfunctions.
  Solving real generalised eigenvalue problem by standard LAPACK (fast)
  Determining occupation numbers for Kohn-Sham eigenstates.
  | Chemical potential (Fermi level) in eV                 : -.21989567E+01
  | Error in electron count due to remaining E_F inaccuracy: 0.00000000E+00
  | Maximum occupation number of highest empty state:  0.00E+00

  Highest occupied state (VBM) at     -4.37399575 eV
  | Occupation number:      2.00000000

  Lowest unoccupied state (CBM) at    -1.64533645 eV
  | Occupation number:      0.00000000

  Overall HOMO-LUMO gap:      2.72865930 eV.

  Total energy components:
  | Sum of eigenvalues            :        -165.50430607 Ha       -4503.60130888 eV
  | XC energy correction          :         -37.25783492 Ha       -1013.83727153 eV
  | XC potential correction       :          47.62637867 Ha        1295.97970246 eV
  | Free-atom electrostatic energy:        -143.18363185 Ha       -3896.22486033 eV
  | Hartree energy correction     :          -7.85458033 Ha        -213.73400538 eV
  | van der Waals energy corr.    :           0.00000000 Ha           0.00000000 eV
  | Entropy correction            :           0.00000000 Ha           0.00000000 eV
  | ---------------------------
  | Total energy                  :        -306.17397449 Ha       -8331.41774366 eV
  | Total energy, T -> 0          :        -306.17397449 Ha       -8331.41774366 eV  <-- do not rely on this value for anything but (periodic) metals
  | Electronic free energy        :        -306.17397449 Ha       -8331.41774366 eV

  Derived energy quantities:
  | Kinetic energy                :         305.28088780 Ha        8307.11561831 eV
  | Electrostatic energy          :        -574.19702737 Ha      -15624.69609044 eV
  | Energy correction for multipole
  | error in Hartree potential    :          -0.00587559 Ha          -0.15988281 eV
  | Sum of eigenvalues per atom                           :        -375.30010907 eV
  | Total energy (T->0) per atom                          :        -694.28481197 eV  <-- do not rely on this value for anything but (periodic) metals
  | Electronic free energy per atom                       :        -694.28481197 eV

  Self-consistency convergence accuracy:
  | Change of charge density      : 0.3085E-01
  | Change of sum of eigenvalues  : 0.1675E+01 eV
  | Change of total energy        : 0.6038E-02 eV

  End self-consistency iteration #     5       :  max(cpu_time)    wall_clock(cpu1)
  | Time for this iteration                    :        1.174 s           1.173 s
  | Charge density update                      :        0.366 s           0.365 s
  | Density mixing                             :        0.007 s           0.008 s
  | Hartree multipole update                   :        0.005 s           0.004 s
  | Hartree multipole summation                :        0.208 s           0.208 s
  | Integration                                :        0.556 s           0.557 s
  | Solution of K.-S. eqns.                    :        0.031 s           0.031 s
  | Total energy evaluation                    :        0.000 s           0.000 s
------------------------------------------------------------

------------------------------------------------------------
          Begin self-consistency iteration #    6

  Date     :  20150727, Time     :  115202.054
------------------------------------------------------------
  Evaluating new KS density.
  Integration grid: deviation in total charge (<rho> - N_e) =   2.842171E-14
  Pulay mixing of updated and previous charge densities.

  Evaluating partitioned Hartree potential by multipole expansion.
  | Analytical far-field extrapolation by fixed multipoles:
  | Hartree multipole sum: apparent total charge =  -0.521927E-05
  Summing up the Hartree potential.
  Time summed over all CPUs for potential: real work        1.653 s, elapsed        1.661 s
  | RMS charge density error from multipole expansion :   0.158254E-01

  Integrating Hamiltonian matrix: batch-based integration.
  Time summed over all CPUs for integration: real work        4.337 s, elapsed        4.424 s

  Updating Kohn-Sham eigenvalues, eigenvectors, occupation numbers, and Fermi level.
  Solving generalized eigenproblem
  Updating Kohn-Sham eigenvalues and eigenfunctions.
  Solving real generalised eigenvalue problem by standard LAPACK (fast)
  Determining occupation numbers for Kohn-Sham eigenstates.
  | Chemical potential (Fermi level) in eV                 : -.21896299E+01
  | Error in electron count due to remaining E_F inaccuracy: 0.00000000E+00
  | Maximum occupation number of highest empty state:  0.00E+00

  Highest occupied state (VBM) at     -4.35528285 eV
  | Occupation number:      2.00000000

  Lowest unoccupied state (CBM) at    -1.63951844 eV
  | Occupation number:      0.00000000

  Overall HOMO-LUMO gap:      2.71576441 eV.

  Total energy components:
  | Sum of eigenvalues            :        -165.47651442 Ha       -4502.84505971 eV
  | XC energy correction          :         -37.26173108 Ha       -1013.94329162 eV
  | XC potential correction       :          47.63137200 Ha        1296.11557772 eV
  | Free-atom electrostatic energy:        -143.18363185 Ha       -3896.22486033 eV
  | Hartree energy correction     :          -7.88350876 Ha        -214.52118800 eV
  | van der Waals energy corr.    :           0.00000000 Ha           0.00000000 eV
  | Entropy correction            :           0.00000000 Ha           0.00000000 eV
  | ---------------------------
  | Total energy                  :        -306.17401411 Ha       -8331.41882194 eV
  | Total energy, T -> 0          :        -306.17401411 Ha       -8331.41882194 eV  <-- do not rely on this value for anything but (periodic) metals
  | Electronic free energy        :        -306.17401411 Ha       -8331.41882194 eV

  Derived energy quantities:
  | Kinetic energy                :         305.28615337 Ha        8307.25890186 eV
  | Electrostatic energy          :        -574.19843640 Ha      -15624.73443218 eV
  | Energy correction for multipole
  | error in Hartree potential    :          -0.00590922 Ha          -0.16079818 eV
  | Sum of eigenvalues per atom                           :        -375.23708831 eV
  | Total energy (T->0) per atom                          :        -694.28490183 eV  <-- do not rely on this value for anything but (periodic) metals
  | Electronic free energy per atom                       :        -694.28490183 eV

  Self-consistency convergence accuracy:
  | Change of charge density      : 0.1106E-01
  | Change of sum of eigenvalues  : 0.7562E+00 eV
  | Change of total energy        : -.1078E-02 eV

  End self-consistency iteration #     6       :  max(cpu_time)    wall_clock(cpu1)
  | Time for this iteration                    :        1.184 s           1.184 s
  | Charge density update                      :        0.377 s           0.378 s
  | Density mixing                             :        0.009 s           0.008 s
  | Hartree multipole update                   :        0.004 s           0.005 s
  | Hartree multipole summation                :        0.209 s           0.208 s
  | Integration                                :        0.554 s           0.554 s
  | Solution of K.-S. eqns.                    :        0.030 s           0.031 s
  | Total energy evaluation                    :        0.000 s           0.000 s
------------------------------------------------------------

------------------------------------------------------------
          Begin self-consistency iteration #    7

  Date     :  20150727, Time     :  115203.238
------------------------------------------------------------
  Evaluating new KS density.
  Integration grid: deviation in total charge (<rho> - N_e) =   1.421085E-14
  Pulay mixing of updated and previous charge densities.

  Evaluating partitioned Hartree potential by multipole expansion.
  | Analytical far-field extrapolation by fixed multipoles:
  | Hartree multipole sum: apparent total charge =  -0.501029E-05
  Summing up the Hartree potential.
  Time summed over all CPUs for potential: real work        1.653 s, elapsed        1.661 s
  | RMS charge density error from multipole expansion :   0.158216E-01

  Integrating Hamiltonian matrix: batch-based integration.
  Time summed over all CPUs for integration: real work        4.335 s, elapsed        4.421 s

  Updating Kohn-Sham eigenvalues, eigenvectors, occupation numbers, and Fermi level.
  Solving generalized eigenproblem
  Updating Kohn-Sham eigenvalues and eigenfunctions.
  Solving real generalised eigenvalue problem by standard LAPACK (fast)
  Determining occupation numbers for Kohn-Sham eigenstates.
  | Chemical potential (Fermi level) in eV                 : -.22391548E+01
  | Error in electron count due to remaining E_F inaccuracy: 0.00000000E+00
  | Maximum occupation number of highest empty state:  0.00E+00

  Highest occupied state (VBM) at     -4.51657294 eV
  | Occupation number:      2.00000000

  Lowest unoccupied state (CBM) at    -1.65414336 eV
  | Occupation number:      0.00000000

  Overall HOMO-LUMO gap:      2.86242958 eV.

  Total energy components:
  | Sum of eigenvalues            :        -165.61772641 Ha       -4506.68763339 eV
  | XC energy correction          :         -37.24915738 Ha       -1013.60114387 eV
  | XC potential correction       :          47.61444617 Ha        1295.65500257 eV
  | Free-atom electrostatic energy:        -143.18363185 Ha       -3896.22486033 eV
  | Hartree energy correction     :          -7.73781983 Ha        -210.55679049 eV
  | van der Waals energy corr.    :           0.00000000 Ha           0.00000000 eV
  | Entropy correction            :           0.00000000 Ha           0.00000000 eV
  | ---------------------------
  | Total energy                  :        -306.17388930 Ha       -8331.41542552 eV
  | Total energy, T -> 0          :        -306.17388930 Ha       -8331.41542552 eV  <-- do not rely on this value for anything but (periodic) metals
  | Electronic free energy        :        -306.17388930 Ha       -8331.41542552 eV

  Derived energy quantities:
  | Kinetic energy                :         305.33983619 Ha        8308.71968565 eV
  | Electrostatic energy          :        -574.26456810 Ha      -15626.53396729 eV
  | Energy correction for multipole
  | error in Hartree potential    :          -0.00567434 Ha          -0.15440656 eV
  | Sum of eigenvalues per atom                           :        -375.55730278 eV
  | Total energy (T->0) per atom                          :        -694.28461879 eV  <-- do not rely on this value for anything but (periodic) metals
  | Electronic free energy per atom                       :        -694.28461879 eV

  Self-consistency convergence accuracy:
  | Change of charge density      : 0.1100E-01
  | Change of sum of eigenvalues  : -.3843E+01 eV
  | Change of total energy        : 0.3396E-02 eV

  End self-consistency iteration #     7       :  max(cpu_time)    wall_clock(cpu1)
  | Time for this iteration                    :        1.173 s           1.174 s
  | Charge density update                      :        0.366 s           0.366 s
  | Density mixing                             :        0.010 s           0.010 s
  | Hartree multipole update                   :        0.004 s           0.004 s
  | Hartree multipole summation                :        0.208 s           0.209 s
  | Integration                                :        0.553 s           0.553 s
  | Solution of K.-S. eqns.                    :        0.031 s           0.030 s
  | Total energy evaluation                    :        0.000 s           0.000 s
------------------------------------------------------------

------------------------------------------------------------
          Begin self-consistency iteration #    8

  Date     :  20150727, Time     :  115204.412
------------------------------------------------------------
  Evaluating new KS density.
  Integration grid: deviation in total charge (<rho> - N_e) =   1.421085E-14
  Pulay mixing of updated and previous charge densities.

  Evaluating partitioned Hartree potential by multipole expansion.
  | Analytical far-field extrapolation by fixed multipoles:
  | Hartree multipole sum: apparent total charge =  -0.501360E-05
  Summing up the Hartree potential.
  Time summed over all CPUs for potential: real work        1.657 s, elapsed        1.674 s
  | RMS charge density error from multipole expansion :   0.158670E-01

  Integrating Hamiltonian matrix: batch-based integration.
  Time summed over all CPUs for integration: real work        4.334 s, elapsed        4.420 s

  Updating Kohn-Sham eigenvalues, eigenvectors, occupation numbers, and Fermi level.
  Solving generalized eigenproblem
  Updating Kohn-Sham eigenvalues and eigenfunctions.
  Solving real generalised eigenvalue problem by standard LAPACK (fast)
  Determining occupation numbers for Kohn-Sham eigenstates.
  | Chemical potential (Fermi level) in eV                 : -.22350235E+01
  | Error in electron count due to remaining E_F inaccuracy: 0.00000000E+00
  | Maximum occupation number of highest empty state:  0.00E+00

  Highest occupied state (VBM) at     -4.49471503 eV
  | Occupation number:      2.00000000

  Lowest unoccupied state (CBM) at    -1.65369666 eV
  | Occupation number:      0.00000000

  Overall HOMO-LUMO gap:      2.84101836 eV.

  Total energy components:
  | Sum of eigenvalues            :        -165.60506103 Ha       -4506.34299095 eV
  | XC energy correction          :         -37.25038587 Ha       -1013.63457280 eV
  | XC potential correction       :          47.61603340 Ha        1295.69819309 eV
  | Free-atom electrostatic energy:        -143.18363185 Ha       -3896.22486033 eV
  | Hartree energy correction     :          -7.75084355 Ha        -210.91118392 eV
  | van der Waals energy corr.    :           0.00000000 Ha           0.00000000 eV
  | Entropy correction            :           0.00000000 Ha           0.00000000 eV
  | ---------------------------
  | Total energy                  :        -306.17388891 Ha       -8331.41541491 eV
  | Total energy, T -> 0          :        -306.17388891 Ha       -8331.41541491 eV  <-- do not rely on this value for anything but (periodic) metals
  | Electronic free energy        :        -306.17388891 Ha       -8331.41541491 eV

  Derived energy quantities:
  | Kinetic energy                :         305.34183415 Ha        8308.77405302 eV
  | Electrostatic energy          :        -574.26533718 Ha      -15626.55489514 eV
  | Energy correction for multipole
  | error in Hartree potential    :          -0.00569569 Ha          -0.15498773 eV
  | Sum of eigenvalues per atom                           :        -375.52858258 eV
  | Total energy (T->0) per atom                          :        -694.28461791 eV  <-- do not rely on this value for anything but (periodic) metals
  | Electronic free energy per atom                       :        -694.28461791 eV

  Self-consistency convergence accuracy:
  | Change of charge density      : 0.1830E-02
  | Change of sum of eigenvalues  : 0.3446E+00 eV
  | Change of total energy        : 0.1060E-04 eV

  End self-consistency iteration #     8       :  max(cpu_time)    wall_clock(cpu1)
  | Time for this iteration                    :        1.174 s           1.174 s
  | Charge density update                      :        0.364 s           0.364 s
  | Density mixing                             :        0.011 s           0.011 s
  | Hartree multipole update                   :        0.004 s           0.004 s
  | Hartree multipole summation                :        0.210 s           0.210 s
  | Integration                                :        0.554 s           0.554 s
  | Solution of K.-S. eqns.                    :        0.031 s           0.031 s
  | Total energy evaluation                    :        0.000 s           0.000 s
------------------------------------------------------------

------------------------------------------------------------
          Begin self-consistency iteration #    9

  Date     :  20150727, Time     :  115205.586
------------------------------------------------------------
  Evaluating new KS density.
  Integration grid: deviation in total charge (<rho> - N_e) =   2.842171E-14
  Pulay mixing of updated and previous charge densities.

  Evaluating partitioned Hartree potential by multipole expansion.
  | Analytical far-field extrapolation by fixed multipoles:
  | Hartree multipole sum: apparent total charge =  -0.501070E-05
  Summing up the Hartree potential.
  Time summed over all CPUs for potential: real work        1.653 s, elapsed        1.661 s
  | RMS charge density error from multipole expansion :   0.158636E-01

  Integrating Hamiltonian matrix: batch-based integration.
  Time summed over all CPUs for integration: real work        4.335 s, elapsed        4.420 s

  Updating Kohn-Sham eigenvalues, eigenvectors, occupation numbers, and Fermi level.
  Solving generalized eigenproblem
  Updating Kohn-Sham eigenvalues and eigenfunctions.
  Solving real generalised eigenvalue problem by standard LAPACK (fast)
  Determining occupation numbers for Kohn-Sham eigenstates.
  | Chemical potential (Fermi level) in eV                 : -.22353856E+01
  | Error in electron count due to remaining E_F inaccuracy: 0.00000000E+00
  | Maximum occupation number of highest empty state:  0.00E+00

  Highest occupied state (VBM) at     -4.49870197 eV
  | Occupation number:      2.00000000

  Lowest unoccupied state (CBM) at    -1.65403747 eV
  | Occupation number:      0.00000000

  Overall HOMO-LUMO gap:      2.84466450 eV.

  Total energy components:
  | Sum of eigenvalues            :        -165.60643551 Ha       -4506.38039225 eV
  | XC energy correction          :         -37.25021347 Ha       -1013.62988152 eV
  | XC potential correction       :          47.61580439 Ha        1295.69196143 eV
  | Free-atom electrostatic energy:        -143.18363185 Ha       -3896.22486033 eV
  | Hartree energy correction     :          -7.74941180 Ha        -210.87222418 eV
  | van der Waals energy corr.    :           0.00000000 Ha           0.00000000 eV
  | Entropy correction            :           0.00000000 Ha           0.00000000 eV
  | ---------------------------
  | Total energy                  :        -306.17388824 Ha       -8331.41539685 eV
  | Total energy, T -> 0          :        -306.17388824 Ha       -8331.41539685 eV  <-- do not rely on this value for anything but (periodic) metals
  | Electronic free energy        :        -306.17388824 Ha       -8331.41539685 eV

  Derived energy quantities:
  | Kinetic energy                :         305.34357396 Ha        8308.82139553 eV
  | Electrostatic energy          :        -574.26724873 Ha      -15626.60691086 eV
  | Energy correction for multipole
  | error in Hartree potential    :          -0.00569166 Ha          -0.15487807 eV
  | Sum of eigenvalues per atom                           :        -375.53169935 eV
  | Total energy (T->0) per atom                          :        -694.28461640 eV  <-- do not rely on this value for anything but (periodic) metals
  | Electronic free energy per atom                       :        -694.28461640 eV

  Self-consistency convergence accuracy:
  | Change of charge density      : 0.9520E-03
  | Change of sum of eigenvalues  : -.3740E-01 eV
  | Change of total energy        : 0.1806E-04 eV

  End self-consistency iteration #     9       :  max(cpu_time)    wall_clock(cpu1)
  | Time for this iteration                    :        1.175 s           1.175 s
  | Charge density update                      :        0.365 s           0.365 s
  | Density mixing                             :        0.012 s           0.012 s
  | Hartree multipole update                   :        0.005 s           0.004 s
  | Hartree multipole summation                :        0.208 s           0.209 s
  | Integration                                :        0.554 s           0.553 s
  | Solution of K.-S. eqns.                    :        0.030 s           0.031 s
  | Total energy evaluation                    :        0.000 s           0.000 s
------------------------------------------------------------

------------------------------------------------------------
          Begin self-consistency iteration #   10

  Date     :  20150727, Time     :  115206.761
------------------------------------------------------------
  Evaluating new KS density.
  Integration grid: deviation in total charge (<rho> - N_e) =   2.131628E-14
  Pulay mixing of updated and previous charge densities.

  Evaluating partitioned Hartree potential by multipole expansion.
  | Analytical far-field extrapolation by fixed multipoles:
  | Hartree multipole sum: apparent total charge =  -0.500152E-05
  Summing up the Hartree potential.
  Time summed over all CPUs for potential: real work        1.653 s, elapsed        1.661 s
  | RMS charge density error from multipole expansion :   0.158681E-01

  Integrating Hamiltonian matrix: batch-based integration.
  Time summed over all CPUs for integration: real work        4.337 s, elapsed        4.422 s

  Updating Kohn-Sham eigenvalues, eigenvectors, occupation numbers, and Fermi level.
  Solving generalized eigenproblem
[...]
  |                                 -0.00404400       0.11969213      -0.00179819
  |                                  0.00285623      -0.00179819       0.13892203
  ----------------------------------------------------------------------


  Total energy components:
  | Sum of eigenvalues            :        -165.60945334 Ha       -4506.46251157 eV
  | XC energy correction          :         -37.24971401 Ha       -1013.61629031 eV
  | XC potential correction       :          47.61513094 Ha        1295.67363609 eV
  | Free-atom electrostatic energy:        -143.18363185 Ha       -3896.22486033 eV
  | Hartree energy correction     :          -7.74621898 Ha        -210.78534318 eV
  | van der Waals energy corr.    :          -0.00144172 Ha          -0.03923108 eV
  | Entropy correction            :           0.00000000 Ha           0.00000000 eV
  | ---------------------------
  | Total energy                  :        -306.17532895 Ha       -8331.45460039 eV
  | Total energy, T -> 0          :        -306.17532895 Ha       -8331.45460039 eV  <-- do not rely on this value for anything but (periodic) metals
  | Electronic free energy        :        -306.17532895 Ha       -8331.45460039 eV

  Derived energy quantities:
  | Kinetic energy                :         305.34544623 Ha        8308.87234267 eV
  | Electrostatic energy          :        -574.26961946 Ha      -15626.67142167 eV
  | Energy correction for multipole
  | error in Hartree potential    :          -0.00569299 Ha          -0.15491420 eV
  | Sum of eigenvalues per atom                           :        -375.53854263 eV
  | Total energy (T->0) per atom                          :        -694.28788337 eV  <-- do not rely on this value for anything but (periodic) metals
  | Electronic free energy per atom                       :        -694.28788337 eV

  atomic forces [eV/Ang]:
  -----------------------
  atom #    1
   Hellmann-Feynman + Multipole  : -.723109E+01 -.109846E+02 0.374205E+01
   Pulay + GGA                   : 0.807618E+01 0.137880E+02 -.553903E+01
   Van der Waals               : 0.258924E-02 -.174185E-02 -.316146E-02
   ----------------------------------------------------------------
   Total forces(   1)            : 0.847682E+00 0.280166E+01 -.180014E+01
  atom #    2
   Hellmann-Feynman + Multipole  : 0.197045E+01 -.315394E+01 0.131451E+01
   Pulay + GGA                   : -.234377E-02 0.601395E-01 -.410696E-01
   Van der Waals               : 0.162583E-03 0.381830E-03 0.115754E-02
   ----------------------------------------------------------------
   Total forces(   2)            : 0.196827E+01 -.309342E+01 0.127459E+01
  atom #    3
   Hellmann-Feynman + Multipole  : -.219177E+01 -.555744E+00 -.106352E+00
   Pulay + GGA                   : 0.126526E+00 0.614061E-01 -.114955E-01
   Van der Waals               : 0.114623E-02 0.140672E-02 0.150963E-03
   ----------------------------------------------------------------
   Total forces(   3)            : -.206409E+01 -.492931E+00 -.117696E+00
  atom #    4
   Hellmann-Feynman + Multipole  : 0.827581E+01 -.483301E+01 -.148604E+02
   Pulay + GGA                   : -.902461E+01 0.287548E+01 0.143372E+02
   Van der Waals               : -.283703E-02 -.326984E-03 0.599723E-02
   ----------------------------------------------------------------
   Total forces(   4)            : -.751637E+00 -.195786E+01 -.517185E+00
  atom #    5
   Hellmann-Feynman + Multipole  : -.238465E+00 0.706679E+00 0.914511E+00
   Pulay + GGA                   : 0.328643E-02 0.379395E-01 0.887400E-01
   Van der Waals               : -.377815E-03 -.628430E-03 -.150628E-02
   ----------------------------------------------------------------
   Total forces(   5)            : -.235556E+00 0.743990E+00 0.100174E+01
  atom #    6
   Hellmann-Feynman + Multipole  : 0.747791E+00 0.745315E+00 0.142722E+00
   Pulay + GGA                   : -.108073E+00 -.467789E-01 0.670557E-01
   Van der Waals               : 0.176259E-02 0.396234E-02 0.301554E-03
   ----------------------------------------------------------------
   Total forces(   6)            : 0.641480E+00 0.702498E+00 0.210079E+00
  atom #    7
   Hellmann-Feynman + Multipole  : -.606426E+01 -.914090E+01 0.925631E+01
   Pulay + GGA                   : 0.619944E+01 0.102299E+02 -.668627E+01
   Van der Waals               : -.231804E-02 0.149630E-02 0.248396E-02
   ----------------------------------------------------------------
   Total forces(   7)            : 0.132861E+00 0.109047E+01 0.257252E+01
  atom #    8
   Hellmann-Feynman + Multipole  : -.457875E+00 -.755769E+00 -.470357E+00
   Pulay + GGA                   : 0.515733E-01 0.119417E+00 0.370128E-01
   Van der Waals               : 0.759964E-03 -.241299E-03 0.175645E-02
   ----------------------------------------------------------------
   Total forces(   8)            : -.405542E+00 -.636593E+00 -.431588E+00
  atom #    9
   Hellmann-Feynman + Multipole  : -.242778E+00 0.401365E+00 -.232588E+01
   Pulay + GGA                   : -.385658E-01 0.430695E-01 -.125453E+00
   Van der Waals               : 0.725247E-03 -.656478E-03 0.789123E-03
   ----------------------------------------------------------------
   Total forces(   9)            : -.280619E+00 0.443778E+00 -.245054E+01
  atom #   10
   Hellmann-Feynman + Multipole  : 0.765077E+01 -.571905E+01 -.983842E+01
   Pulay + GGA                   : -.889164E+01 0.760886E+01 0.116312E+02
   Van der Waals               : -.663842E-03 -.102848E-02 -.434005E-02
   ----------------------------------------------------------------
   Total forces(  10)            : -.124153E+01 0.188878E+01 0.178841E+01
  atom #   11
   Hellmann-Feynman + Multipole  : -.430419E+00 0.319908E+00 -.224138E+01
   Pulay + GGA                   : 0.217272E-01 0.195802E-01 0.133985E+00
   Van der Waals               : -.592328E-03 -.135566E-02 -.142671E-02
   ----------------------------------------------------------------
   Total forces(  11)            : -.409284E+00 0.338132E+00 -.210883E+01
  atom #   12
   Hellmann-Feynman + Multipole  : 0.189177E+01 -.193439E+01 0.611927E+00
   Pulay + GGA                   : -.849353E-01 0.106956E+00 -.151875E-01
   Van der Waals               : -.356807E-03 -.126800E-02 -.220234E-02
   ----------------------------------------------------------------
   Total forces(  12)            : 0.180647E+01 -.182870E+01 0.594537E+00
  Timings for vdw_correction_hirshfeld (Tkatchenko-Scheffler 2009):
  | CPU time:        3.076 s, Wall clock time:        3.075 s.
  Removing unitary transformations (pure translations, rotations) from forces on atoms.
  Atomic forces before filtering:
  | Net force on center of mass :  0.850501E-02 -.192935E-03 0.159058E-01 eV/A
  | Net torque on center of mass:  0.113173E-01 -.210614E-01 -.210957E-02 eV
  Atomic forces after filtering:
  | Net force on center of mass :  0.107044E-14 0.713624E-15 0.178406E-15 eV/A
  | Net torque on center of mass:  0.528687E-14 -.264344E-14 -.755268E-15 eV
 
  Energy and forces in a compact form:
  | Total energy uncorrected      :         -0.833145460038628E+04 eV
  | Total energy corrected        :         -0.833145460038628E+04 eV  <-- do not rely on this value for anything but (periodic) metals
  | Electronic free energy        :         -0.833145460038628E+04 eV
  Total atomic forces (unitary forces cleaned) [eV/Ang]:
  |   1          0.846441202010335E+00          0.280143196188111E+01         -0.180141984554402E+01
  |   2          0.196689183716796E+01         -0.309370978919598E+01          0.127335420562261E+01
  |   3         -0.206531421522695E+01         -0.493158350510967E+00         -0.119382081195427E+00
  |   4         -0.751965613919039E+00         -0.195765937555440E+01         -0.518208993994894E+00
  |   5         -0.235670503206869E+00          0.744281768548638E+00          0.100051027418806E+01
  |   6          0.641255327894669E+00          0.702749993663509E+00          0.209436930032120E+00
  |   7          0.131336150805527E+00          0.109011649690197E+01          0.257134315712084E+01
  |   8         -0.406929512575798E+00         -0.636893514459687E+00         -0.433075647715327E+00
  |   9         -0.282478590904975E+00          0.443265819603036E+00         -0.245169294065765E+01
  |  10         -0.124138207871502E+01          0.188918277942766E+01          0.178671076837607E+01
  |  11         -0.408759250539705E+00          0.338710633372173E+00         -0.211056040853558E+01
  |  12          0.180657524720987E+01         -0.182831842367707E+01          0.592984582303195E+00
 
  ------------------------------------ 
  Start decomposition of the XC Energy 
  ------------------------------------ 
  Hartree-Fock part   :          0.000000000 Ha              0.000000000 eV
  ------------------------------------ 
  X Energy            :        -35.942317067 Ha           -978.040209518 eV
  C Energy GGA        :         -1.307396939 Ha            -35.576080793 eV
  Total XC Energy     :        -37.249714005 Ha          -1013.616290311 eV
  LDA X and C from self-consistent density 
  X Energy LDA        :        -32.387803531 Ha           -881.316974999 eV
  C Energy LDA        :         -2.638255112 Ha            -71.790574268 eV
  ------------------------------------ 
  End decomposition of the XC Energy 
  ------------------------------------ 
  Performing Hirshfeld analysis of fragment charges and moments.
  ----------------------------------------------------------------------
  | Atom     1: O
  |   Hirshfeld charge        :     -0.34572554
  |   Free atom volume        :     23.95238533
  |   Hirshfeld volume        :     23.65920350
  |   Hirshfeld dipole vector :      0.01206420       0.05403811       0.03129782
  |   Hirshfeld dipole moment :      0.06360201
  |   Hirshfeld second moments:      0.02803555      -0.01198886       0.01732885
  |                                 -0.01198886      -0.05044771      -0.03145225
  |                                  0.01732885      -0.03145225      -0.07900317
  ----------------------------------------------------------------------
  | Atom     2: H
  |   Hirshfeld charge        :      0.06525978
  |   Free atom volume        :     10.44207651
  |   Hirshfeld volume        :      8.26135065
  |   Hirshfeld dipole vector :     -0.02551705       0.03859001      -0.00840985
  |   Hirshfeld dipole moment :      0.04702164
  |   Hirshfeld second moments:      0.07340454       0.03192433       0.00193662
  |                                  0.03192433       0.03070231       0.00874304
  |                                  0.00193662       0.00874304       0.06317293
  ----------------------------------------------------------------------
  | Atom     3: H
  |   Hirshfeld charge        :      0.09794963
  |   Free atom volume        :     10.44207651
  |   Hirshfeld volume        :      7.51993421
  |   Hirshfeld dipole vector :      0.11146821       0.02833271       0.02146545
  |   Hirshfeld dipole moment :      0.11699859
  |   Hirshfeld second moments:      0.09415163      -0.01053698       0.00108658
  |                                 -0.01053698       0.08653279      -0.01095800
  |                                  0.00108658      -0.01095800       0.06706553
  ----------------------------------------------------------------------
  | Atom     4: O
  |   Hirshfeld charge        :     -0.31117563
  |   Free atom volume        :     23.95238533
  |   Hirshfeld volume        :     22.43968295
  |   Hirshfeld dipole vector :     -0.02785466       0.02176390       0.01552283
  |   Hirshfeld dipole moment :      0.03860709
  |   Hirshfeld second moments:      0.01609601       0.05463834      -0.01068427
  |                                  0.05463834       0.00836214       0.01790142
  |                                 -0.01068427       0.01790142      -0.01231237
  ----------------------------------------------------------------------
  | Atom     5: H
  |   Hirshfeld charge        :      0.07019931
  |   Free atom volume        :     10.44207651
  |   Hirshfeld volume        :      8.03965156
  |   Hirshfeld dipole vector :      0.01475062       0.04051567       0.03179742
  |   Hirshfeld dipole moment :      0.05357402
  |   Hirshfeld second moments:      0.08300518      -0.00206572      -0.01058397
  |                                 -0.00206572       0.03577155      -0.01911701
  |                                 -0.01058397      -0.01911701       0.06885245
  ----------------------------------------------------------------------
  | Atom     6: H
  |   Hirshfeld charge        :      0.12256986
  |   Free atom volume        :     10.44207651
  |   Hirshfeld volume        :      6.89353987
  |   Hirshfeld dipole vector :     -0.10133102      -0.06136591       0.02037335
  |   Hirshfeld dipole moment :      0.12020326
  |   Hirshfeld second moments:      0.09215828       0.01366619      -0.00005615
  |                                  0.01366619       0.10613838       0.01229242
  |                                 -0.00005615       0.01229242       0.09673522
  ----------------------------------------------------------------------
  | Atom     7: O
  |   Hirshfeld charge        :     -0.17287297
  |   Free atom volume        :     23.95238533
  |   Hirshfeld volume        :     19.85851607
  |   Hirshfeld dipole vector :      0.02970166      -0.00968782      -0.01520771
  |   Hirshfeld dipole moment :      0.03474647
  |   Hirshfeld second moments:      0.05038783       0.02098216       0.02954632
  |                                  0.02098216       0.09595301       0.01257355
  |                                  0.02954632       0.01257355       0.11290979
  ----------------------------------------------------------------------
  | Atom     8: H
  |   Hirshfeld charge        :      0.18312967
  |   Free atom volume        :     10.44207651
  |   Hirshfeld volume        :      5.66366237
  |   Hirshfeld dipole vector :      0.05985265       0.09291436       0.04701266
  |   Hirshfeld dipole moment :      0.12010665
  |   Hirshfeld second moments:      0.12182775      -0.00067443       0.00320560
  |                                 -0.00067443       0.12841751      -0.00193481
  |                                  0.00320560      -0.00193481       0.14869555
  ----------------------------------------------------------------------
  | Atom     9: H
  |   Hirshfeld charge        :      0.17527807
  |   Free atom volume        :     10.44207651
  |   Hirshfeld volume        :      5.62543764
  |   Hirshfeld dipole vector :     -0.01845457       0.00910956      -0.12009117
  |   Hirshfeld dipole moment :      0.12184188
  |   Hirshfeld second moments:      0.12788877       0.01172971       0.00855569
  |                                  0.01172971       0.14192760       0.00437228
  |                                  0.00855569       0.00437228       0.13084370
  ----------------------------------------------------------------------
  | Atom    10: O
  |   Hirshfeld charge        :     -0.21350869
  |   Free atom volume        :     23.95238533
  |   Hirshfeld volume        :     20.79780993
  |   Hirshfeld dipole vector :     -0.03368841      -0.02291360       0.01146463
  |   Hirshfeld dipole moment :      0.04232470
  |   Hirshfeld second moments:      0.02679174      -0.03961001       0.02954902
  |                                 -0.03961001       0.05324553      -0.00626758
  |                                  0.02954902      -0.00626758       0.07713853
  ----------------------------------------------------------------------
  | Atom    11: H
  |   Hirshfeld charge        :      0.16443419
  |   Free atom volume        :     10.44207651
  |   Hirshfeld volume        :      5.88967674
  |   Hirshfeld dipole vector :      0.01883942      -0.01944179       0.11865925
  |   Hirshfeld dipole moment :      0.12170836
  |   Hirshfeld second moments:      0.12584609      -0.01454791       0.00646017
  |                                 -0.01454791       0.12780624       0.00165471
  |                                  0.00646017       0.00165471       0.11940114
  ----------------------------------------------------------------------
  | Atom    12: H
  |   Hirshfeld charge        :      0.16446056
  |   Free atom volume        :     10.44207651
  |   Hirshfeld volume        :      5.97141826
  |   Hirshfeld dipole vector :     -0.08697579       0.07913489      -0.02541298
  |   Hirshfeld dipole moment :      0.12030353
  |   Hirshfeld second moments:      0.10921486      -0.00404400       0.00285623
  |                                 -0.00404400       0.11969213      -0.00179819
  |                                  0.00285623      -0.00179819       0.13892203
  ----------------------------------------------------------------------


------------------------------------------------------------------------------
  Final output of selected total energy values:

  The following output summarizes some interesting total energy values
  at the end of a run (AFTER all relaxation, molecular dynamics, etc.).

  | Total energy of the DFT / Hartree-Fock s.c.f. calculation      :          -8331.454600386 eV
  | Final zero-broadening corrected energy (caution - metals only) :          -8331.454600386 eV
  | For reference only, the value of 1 Hartree used in FHI-aims is :             27.211384500 eV

  Before relying on these values, please be sure to understand exactly which
  total energy value is referred to by a given number. Different objects may
  all carry the same name 'total energy'. Definitions:

  Total energy of the DFT / Hartree-Fock s.c.f. calculation:
  | Note that this energy does not include ANY quantities calculated after the
  | s.c.f. cycle, in particular not ANY RPA, MP2, etc. many-body perturbation terms.

  Final zero-broadening corrected energy:
  | For metallic systems only, a broadening of the occupation numbers at the Fermi
  | level can be extrapolated back to zero broadening by an electron-gas inspired
  | formula. For all systems that are not real metals, this value can be
  | meaningless and should be avoided.

------------------------------------------------------------------------------

------------------------------------------------------------
          Leaving FHI-aims.
          Date     :  20150727, Time     :  115217.335

          Computational steps:
          | Number of self-consistency cycles          :           16

          Detailed time accounting                     :  max(cpu_time)    wall_clock(cpu1)
          | Total time                                 :       23.067 s          23.102 s
          | Preparation time                           :        0.168 s           0.668 s
          | Grid partitioning                          :        0.113 s           0.112 s
          | Preloading free-atom quantities on grid    :        0.014 s           0.013 s
          | Free-atom superposition energy             :        0.046 s           0.046 s
          | Total time for integrations                :        9.709 s           9.707 s
          | Total time for solution of K.-S. equations :        0.606 s           0.609 s
          | Total time for density & force components  :        7.422 s           7.419 s
          | Total time for mixing                      :        0.163 s           0.164 s
          | Total time for Hartree multipole update    :        0.069 s           0.069 s
          | Total time for Hartree multipole sum       :        4.025 s           4.026 s
          | Total time for total energy evaluation     :        0.005 s           0.002 s
          | Total time for scaled ZORA corrections     :        0.000 s           0.000 s
          | Total time for TS (2009) vdW correction    :        0.034 s           0.035 s

          Have a nice day.
------------------------------------------------------------
