  MPI-parallelism will be employed.
------------------------------------------------------------
          Invoking FHI-aims ...
          Version 081213
          Compiled on 2013/08/29 at 17:41:06 on host generoso.

          When using FHI-aims, please cite the following reference:

          Volker Blum, Ralf Gehrke, Felix Hanke, Paula Havu,
          Ville Havu, Xinguo Ren, Karsten Reuter, and Matthias Scheffler,
          'Ab Initio Molecular Simulations with Numeric Atom-Centered Orbitals: FHI-aims',
          Computer Physics Communications 180, 2175-2196 (2009)

          For any questions about FHI-aims, please visit the aimsclub website
          with its forums and wiki. Contributions to both the forums and the
          wiki are warmly encouraged - they are for you, and everyone is welcome there.

------------------------------------------------------------

  Date     :  20150727, Time     :  121239.868
  Time zero on CPU 1             :   0.369940000000000E-01  s.
  Internal wall clock time zero  :           207231159.868  s.

  Using        8 parallel tasks.
  Task        0 on host gen60 reporting.
  Task        1 on host gen60 reporting.
  Task        2 on host gen60 reporting.
  Task        3 on host gen60 reporting.
  Task        4 on host gen60 reporting.
  Task        5 on host gen60 reporting.
  Task        6 on host gen60 reporting.
  Task        7 on host gen60 reporting.

  Performing system and environment tests:
  | Environment variable OMP_NUM_THREADS correctly set to 1.
  | Checking for scalapack...
  | No scalapack compiled in.

  Obtaining array dimensions for all initial allocations:
  
  -----------------------------------------------------------------------
  Parsing control.in (first pass over file, find array dimensions only).
  The contents of control.in will be repeated verbatim below
  unless switched off by setting 'verbatim_writeout .false.' .
  in the first line of control.in .
  -----------------------------------------------------------------------
  
  #########################################################################################
  #
  #  Volker Blum, FHI 2008 : Test run input file control.in
  #
  #########################################################################################
  #
  #  Physical model
  #
    xc                 rpbe
    spin               none
    relativistic       atomic_zora scalar
    charge             0.
   vdw_correction_hirshfeld
  #
  #  SCF convergence
  #
    occupation_type    gaussian 0.01
    mixer              pulay
      n_max_pulay        10
      charge_mix_param   0.1
    sc_accuracy_rho    5E-5
    sc_accuracy_eev    5E-3
    sc_accuracy_etot   5E-6
    sc_iter_limit      3000
  #
  #  Eigenvalue solver
  #
    KS_method          lapack
      empty_states       8
      basis_threshold    0.e-5
  #
  #  Efficiency
  #
  #   all previous settings are now default, except stratmann still
  #   undecided. Continue to handle stratmann with care, if at all.
  #
  #  partition_type stratmann
    partition_type rho_r2
  #  hartree_partition_type stratmann
  #
  #  Oprions for large clusters (100's of atoms: memory saving / better scaling)
  #
  # for periodic systems:
  #
    density_update_method orbital
    packed_matrix_format none
  #  k_grid 6 6 6
  #  output k_eigenvalue 1
  #  distributed_spline_storage .true.
  #
  #  Relaxation
  #
  #  relax_geometry   bfgs 5.e-3
    sc_accuracy_forces 5.E-4
    final_forces_cleaned .true.
  #
  #  Output options
  #
  #  output mulliken
    output Hirshfeld
  #  output dipole
  
  #harmonic_length_scale 0.001
  
  ################################################################################
  #
  #  FHI-aims code project
  #  VB, Fritz-Haber Institut, 2007
  #
  #  Suggested "safe" defaults for H atom (to be pasted into control.in file)
  #  Basis constructed for a non-relativistic H2 molecule using the
  #  PW-LDA functional.
  #
  ################################################################################
    species        H
  #     global species definitions
      nucleus             1
      cut_pot             4.0  2.0  1.0
      cut_free_atom       finite 8.0
      logarithmic         0.00010000 100.00  1.0123
      basis_dep_cutoff    1d-4  # 1d-4 is safe default - please check 5d-4 if you wish!
      radial_base         24 7.0
      radial_multiplier   2
      angular_grids       specified
        division   0.2783  110
        division   0.3822  194
        division   0.5626  302
  #      division   0.5922  434
  #      division   0.6227  590
  #      division   0.7206  770
        outer_grid  302
      l_hartree           4
  ################################################################################
  #
  #  Definition of "minimal" basis
  #
  ################################################################################
  #     valence basis states
      valence      1  s   1.
  #     ion occupancy
      ion_occ      1  s   0.5
  ################################################################################
  #
  #  Suggested additional basis functions. For production calculations,
  #  uncomment them one after another (the most important basis functions are
  #  listed first).
  #
  ################################################################################
  #  "First tier" - improvements: -1014.90 meV to -62.69 meV
       hydro 2 s 2.1
       hydro 2 p 3.5
  #  "Second tier" - improvements: -12.89 meV to -1.83 meV
       hydro 1 s 0.85
       hydro 2 p 3.7
       hydro 2 s 1.2
       hydro 3 d 7
  #  "Third tier" - improvements: -0.25 meV to -0.12 meV
  #     hydro 4 f 11.2
  #     hydro 3 p 4.8
  #     hydro 4 d 9
  #     hydro 3 s 3.2
  
  ################################################################################
  #
  #  FHI-aims code project
  #  VB, Fritz-Haber Institut, 2007
  #
  #  Suggested "safe" defaults for O atom (to be pasted into control.in file)
  #  All values have been tested for a non-relativistic, non-spinpolarized O2
  #  molecule using the PW-LDA functional. Validity for PBE is expected.
  #
  #  Constructed for dimers: 1.0 A, 1.208 A, 1.5 A, 2.0 A, 3.0 A
  #
  ################################################################################
    species        O
  #     global species definitions
      nucleus             8
      mass                15.9994
      l_hartree           4
      cut_pot             4.0  2.0  1.0
      cut_free_atom       finite 8.0
      basis_dep_cutoff    1d-4  # 1d-4 is safe default - please check 5d-4 if you wish!
      logarithmic         0.00010000 100.00  1.0123
      radial_base         36 7.0
      radial_multiplier   2
       angular_grids specified
        division   0.4087  110
        division   0.5181  194
        division   0.6184  302
  #      division   0.7315  434
  #      division   0.7934  590
  #      division   0.9656  770
  #      division   1.4041  974
  #      outer_grid 974
        outer_grid 302
  ################################################################################
  #
  #  Definition of "minimal" basis
  #
  ################################################################################
  #     valence basis states
      valence      2  s   2.
      valence      2  p   4.
  #     ion occupancy
      ion_occ      2  s   1.
      ion_occ      2  p   3.
  ################################################################################
  #
  #  Suggested additional basis functions. For production calculations,
  #  uncomment them one after another (the most important basis functions are
  #  listed first).
  #
  ################################################################################
  #  "First tier" - improvements: -699.05 meV to -159.38 meV
       hydro 2 p 1.8
       hydro 3 d 7.6
       hydro 3 s 6.4
  #  "Second tier" - improvements: -49.91 meV to -5.39 meV
       hydro 4 f 11.6
       hydro 3 p 6.2
       hydro 3 d 5.6
       hydro 5 g 17.6
       hydro 1 s 0.75
  #  "Third tier" - improvements: -2.83 meV to -0.50 meV
  #     ionic 2 p auto
  #     hydro 4 f 10.8
  #     hydro 4 d 4.7
  #     hydro 2 s 6.8
  #  "Fourth tier" - improvements: -0.40 meV to -0.12 meV
  #     hydro 3 p 5
  #     hydro 3 s 3.3
  #     hydro 5 g 15.6
  #     hydro 4 f 17.6
  #     hydro 4 d 14
  # Further basis functions - -0.08 meV and below
  #     hydro 3 s 2.1
  #     hydro 4 d 11.6
  #     hydro 3 p 16
  #     hydro 2 s 17.2
  
  
  -----------------------------------------------------------------------
  Completed first pass over input file control.in .
  -----------------------------------------------------------------------
  
  
  -----------------------------------------------------------------------
  Parsing geometry.in (first pass over file, find array dimensions only).
  The contents of geometry.in will be repeated verbatim below
  unless switched off by setting 'verbatim_writeout .false.' .
  in the first line of geometry.in .
  -----------------------------------------------------------------------
  
  atom      -4.053030000      0.065001000     -1.525160000  O
  atom      -4.566710000      0.974813000     -1.912820000  H
  atom      -3.067820000      0.330172000     -1.477310000  H
  atom      -4.581760000     -0.256435000      0.939478000  O
  atom      -4.349860000      0.471090000      1.504340000  H
  atom      -5.393870000     -0.726611000      1.228070000  H
  atom      -1.975360000      2.858040000      0.453140000  O
  atom      -1.223550000      3.375850000      0.786238000  H
  atom      -2.537520000      2.567960000      1.156120000  H
  
  -----------------------------------------------------------------------
  Completed first pass over input file geometry.in .
  -----------------------------------------------------------------------
  
 
  Basic array size parameters: 
  | Number of species                 :        2
  | Number of atoms                   :        9
  | Max. basis fn. angular momentum   :        4
  | Max. atomic/ionic basis occupied n:        2
  | Max. number of basis fn. types    :        2
  | Max. radial fns per species/type  :        8
  | Max. logarithmic grid size        :     1301
  | Max. radial integration grid size :       73
  | Max. angular integration grid size:      302
  | Max. angular grid division number :        8
  | Radial grid for Hartree potential :     1301
  | Number of spin channels           :        1

------------------------------------------------------------
          Reading file control.in.
------------------------------------------------------------
  XC: Using RPBE gradient-corrected functionals.
  Spin treatment: No spin polarisation.
  Scalar relativistic treatment of kinetic energy: on-site free-atom approximation to ZORA.
  Charge =   0.000000E+00: Neutral system requested explicitly.
  Using non-empirical van der Waals correction (Hirshfeld partitioning):
  Occupation type: Gaussian broadening, width =   0.100000E-01 eV.
  Using pulay charge density mixing.
  Pulay mixing - number of memorized iterations:   10
  Charge density mixing - mixing parameter:     0.1000
  Convergence accuracy of self-consistent charge density: 0.5000E-04
  Convergence accuracy of sum of eigenvalues: 0.5000E-02
  Convergence accuracy of total energy: 0.5000E-05
  Maximum number of s.-c. iterations  :  3000
  Kohn-Sham eigenvalues and eigenfunctions calculated by lapack diagonalisation (D&C).
  Number of empty states per atom:        8
  Threshold for basis singularities: 0.0000E+00
  Partition function in integrals calculations: rho / r^2
 Using packed matrix format           0
  Convergence accuracy of forces: 0.5000E-03
  Cleaning forces before final output.
  Hirshfeld charge analysis will be performed.
 
  Reading configuration options for species H                   .
  | Found nuclear charge :   1.0000
  | Found cutoff potl. onset [A], width [A], scale factor :    4.00000    2.00000    1.00000
  | Found cutoff specification for free atom: Cutoff potential begins at    8.00000 A.
  | Found logarithmic grid data [bohr] : 0.1000E-03 0.1000E+03 0.1012E+01
  | Threshold for basis-dependent cutoff potential is   0.100000E-03
  | Found data for basic radial integration grid :    24 points, outermost radius =    7.000 A
  | Found multiplier for basic radial grid :   2
  | Found angular grid specification: user-specified.
  | Specified grid contains     4 separate shells.
  | Check grid settings after all constraints further below.
  | Found l_max for Hartree potential  :   4
  | Found free-atom valence shell :  1 s   1.000
  | No ionic wave fns used. Skipping ion_occ.
  | Found hydrogenic basis function :  2 s   2.100
  | Found hydrogenic basis function :  2 p   3.500
  | Found hydrogenic basis function :  1 s   0.850
  | Found hydrogenic basis function :  2 p   3.700
  | Found hydrogenic basis function :  2 s   1.200
  | Found hydrogenic basis function :  3 d   7.000
  Species H                   : Missing cutoff potential type.
  Defaulting to exp(1/x)/(1-x)^2 type cutoff potential.
  Species H : On-site basis accuracy parameter (for Gram-Schmidt orthonormalisation) not specified.
  Using default value basis_acc =  0.1000000E-03.
  Species H                   : Using default innermost maximum threshold i_radial=  2 for radial functions.
  Species H                   : Basic radial grid will be enhanced according to radial_multiplier =   2, to contain    49 grid points.
 
  Reading configuration options for species O                   .
  | Found nuclear charge :   8.0000
  | Found atomic mass :    15.9994000000000      amu
  | Found l_max for Hartree potential  :   4
  | Found cutoff potl. onset [A], width [A], scale factor :    4.00000    2.00000    1.00000
  | Found cutoff specification for free atom: Cutoff potential begins at    8.00000 A.
  | Threshold for basis-dependent cutoff potential is   0.100000E-03
  | Found logarithmic grid data [bohr] : 0.1000E-03 0.1000E+03 0.1012E+01
  | Found data for basic radial integration grid :    36 points, outermost radius =    7.000 A
  | Found multiplier for basic radial grid :   2
  | Found angular grid specification: user-specified.
  | Specified grid contains     4 separate shells.
  | Check grid settings after all constraints further below.
  | Found free-atom valence shell :  2 s   2.000
  | Found free-atom valence shell :  2 p   4.000
  | No ionic wave fns used. Skipping ion_occ.
  | No ionic wave fns used. Skipping ion_occ.
  | Found hydrogenic basis function :  2 p   1.800
  | Found hydrogenic basis function :  3 d   7.600
  | Found hydrogenic basis function :  3 s   6.400
  | Found hydrogenic basis function :  4 f  11.600
  | Found hydrogenic basis function :  3 p   6.200
  | Found hydrogenic basis function :  3 d   5.600
  | Found hydrogenic basis function :  5 g  17.600
  | Found hydrogenic basis function :  1 s   0.750
  Species O                   : Missing cutoff potential type.
  Defaulting to exp(1/x)/(1-x)^2 type cutoff potential.
  Species O : On-site basis accuracy parameter (for Gram-Schmidt orthonormalisation) not specified.
  Using default value basis_acc =  0.1000000E-03.
  Species O                   : Using default innermost maximum threshold i_radial=  2 for radial functions.
  Species O                   : Basic radial grid will be enhanced according to radial_multiplier =   2, to contain    73 grid points.
 
  Finished reading input file 'control.in'. Consistency checks are next.
 
  Target number of points in a grid batch is not set. Defaulting to  100
  Method for grid partitioning is not set. Defaulting to parallel hash+maxmin partitioning.
  Batch size limit is not set. Defaulting to    200
  By default, will store active basis functions for each batch.
  If in need of memory, prune_basis_once .false. can be used to disable this option.
  communication_type for Hartree potential was not specified.
  Defaulting to calc_hartree .
  Pulay mixer: Number of initial linear mixing iterations not set.
  Defaulting to    0 iterations.
  Work space size for distributed Hartree potential not set.
  Defaulting to   0.200000E+03 MB.
  Algorithm-dependent basis array size parameters:
  | n_max_pulay                         :       10
  Geometry relaxation not requested: no relaxation will be performed.
  Handling of forces: Unphysical translation and rotation will be removed from forces.
  No accuracy limit for integral partition fn. given. Defaulting to 0.1000E-14.
  No threshold value for u(r) in integrations given. Defaulting to 0.1000E-05.
  No accuracy for occupation numbers given. Defaulting to 0.1000E-07.
  No threshold value for occupation numbers given. Defaulting to 0.0000E+00.
  No accuracy for fermi level given. Defaulting to 0.1000E-19.
  Maximum # of iterations to find E_F not set. Defaulting to  200.
  Will not use alltoall communication since running on < 1024 CPUs.
  Partitioning for Hartree potential was not defined. Using partition_type for integrals.
  | Reporting present value of keyword multip_moments_threshold  :       0.10000000E-09
  | This value may affect high angular momentum components of the Hartree potential in periodic systems.
  No q(lm)/r^(l+1) cutoff set for long-range Hartree potential.
  | Using default value of  0.100000E-09 .
  | Verify using the multipole_threshold keyword.
  Defaulting to new monopole extrapolation.
  Density update method: Loop over occupied states selected for charge density update.
------------------------------------------------------------


------------------------------------------------------------
          Reading geometry description geometry.in.
------------------------------------------------------------
  Input structure read successfully.
  The structure contains        9 atoms,  and a total of         30.000 electrons.

  Input geometry:
  | No unit cell requested.
  | Atomic structure:
  |       Atom                x [A]            y [A]            z [A]
  |    1: Species O             -4.053030         0.065001        -1.525160
  |    2: Species H             -4.566710         0.974813        -1.912820
  |    3: Species H             -3.067820         0.330172        -1.477310
  |    4: Species O             -4.581760        -0.256435         0.939478
  |    5: Species H             -4.349860         0.471090         1.504340
  |    6: Species H             -5.393870        -0.726611         1.228070
  |    7: Species O             -1.975360         2.858040         0.453140
  |    8: Species H             -1.223550         3.375850         0.786238
  |    9: Species H             -2.537520         2.567960         1.156120
  |

  | The smallest distance between any two atoms is         0.94570141 AA.
  |
  | The first atom of this pair is atom number                      7 .
  | The second atom of this pair is atom number                     9 .

  Structure-dependent array size parameters: 
  | Maximum number of distinct radial functions  :       18
  | Maximum number of basis functions            :      207
  | Number of Kohn-Sham states (occupied + empty):       51
------------------------------------------------------------

------------------------------------------------------------
          Preparing all fixed parts of the calculation.
------------------------------------------------------------
  Determining machine precision:
    2.225073858507201E-308
  Setting up grids for atomic and cluster calculations.

  Creating wave function, potential, and density for free atoms.

  Species: H

  List of occupied orbitals and eigenvalues:
    n    l              occ      energy [Ha]    energy [eV]
    1    0           1.0000        -0.241408        -6.5691


  Species: O

  List of occupied orbitals and eigenvalues:
    n    l              occ      energy [Ha]    energy [eV]
    1    0           2.0000       -18.944147      -515.4965
    2    0           2.0000        -0.883529       -24.0421
    2    1           4.0000        -0.330176        -8.9845

  Creating fixed part of basis set: Ionic, confined, hydrogenic.
 
  H                    hydrogenic:
 
  List of hydrogenic basis orbitals: 
    n    l      effective z      eigenvalue [eV]  inner max. [A]     outer max. [A]     outer radius [A]   
    2    0         2.100000       -14.9965           0.193241           1.317192           5.372934
    2    1         3.500000       -41.6672           0.602363           0.602363           4.056010
    1    0         0.850000        -9.8292           0.624864           0.624864           5.372934
    2    1         3.700000       -46.5653           0.573616           0.573616           3.909951
    2    0         1.200000        -4.5995           0.334977           2.228160           5.505921
    3    2         7.000000       -74.0753           0.680692           0.680692           3.769152
 
 
  O                    hydrogenic:
 
  List of hydrogenic basis orbitals: 
    n    l      effective z      eigenvalue [eV]  inner max. [A]     outer max. [A]     outer radius [A]   
    2    1         1.800000       -11.0118           1.178546           1.178546           5.432516
    3    2         7.600000       -87.3182           0.624117           0.624117           3.541422
    3    0         6.400000       -61.9209           0.061166           1.081887           4.306510
    4    3        11.600000      -114.4238           0.731621           0.731621           3.584982
    3    1         6.200000       -58.1113           0.255677           1.030255           4.306510
    3    2         5.600000       -47.4081           0.847222           0.847222           4.413102
    5    4        17.600000      -168.5799           0.749730           0.749730           3.372413
    1    0         0.750000        -7.6499           0.705275           0.705275           5.366508
 

  Adding cutoff potential to free-atom effective potential.
  Creating atomic-like basis functions for current effective potential.

  Species H                   :

  List of atomic basis orbitals and eigenvalues:
    n    l      energy [Ha]    energy [eV]    outer radius [A]
    1    0        -0.241374        -6.5681       5.372934


  Species O                   :

  List of atomic basis orbitals and eigenvalues:
    n    l      energy [Ha]    energy [eV]    outer radius [A]
    1    0       -18.944147      -515.4965       1.415745
    2    0        -0.883529       -24.0421       5.048305
    2    1        -0.330173        -8.9845       5.301302

  Assembling full basis from fixed parts.
  | Species H :   atomic orbital   1 s accepted.
  | Species H :    hydro orbital   2 s accepted.
  | Species H :    hydro orbital   1 s accepted.
  | Species H :    hydro orbital   2 s accepted.
  | Species H :    hydro orbital   2 p accepted.
  | Species H :    hydro orbital   2 p accepted.
  | Species H :    hydro orbital   3 d accepted.
  | Species O :   atomic orbital   1 s accepted.
  | Species O :    hydro orbital   3 s accepted.
  | Species O :   atomic orbital   2 s accepted.
  | Species O :    hydro orbital   1 s accepted.
  | Species O :    hydro orbital   3 p accepted.
  | Species O :   atomic orbital   2 p accepted.
  | Species O :    hydro orbital   2 p accepted.
  | Species O :    hydro orbital   3 d accepted.
  | Species O :    hydro orbital   3 d accepted.
  | Species O :    hydro orbital   4 f accepted.
  | Species O :    hydro orbital   5 g accepted.
 
  Basis size parameters after reduction:
  | Total number of radial functions:       18
  | Total number of basis functions :      207
 
  Testing on-site integration grid accuracy.
  |  Species  Function  <phi|h_atom|phi> (log., in eV)  <phi|h_atom|phi> (rad., in eV)
           1        1                 -6.5683835025                 -6.5684759159
           1        2                 13.3711789951                 13.3708738703
           1        3                 23.6590910787                 23.6532055418
           1        4                 16.2963827186                 16.1870710655 ***
           1        5                 28.7627214838                 28.7627215090
           1        6                 59.5965249172                 59.5965950857
           1        7                 60.2220506392                 60.2220503827
           2        8               -515.4964576505               -515.4964530710
           2        9                 15.3030791347                 15.3030722972
           2       10                -21.7296094581                -21.7296135470
           2       11                 14.2969371730                 14.2969701621
           2       12                 21.0679693190                 21.0679697493
           2       13                 -2.3833606469                 -2.3833613176
           2       14                 13.7067136422                 13.7066766629
           2       15                 45.8013116808                 45.8013116965
           2       16                 52.2309815402                 52.2309831494
           2       17                 85.4120732416                 85.4120732763
           2       18                142.1019167745                142.1019167817
 * Note: Onsite integrals marked "***" above are less accurate than
 * onsite_accuracy_threshold =    0.03000 eV. Usually, this is harmless.
 * When in doubt, tighten the "radial" and/or "radial_multiplier" flags to check.

  Preparing densities etc. for the partition functions (integrals / Hartree potential).

  Preparations completed.
  max(cpu_time)          :      0.171 s.
  Wall clock time (cpu1) :      0.355 s.
------------------------------------------------------------

------------------------------------------------------------
          Begin self-consistency loop: Initialization.

          Date     :  20150727, Time     :  121240.281
------------------------------------------------------------

  Initializing index lists of integration centers etc. from given atomic structure:
  | Number of centers in hartree potential         :         9
  | Number of centers in hartree multipole         :         9
  | Number of centers in electron density summation:         9
  | Number of centers in basis integrals           :         9
  | Number of centers in integrals                 :         9
  Partitioning the integration grid into batches with parallel hashing+maxmin method.
  | Number of batches:     1288
  | Maximal batch size:     196
  | Minimal batch size:      54
  | Average batch size:      91.635
  | Standard deviation of batch sizes:      28.274

  Integration load balanced across     8 MPI tasks.
  Work distribution over tasks is as follows:
  Task     0 has      14828 integration points.
  Task     1 has      14770 integration points.
  Task     2 has      14718 integration points.
  Task     3 has      14713 integration points.
  Task     4 has      14793 integration points.
  Task     5 has      14717 integration points.
  Task     6 has      14743 integration points.
  Task     7 has      14744 integration points.
  Initializing partition tables, free-atom densities, potentials, etc. across the integration grid (initialize_grid_storage).
  | Net number of integration points:   118026
  | of which are non-zero points    :   117532
  Obtaining max. number of non-zero basis functions in each batch (get_n_compute_maxes).
  | Maximal number of non-zero basis functions:      206 in task     0
  | Maximal number of non-zero basis functions:      205 in task     1
  | Maximal number of non-zero basis functions:      206 in task     2
  | Maximal number of non-zero basis functions:      206 in task     3
  | Maximal number of non-zero basis functions:      206 in task     4
  | Maximal number of non-zero basis functions:      206 in task     5
  | Maximal number of non-zero basis functions:      206 in task     6
  | Maximal number of non-zero basis functions:      205 in task     7
  Integrating Hamiltonian matrix: batch-based integration.
  Time summed over all CPUs for integration: real work        2.389 s, elapsed        2.480 s
  Integrating overlap matrix.
  Time summed over all CPUs for integration: real work        1.238 s, elapsed        1.282 s

  Updating Kohn-Sham eigenvalues, eigenvectors, occupation numbers, and Fermi level.
  Solving generalized eigenproblem
  Updating Kohn-Sham eigenvalues and eigenfunctions.
  Transforming overlap matrix and checking for singularities.
  Overlap matrix is nonsingular:
  | Lowest eigenvalue:  0.403960E-03
  Solving real generalised eigenvalue problem by standard LAPACK (fast)
  Determining occupation numbers for Kohn-Sham eigenstates.
  | Chemical potential (Fermi level) in eV                 : -.69217998E+01
  | Error in electron count due to remaining E_F inaccuracy: 0.00000000E+00
  | Maximum occupation number of highest empty state:  0.00E+00

  Writing Kohn-Sham eigenvalues.

  State    Occupation    Eigenvalue [Ha]    Eigenvalue [eV]
      1       2.00000         -19.054452         -518.49803
      2       2.00000         -19.051947         -518.42986
      3       2.00000         -19.019439         -517.54528
      4       2.00000          -1.103361          -30.02397
      5       2.00000          -1.098542          -29.89286
      6       2.00000          -1.043114          -28.38459
      7       2.00000          -0.646938          -17.60408
      8       2.00000          -0.644196          -17.52945
      9       2.00000          -0.569966          -15.50956
     10       2.00000          -0.505299          -13.74988
     11       2.00000          -0.501121          -13.63619
     12       2.00000          -0.474591          -12.91427
     13       2.00000          -0.438919          -11.94358
     14       2.00000          -0.437893          -11.91568
     15       2.00000          -0.402354          -10.94860
     16       0.00000          -0.094579           -2.57363
     17       0.00000          -0.067849           -1.84626
     18       0.00000          -0.051192           -1.39300
     19       0.00000          -0.019907           -0.54169
     20       0.00000          -0.012075           -0.32858
     21       0.00000           0.046305            1.26002
     22       0.00000           0.074640            2.03106
     23       0.00000           0.079848            2.17279
     24       0.00000           0.097115            2.64263
     25       0.00000           0.098994            2.69376
     26       0.00000           0.120826            3.28786
     27       0.00000           0.122059            3.32140
     28       0.00000           0.125309            3.40983
     29       0.00000           0.134352            3.65591
     30       0.00000           0.151077            4.11101
     31       0.00000           0.164011            4.46296
     32       0.00000           0.188161            5.12011
     33       0.00000           0.229397            6.24221
     34       0.00000           0.249951            6.80151
     35       0.00000           0.263768            7.17748
     36       0.00000           0.280986            7.64601
     37       0.00000           0.319328            8.68936
     38       0.00000           0.345840            9.41080
     39       0.00000           0.376216           10.23737
     40       0.00000           0.383829           10.44451
     41       0.00000           0.407904           11.09963
     42       0.00000           0.420502           11.44245
     43       0.00000           0.424668           11.55581
     44       0.00000           0.434593           11.82588
     45       0.00000           0.451024           12.27300
     46       0.00000           0.481094           13.09124
     47       0.00000           0.483395           13.15384
     48       0.00000           0.531193           14.45451
     49       0.00000           0.551184           14.99848
     50       0.00000           0.586070           15.94779
     51       0.00000           0.618621           16.83354

  Highest occupied state (VBM) at    -10.94860474 eV
  | Occupation number:      2.00000000

  Lowest unoccupied state (CBM) at    -2.57363070 eV
  | Occupation number:      0.00000000

  Overall HOMO-LUMO gap:      8.37497404 eV.
  Calculating total energy contributions from superposition of free atom densities.

  Total energy components:
  | Sum of eigenvalues            :        -129.98426486 Ha       -3537.05180997 eV
  | XC energy correction          :         -27.28968257 Ha        -742.59004519 eV
  | XC potential correction       :          34.85949384 Ha         948.57509024 eV
  | Free-atom electrostatic energy:        -107.43216426 Ha       -2923.37792923 eV
  | Hartree energy correction     :           0.00000000 Ha           0.00000000 eV
  | van der Waals energy corr.    :           0.00000000 Ha           0.00000000 eV
  | Entropy correction            :           0.00000000 Ha           0.00000000 eV
  | ---------------------------
  | Total energy                  :        -229.84661784 Ha       -6254.44469415 eV
  | Total energy, T -> 0          :        -229.84661784 Ha       -6254.44469415 eV  <-- do not rely on this value for anything but (periodic) metals
  | Electronic free energy        :        -229.84661784 Ha       -6254.44469415 eV

  Derived energy quantities:
  | Kinetic energy                :         227.38325125 Ha        6187.41307866 eV
  | Electrostatic energy          :        -429.94018653 Ha      -11699.26772762 eV
  | Energy correction for multipole
  | error in Hartree potential    :           0.00000000 Ha           0.00000000 eV
  | Sum of eigenvalues per atom                           :        -393.00575666 eV
  | Total energy (T->0) per atom                          :        -694.93829935 eV  <-- do not rely on this value for anything but (periodic) metals
  | Electronic free energy per atom                       :        -694.93829935 eV
  Initialize hartree_potential_storage
  Max. number of atoms included in rho_multipole:            9

  End scf initialization - timings             :  max(cpu_time)    wall_clock(cpu1)
  | Time for scf. initialization               :        0.745 s           0.743 s
  | Boundary condition initialization          :        0.000 s           0.000 s
  | Integration                                :        0.472 s           0.472 s
  | Solution of K.-S. eqns.                    :        0.065 s           0.065 s
  | Grid partitioning                          :        0.110 s           0.094 s
  | Preloading free-atom quantities on grid    :        0.013 s           0.013 s
  | Free-atom superposition energy             :        0.029 s           0.029 s
  | Total energy evaluation                    :        0.000 s           0.001 s
------------------------------------------------------------

------------------------------------------------------------
          Begin self-consistency iteration #    1

  Date     :  20150727, Time     :  121241.025
------------------------------------------------------------
  Evaluating new KS density.
  Integration grid: deviation in total charge (<rho> - N_e) =   1.776357E-14
  Pulay mixing of updated and previous charge densities.

  Evaluating partitioned Hartree potential by multipole expansion.
  | Analytical far-field extrapolation by fixed multipoles:
  | Hartree multipole sum: apparent total charge =  -0.102920E-05
  Summing up the Hartree potential.
  Time summed over all CPUs for potential: real work        0.943 s, elapsed        0.949 s
  | RMS charge density error from multipole expansion :   0.125321E-02

  Integrating Hamiltonian matrix: batch-based integration.
  Time summed over all CPUs for integration: real work        2.380 s, elapsed        2.446 s

  Updating Kohn-Sham eigenvalues, eigenvectors, occupation numbers, and Fermi level.
  Solving generalized eigenproblem
  Updating Kohn-Sham eigenvalues and eigenfunctions.
  Solving real generalised eigenvalue problem by standard LAPACK (fast)
  Determining occupation numbers for Kohn-Sham eigenstates.
  | Chemical potential (Fermi level) in eV                 : -.64407229E+01
  | Error in electron count due to remaining E_F inaccuracy: 0.00000000E+00
  | Maximum occupation number of highest empty state:  0.00E+00

  Writing Kohn-Sham eigenvalues.

  State    Occupation    Eigenvalue [Ha]    Eigenvalue [eV]
      1       2.00000         -18.975358         -516.34578
      2       2.00000         -18.968024         -516.14620
      3       2.00000         -18.941129         -515.41434
      4       2.00000          -1.065093          -28.98266
      5       2.00000          -1.056178          -28.74005
      6       2.00000          -1.001466          -27.25126
      7       2.00000          -0.614062          -16.70949
      8       2.00000          -0.607984          -16.54409
      9       2.00000          -0.535438          -14.57000
     10       2.00000          -0.462463          -12.58427
     11       2.00000          -0.462072          -12.57362
     12       2.00000          -0.432870          -11.77899
     13       2.00000          -0.397712          -10.82228
     14       2.00000          -0.394655          -10.73910
     15       2.00000          -0.357477           -9.72743
     16       0.00000          -0.085341           -2.32225
     17       0.00000          -0.058754           -1.59879
     18       0.00000          -0.043603           -1.18650
     19       0.00000          -0.009023           -0.24553
     20       0.00000          -0.004499           -0.12243
     21       0.00000           0.053260            1.44927
     22       0.00000           0.083044            2.25973
     23       0.00000           0.090894            2.47336
     24       0.00000           0.104854            2.85321
     25       0.00000           0.106566            2.89980
     26       0.00000           0.128791            3.50459
     27       0.00000           0.129677            3.52870
     28       0.00000           0.133598            3.63540
     29       0.00000           0.143926            3.91643
     30       0.00000           0.161355            4.39068
     31       0.00000           0.175052            4.76341
     32       0.00000           0.196031            5.33427
     33       0.00000           0.239711            6.52288
     34       0.00000           0.260173            7.07968
     35       0.00000           0.272627            7.41855
     36       0.00000           0.290602            7.90768
     37       0.00000           0.329949            8.97836
     38       0.00000           0.353609            9.62218
     39       0.00000           0.384668           10.46734
     40       0.00000           0.393470           10.70686
     41       0.00000           0.419211           11.40731
     42       0.00000           0.428888           11.67063
     43       0.00000           0.434066           11.81154
     44       0.00000           0.446538           12.15092
     45       0.00000           0.461433           12.55623
     46       0.00000           0.492659           13.40592
     47       0.00000           0.493982           13.44194
     48       0.00000           0.543532           14.79025
     49       0.00000           0.564632           15.36441
     50       0.00000           0.598686           16.29107
     51       0.00000           0.633449           17.23701

  Highest occupied state (VBM) at     -9.72743232 eV
  | Occupation number:      2.00000000

  Lowest unoccupied state (CBM) at    -2.32224503 eV
  | Occupation number:      0.00000000

  Overall HOMO-LUMO gap:      7.40518730 eV.

  Total energy components:
  | Sum of eigenvalues            :        -128.54395995 Ha       -3497.85911925 eV
  | XC energy correction          :         -27.44228238 Ha        -746.74249732 eV
  | XC potential correction       :          35.05970377 Ha         954.02307971 eV
  | Free-atom electrostatic energy:        -107.43216426 Ha       -2923.37792923 eV
  | Hartree energy correction     :          -1.39020696 Ha         -37.82945600 eV
  | van der Waals energy corr.    :           0.00000000 Ha           0.00000000 eV
  | Entropy correction            :           0.00000000 Ha           0.00000000 eV
  | ---------------------------
  | Total energy                  :        -229.74890977 Ha       -6251.78592209 eV
  | Total energy, T -> 0          :        -229.74890977 Ha       -6251.78592209 eV  <-- do not rely on this value for anything but (periodic) metals
  | Electronic free energy        :        -229.74890977 Ha       -6251.78592209 eV

  Derived energy quantities:
  | Kinetic energy                :         228.29045122 Ha        6212.09924585 eV
  | Electrostatic energy          :        -430.59707861 Ha      -11717.14267062 eV
  | Energy correction for multipole
  | error in Hartree potential    :          -0.00006358 Ha          -0.00173015 eV
  | Sum of eigenvalues per atom                           :        -388.65101325 eV
  | Total energy (T->0) per atom                          :        -694.64288023 eV  <-- do not rely on this value for anything but (periodic) metals
  | Electronic free energy per atom                       :        -694.64288023 eV

  Self-consistency convergence accuracy:
  | Change of charge density      : 0.5351E+00
  | Change of sum of eigenvalues  : 0.3919E+02 eV
  | Change of total energy        : 0.2659E+01 eV

  End self-consistency iteration #     1       :  max(cpu_time)    wall_clock(cpu1)
  | Time for this iteration                    :        0.674 s           0.674 s
  | Charge density update                      :        0.223 s           0.223 s
  | Density mixing                             :        0.002 s           0.002 s
  | Hartree multipole update                   :        0.004 s           0.003 s
  | Hartree multipole summation                :        0.119 s           0.120 s
  | Integration                                :        0.307 s           0.306 s
  | Solution of K.-S. eqns.                    :        0.016 s           0.017 s
  | Total energy evaluation                    :        0.000 s           0.001 s
------------------------------------------------------------

------------------------------------------------------------
          Begin self-consistency iteration #    2

  Date     :  20150727, Time     :  121241.699
------------------------------------------------------------
  Evaluating new KS density.
  Integration grid: deviation in total charge (<rho> - N_e) =  -1.776357E-14
  Pulay mixing of updated and previous charge densities.

  Evaluating partitioned Hartree potential by multipole expansion.
  | Analytical far-field extrapolation by fixed multipoles:
  | Hartree multipole sum: apparent total charge =  -0.272358E-05
  Summing up the Hartree potential.
  Time summed over all CPUs for potential: real work        0.943 s, elapsed        0.949 s
  | RMS charge density error from multipole expansion :   0.492753E-02

  Integrating Hamiltonian matrix: batch-based integration.
  Time summed over all CPUs for integration: real work        2.381 s, elapsed        2.451 s

  Updating Kohn-Sham eigenvalues, eigenvectors, occupation numbers, and Fermi level.
  Solving generalized eigenproblem
  Updating Kohn-Sham eigenvalues and eigenfunctions.
  Solving real generalised eigenvalue problem by standard LAPACK (fast)
  Determining occupation numbers for Kohn-Sham eigenstates.
  | Chemical potential (Fermi level) in eV                 : -.52573060E+01
  | Error in electron count due to remaining E_F inaccuracy: 0.00000000E+00
  | Maximum occupation number of highest empty state:  0.00E+00

  Highest occupied state (VBM) at     -6.95277654 eV
  | Occupation number:      2.00000000

  Lowest unoccupied state (CBM) at    -1.76484210 eV
  | Occupation number:      0.00000000

  Overall HOMO-LUMO gap:      5.18793444 eV.

  Total energy components:
  | Sum of eigenvalues            :        -125.27647786 Ha       -3408.94640785 eV
  | XC energy correction          :         -27.80457000 Ha        -756.60084512 eV
  | XC potential correction       :          35.53477292 Ha         966.95036911 eV
  | Free-atom electrostatic energy:        -107.43216426 Ha       -2923.37792923 eV
  | Hartree energy correction     :          -4.66150961 Ha        -126.84613033 eV
  | van der Waals energy corr.    :           0.00000000 Ha           0.00000000 eV
  | Entropy correction            :           0.00000000 Ha           0.00000000 eV
  | ---------------------------
  | Total energy                  :        -229.63994880 Ha       -6248.82094343 eV
  | Total energy, T -> 0          :        -229.63994880 Ha       -6248.82094343 eV  <-- do not rely on this value for anything but (periodic) metals
  | Electronic free energy        :        -229.63994880 Ha       -6248.82094343 eV

  Derived energy quantities:
  | Kinetic energy                :         230.03550577 Ha        6259.58459622 eV
  | Electrostatic energy          :        -431.87088458 Ha      -11751.80469453 eV
  | Energy correction for multipole
  | error in Hartree potential    :          -0.00063622 Ha          -0.01731232 eV
  | Sum of eigenvalues per atom                           :        -378.77182309 eV
  | Total energy (T->0) per atom                          :        -694.31343816 eV  <-- do not rely on this value for anything but (periodic) metals
  | Electronic free energy per atom                       :        -694.31343816 eV

  Self-consistency convergence accuracy:
  | Change of charge density      : 0.4030E+00
  | Change of sum of eigenvalues  : 0.8891E+02 eV
  | Change of total energy        : 0.2965E+01 eV

  End self-consistency iteration #     2       :  max(cpu_time)    wall_clock(cpu1)
  | Time for this iteration                    :        0.673 s           0.672 s
  | Charge density update                      :        0.222 s           0.221 s
  | Density mixing                             :        0.003 s           0.003 s
  | Hartree multipole update                   :        0.004 s           0.004 s
  | Hartree multipole summation                :        0.119 s           0.119 s
  | Integration                                :        0.307 s           0.307 s
  | Solution of K.-S. eqns.                    :        0.017 s           0.016 s
  | Total energy evaluation                    :        0.000 s           0.000 s
------------------------------------------------------------

------------------------------------------------------------
          Begin self-consistency iteration #    3

  Date     :  20150727, Time     :  121242.372
------------------------------------------------------------
  Evaluating new KS density.
  Integration grid: deviation in total charge (<rho> - N_e) =   2.842171E-14
  Pulay mixing of updated and previous charge densities.

  Evaluating partitioned Hartree potential by multipole expansion.
  | Analytical far-field extrapolation by fixed multipoles:
  | Hartree multipole sum: apparent total charge =  -0.183390E-05
  Summing up the Hartree potential.
  Time summed over all CPUs for potential: real work        0.943 s, elapsed        0.949 s
  | RMS charge density error from multipole expansion :   0.100733E-01

  Integrating Hamiltonian matrix: batch-based integration.
  Time summed over all CPUs for integration: real work        2.382 s, elapsed        2.456 s

  Updating Kohn-Sham eigenvalues, eigenvectors, occupation numbers, and Fermi level.
  Solving generalized eigenproblem
  Updating Kohn-Sham eigenvalues and eigenfunctions.
  Solving real generalised eigenvalue problem by standard LAPACK (fast)
  Determining occupation numbers for Kohn-Sham eigenstates.
  | Chemical potential (Fermi level) in eV                 : -.50711245E+01
  | Error in electron count due to remaining E_F inaccuracy: 0.00000000E+00
  | Maximum occupation number of highest empty state:  0.00E+00

  Highest occupied state (VBM) at     -7.05747234 eV
  | Occupation number:      2.00000000

  Lowest unoccupied state (CBM) at    -1.64734915 eV
  | Occupation number:      0.00000000

  Overall HOMO-LUMO gap:      5.41012319 eV.

  Total energy components:
  | Sum of eigenvalues            :        -125.55643605 Ha       -3416.56445789 eV
  | XC energy correction          :         -27.77364594 Ha        -755.75935870 eV
  | XC potential correction       :          35.49190649 Ha         965.78391420 eV
  | Free-atom electrostatic energy:        -107.43216426 Ha       -2923.37792923 eV
  | Hartree energy correction     :          -4.36794611 Ha        -118.85786116 eV
  | van der Waals energy corr.    :           0.00000000 Ha           0.00000000 eV
  | Entropy correction            :           0.00000000 Ha           0.00000000 eV
  | ---------------------------
  | Total energy                  :        -229.63828587 Ha       -6248.77569277 eV
  | Total energy, T -> 0          :        -229.63828587 Ha       -6248.77569277 eV  <-- do not rely on this value for anything but (periodic) metals
  | Electronic free energy        :        -229.63828587 Ha       -6248.77569277 eV

  Derived energy quantities:
  | Kinetic energy                :         228.71082425 Ha        6223.53817793 eV
  | Electrostatic energy          :        -430.57546418 Ha      -11716.55451200 eV
  | Energy correction for multipole
  | error in Hartree potential    :          -0.00294624 Ha          -0.08017129 eV
  | Sum of eigenvalues per atom                           :        -379.61827310 eV
  | Total energy (T->0) per atom                          :        -694.30841031 eV  <-- do not rely on this value for anything but (periodic) metals
  | Electronic free energy per atom                       :        -694.30841031 eV

  Self-consistency convergence accuracy:
  | Change of charge density      : 0.2074E+00
  | Change of sum of eigenvalues  : -.7618E+01 eV
  | Change of total energy        : 0.4525E-01 eV

  End self-consistency iteration #     3       :  max(cpu_time)    wall_clock(cpu1)
  | Time for this iteration                    :        0.673 s           0.673 s
  | Charge density update                      :        0.221 s           0.220 s
  | Density mixing                             :        0.004 s           0.004 s
  | Hartree multipole update                   :        0.004 s           0.004 s
  | Hartree multipole summation                :        0.119 s           0.119 s
  | Integration                                :        0.308 s           0.308 s
  | Solution of K.-S. eqns.                    :        0.016 s           0.017 s
  | Total energy evaluation                    :        0.000 s           0.001 s
------------------------------------------------------------

------------------------------------------------------------
          Begin self-consistency iteration #    4

  Date     :  20150727, Time     :  121243.046
------------------------------------------------------------
  Evaluating new KS density.
  Integration grid: deviation in total charge (<rho> - N_e) =   1.065814E-14
  Pulay mixing of updated and previous charge densities.

  Evaluating partitioned Hartree potential by multipole expansion.
  | Analytical far-field extrapolation by fixed multipoles:
  | Hartree multipole sum: apparent total charge =  -0.212063E-05
  Summing up the Hartree potential.
  Time summed over all CPUs for potential: real work        0.943 s, elapsed        0.948 s
  | RMS charge density error from multipole expansion :   0.130743E-01

  Integrating Hamiltonian matrix: batch-based integration.
  Time summed over all CPUs for integration: real work        2.375 s, elapsed        2.454 s

  Updating Kohn-Sham eigenvalues, eigenvectors, occupation numbers, and Fermi level.
  Solving generalized eigenproblem
  Updating Kohn-Sham eigenvalues and eigenfunctions.
  Solving real generalised eigenvalue problem by standard LAPACK (fast)
  Determining occupation numbers for Kohn-Sham eigenstates.
  | Chemical potential (Fermi level) in eV                 : -.45526728E+01
  | Error in electron count due to remaining E_F inaccuracy: 0.00000000E+00
  | Maximum occupation number of highest empty state:  0.00E+00

  Highest occupied state (VBM) at     -6.01010249 eV
  | Occupation number:      2.00000000

  Lowest unoccupied state (CBM) at    -1.44084971 eV
  | Occupation number:      0.00000000

  Overall HOMO-LUMO gap:      4.56925278 eV.

  Total energy components:
  | Sum of eigenvalues            :        -124.43689015 Ha       -3386.10006385 eV
  | XC energy correction          :         -27.91045521 Ha        -759.48212825 eV
  | XC potential correction       :          35.67117733 Ha         970.66212177 eV
  | Free-atom electrostatic energy:        -107.43216426 Ha       -2923.37792923 eV
  | Hartree energy correction     :          -5.52015769 Ha        -150.21113342 eV
  | van der Waals energy corr.    :           0.00000000 Ha           0.00000000 eV
  | Entropy correction            :           0.00000000 Ha           0.00000000 eV
  | ---------------------------
  | Total energy                  :        -229.62848998 Ha       -6248.50913298 eV
  | Total energy, T -> 0          :        -229.62848998 Ha       -6248.50913298 eV  <-- do not rely on this value for anything but (periodic) metals
  | Electronic free energy        :        -229.62848998 Ha       -6248.50913298 eV

  Derived energy quantities:
  | Kinetic energy                :         228.91325733 Ha        6229.04666231 eV
  | Electrostatic energy          :        -430.63129210 Ha      -11718.07366704 eV
  | Energy correction for multipole
  | error in Hartree potential    :          -0.00390835 Ha          -0.10635174 eV
  | Sum of eigenvalues per atom                           :        -376.23334043 eV
  | Total energy (T->0) per atom                          :        -694.27879255 eV  <-- do not rely on this value for anything but (periodic) metals
  | Electronic free energy per atom                       :        -694.27879255 eV

  Self-consistency convergence accuracy:
  | Change of charge density      : 0.1236E+00
  | Change of sum of eigenvalues  : 0.3046E+02 eV
  | Change of total energy        : 0.2666E+00 eV

  End self-consistency iteration #     4       :  max(cpu_time)    wall_clock(cpu1)
  | Time for this iteration                    :        0.674 s           0.673 s
  | Charge density update                      :        0.221 s           0.220 s
  | Density mixing                             :        0.004 s           0.005 s
  | Hartree multipole update                   :        0.003 s           0.003 s
  | Hartree multipole summation                :        0.119 s           0.120 s
  | Integration                                :        0.308 s           0.307 s
  | Solution of K.-S. eqns.                    :        0.016 s           0.017 s
  | Total energy evaluation                    :        0.001 s           0.001 s
------------------------------------------------------------

------------------------------------------------------------
          Begin self-consistency iteration #    5

  Date     :  20150727, Time     :  121243.719
------------------------------------------------------------
  Evaluating new KS density.
  Integration grid: deviation in total charge (<rho> - N_e) =   7.105427E-15
  Pulay mixing of updated and previous charge densities.

  Evaluating partitioned Hartree potential by multipole expansion.
  | Analytical far-field extrapolation by fixed multipoles:
  | Hartree multipole sum: apparent total charge =  -0.201071E-05
  Summing up the Hartree potential.
  Time summed over all CPUs for potential: real work        0.943 s, elapsed        0.948 s
  | RMS charge density error from multipole expansion :   0.135981E-01

  Integrating Hamiltonian matrix: batch-based integration.
  Time summed over all CPUs for integration: real work        2.375 s, elapsed        2.466 s

  Updating Kohn-Sham eigenvalues, eigenvectors, occupation numbers, and Fermi level.
  Solving generalized eigenproblem
  Updating Kohn-Sham eigenvalues and eigenfunctions.
  Solving real generalised eigenvalue problem by standard LAPACK (fast)
  Determining occupation numbers for Kohn-Sham eigenstates.
  | Chemical potential (Fermi level) in eV                 : -.45156656E+01
  | Error in electron count due to remaining E_F inaccuracy: 0.00000000E+00
  | Maximum occupation number of highest empty state:  0.00E+00

  Highest occupied state (VBM) at     -5.81391180 eV
  | Occupation number:      2.00000000

  Lowest unoccupied state (CBM) at    -1.43819345 eV
  | Occupation number:      0.00000000

  Overall HOMO-LUMO gap:      4.37571834 eV.

  Total energy components:
  | Sum of eigenvalues            :        -124.39196925 Ha       -3384.87770396 eV
  | XC energy correction          :         -27.91693915 Ha        -759.65856520 eV
  | XC potential correction       :          35.67944818 Ha         970.88718309 eV
  | Free-atom electrostatic energy:        -107.43216426 Ha       -2923.37792923 eV
  | Hartree energy correction     :          -5.56654474 Ha        -151.47338935 eV
  | van der Waals energy corr.    :           0.00000000 Ha           0.00000000 eV
  | Entropy correction            :           0.00000000 Ha           0.00000000 eV
  | ---------------------------
  | Total energy                  :        -229.62816922 Ha       -6248.50040466 eV
  | Total energy, T -> 0          :        -229.62816922 Ha       -6248.50040466 eV  <-- do not rely on this value for anything but (periodic) metals
  | Electronic free energy        :        -229.62816922 Ha       -6248.50040466 eV

  Derived energy quantities:
  | Kinetic energy                :         228.90080629 Ha        6228.70785235 eV
  | Electrostatic energy          :        -430.61203636 Ha      -11717.54969180 eV
  | Energy correction for multipole
  | error in Hartree potential    :          -0.00397410 Ha          -0.10814082 eV
  | Sum of eigenvalues per atom                           :        -376.09752266 eV
  | Total energy (T->0) per atom                          :        -694.27782274 eV  <-- do not rely on this value for anything but (periodic) metals
  | Electronic free energy per atom                       :        -694.27782274 eV

  Self-consistency convergence accuracy:
  | Change of charge density      : 0.3052E-01
  | Change of sum of eigenvalues  : 0.1222E+01 eV
  | Change of total energy        : 0.8728E-02 eV

  End self-consistency iteration #     5       :  max(cpu_time)    wall_clock(cpu1)
  | Time for this iteration                    :        0.675 s           0.675 s
  | Charge density update                      :        0.220 s           0.219 s
  | Density mixing                             :        0.006 s           0.006 s
  | Hartree multipole update                   :        0.004 s           0.004 s
  | Hartree multipole summation                :        0.119 s           0.119 s
  | Integration                                :        0.309 s           0.309 s
  | Solution of K.-S. eqns.                    :        0.016 s           0.016 s
  | Total energy evaluation                    :        0.000 s           0.000 s
------------------------------------------------------------

------------------------------------------------------------
          Begin self-consistency iteration #    6

  Date     :  20150727, Time     :  121244.395
------------------------------------------------------------
  Evaluating new KS density.
  Integration grid: deviation in total charge (<rho> - N_e) =  -7.105427E-15
  Pulay mixing of updated and previous charge densities.

  Evaluating partitioned Hartree potential by multipole expansion.
  | Analytical far-field extrapolation by fixed multipoles:
  | Hartree multipole sum: apparent total charge =  -0.200765E-05
  Summing up the Hartree potential.
  Time summed over all CPUs for potential: real work        0.943 s, elapsed        0.948 s
  | RMS charge density error from multipole expansion :   0.138709E-01

  Integrating Hamiltonian matrix: batch-based integration.
  Time summed over all CPUs for integration: real work        2.374 s, elapsed        2.447 s

  Updating Kohn-Sham eigenvalues, eigenvectors, occupation numbers, and Fermi level.
  Solving generalized eigenproblem
  Updating Kohn-Sham eigenvalues and eigenfunctions.
  Solving real generalised eigenvalue problem by standard LAPACK (fast)
  Determining occupation numbers for Kohn-Sham eigenstates.
  | Chemical potential (Fermi level) in eV                 : -.44779652E+01
  | Error in electron count due to remaining E_F inaccuracy: 0.00000000E+00
  | Maximum occupation number of highest empty state:  0.00E+00

  Highest occupied state (VBM) at     -5.75758806 eV
  | Occupation number:      2.00000000

  Lowest unoccupied state (CBM) at    -1.42195645 eV
  | Occupation number:      0.00000000

  Overall HOMO-LUMO gap:      4.33563161 eV.

  Total energy components:
  | Sum of eigenvalues            :        -124.31601833 Ha       -3382.81097422 eV
  | XC energy correction          :         -27.92675774 Ha        -759.92574279 eV
  | XC potential correction       :          35.69229756 Ha         971.23683258 eV
  | Free-atom electrostatic energy:        -107.43216426 Ha       -2923.37792923 eV
  | Hartree energy correction     :          -5.64561373 Ha        -153.62496586 eV
  | van der Waals energy corr.    :           0.00000000 Ha           0.00000000 eV
  | Entropy correction            :           0.00000000 Ha           0.00000000 eV
  | ---------------------------
  | Total energy                  :        -229.62825649 Ha       -6248.50277952 eV
  | Total energy, T -> 0          :        -229.62825649 Ha       -6248.50277952 eV  <-- do not rely on this value for anything but (periodic) metals
  | Electronic free energy        :        -229.62825649 Ha       -6248.50277952 eV

  Derived energy quantities:
  | Kinetic energy                :         228.91021879 Ha        6228.96397934 eV
  | Electrostatic energy          :        -430.61171754 Ha      -11717.54101607 eV
  | Energy correction for multipole
  | error in Hartree potential    :          -0.00404835 Ha          -0.11016131 eV
  | Sum of eigenvalues per atom                           :        -375.86788602 eV
  | Total energy (T->0) per atom                          :        -694.27808661 eV  <-- do not rely on this value for anything but (periodic) metals
  | Electronic free energy per atom                       :        -694.27808661 eV

  Self-consistency convergence accuracy:
  | Change of charge density      : 0.7218E-02
  | Change of sum of eigenvalues  : 0.2067E+01 eV
  | Change of total energy        : -.2375E-02 eV

  End self-consistency iteration #     6       :  max(cpu_time)    wall_clock(cpu1)
  | Time for this iteration                    :        0.674 s           0.674 s
  | Charge density update                      :        0.221 s           0.221 s
  | Density mixing                             :        0.006 s           0.006 s
  | Hartree multipole update                   :        0.004 s           0.004 s
  | Hartree multipole summation                :        0.119 s           0.119 s
  | Integration                                :        0.307 s           0.307 s
  | Solution of K.-S. eqns.                    :        0.016 s           0.016 s
  | Total energy evaluation                    :        0.000 s           0.001 s
------------------------------------------------------------

------------------------------------------------------------
          Begin self-consistency iteration #    7

  Date     :  20150727, Time     :  121245.070
------------------------------------------------------------
  Evaluating new KS density.
  Integration grid: deviation in total charge (<rho> - N_e) =   7.105427E-15
  Pulay mixing of updated and previous charge densities.

  Evaluating partitioned Hartree potential by multipole expansion.
  | Analytical far-field extrapolation by fixed multipoles:
  | Hartree multipole sum: apparent total charge =  -0.180331E-05
  Summing up the Hartree potential.
  Time summed over all CPUs for potential: real work        0.943 s, elapsed        0.948 s
  | RMS charge density error from multipole expansion :   0.138373E-01

  Integrating Hamiltonian matrix: batch-based integration.
  Time summed over all CPUs for integration: real work        2.373 s, elapsed        2.434 s

  Updating Kohn-Sham eigenvalues, eigenvectors, occupation numbers, and Fermi level.
  Solving generalized eigenproblem
  Updating Kohn-Sham eigenvalues and eigenfunctions.
  Solving real generalised eigenvalue problem by standard LAPACK (fast)
  Determining occupation numbers for Kohn-Sham eigenstates.
  | Chemical potential (Fermi level) in eV                 : -.45383578E+01
  | Error in electron count due to remaining E_F inaccuracy: 0.00000000E+00
  | Maximum occupation number of highest empty state:  0.00E+00

  Highest occupied state (VBM) at     -5.86688986 eV
  | Occupation number:      2.00000000

  Lowest unoccupied state (CBM) at    -1.45109497 eV
  | Occupation number:      0.00000000

  Overall HOMO-LUMO gap:      4.41579489 eV.

  Total energy components:
  | Sum of eigenvalues            :        -124.42276089 Ha       -3385.71558717 eV
  | XC energy correction          :         -27.91407528 Ha        -759.58063532 eV
  | XC potential correction       :          35.67535581 Ha         970.77582415 eV
  | Free-atom electrostatic energy:        -107.43216426 Ha       -2923.37792923 eV
  | Hartree energy correction     :          -5.53451365 Ha        -150.60177891 eV
  | van der Waals energy corr.    :           0.00000000 Ha           0.00000000 eV
  | Entropy correction            :           0.00000000 Ha           0.00000000 eV
  | ---------------------------
  | Total energy                  :        -229.62815826 Ha       -6248.50010649 eV
  | Total energy, T -> 0          :        -229.62815826 Ha       -6248.50010649 eV  <-- do not rely on this value for anything but (periodic) metals
  | Electronic free energy        :        -229.62815826 Ha       -6248.50010649 eV

  Derived energy quantities:
  | Kinetic energy                :         228.94887709 Ha        6230.01592527 eV
  | Electrostatic energy          :        -430.66296007 Ha      -11718.93539644 eV
  | Energy correction for multipole
  | error in Hartree potential    :          -0.00383095 Ha          -0.10424544 eV
  | Sum of eigenvalues per atom                           :        -376.19062080 eV
  | Total energy (T->0) per atom                          :        -694.27778961 eV  <-- do not rely on this value for anything but (periodic) metals
  | Electronic free energy per atom                       :        -694.27778961 eV

  Self-consistency convergence accuracy:
  | Change of charge density      : 0.9530E-02
  | Change of sum of eigenvalues  : -.2905E+01 eV
  | Change of total energy        : 0.2673E-02 eV

  End self-consistency iteration #     7       :  max(cpu_time)    wall_clock(cpu1)
  | Time for this iteration                    :        0.673 s           0.673 s
  | Charge density update                      :        0.220 s           0.220 s
  | Density mixing                             :        0.007 s           0.008 s
  | Hartree multipole update                   :        0.003 s           0.003 s
  | Hartree multipole summation                :        0.119 s           0.119 s
  | Integration                                :        0.304 s           0.304 s
  | Solution of K.-S. eqns.                    :        0.016 s           0.017 s
  | Total energy evaluation                    :        0.001 s           0.001 s
------------------------------------------------------------

------------------------------------------------------------
          Begin self-consistency iteration #    8

  Date     :  20150727, Time     :  121245.744
------------------------------------------------------------
  Evaluating new KS density.
  Integration grid: deviation in total charge (<rho> - N_e) =  -7.105427E-15
  Pulay mixing of updated and previous charge densities.

  Evaluating partitioned Hartree potential by multipole expansion.
  | Analytical far-field extrapolation by fixed multipoles:
  | Hartree multipole sum: apparent total charge =  -0.180351E-05
  Summing up the Hartree potential.
  Time summed over all CPUs for potential: real work        0.943 s, elapsed        0.948 s
  | RMS charge density error from multipole expansion :   0.138479E-01

  Integrating Hamiltonian matrix: batch-based integration.
  Time summed over all CPUs for integration: real work        2.366 s, elapsed        2.432 s

  Updating Kohn-Sham eigenvalues, eigenvectors, occupation numbers, and Fermi level.
  Solving generalized eigenproblem
  Updating Kohn-Sham eigenvalues and eigenfunctions.
  Solving real generalised eigenvalue problem by standard LAPACK (fast)
  Determining occupation numbers for Kohn-Sham eigenstates.
  | Chemical potential (Fermi level) in eV                 : -.45368706E+01
  | Error in electron count due to remaining E_F inaccuracy: 0.00000000E+00
  | Maximum occupation number of highest empty state:  0.00E+00

  Highest occupied state (VBM) at     -5.86210950 eV
  | Occupation number:      2.00000000

  Lowest unoccupied state (CBM) at    -1.45053497 eV
  | Occupation number:      0.00000000

  Overall HOMO-LUMO gap:      4.41157453 eV.

  Total energy components:
  | Sum of eigenvalues            :        -124.42005999 Ha       -3385.64209182 eV
  | XC energy correction          :         -27.91440376 Ha        -759.58957378 eV
  | XC potential correction       :          35.67578609 Ha         970.78753277 eV
  | Free-atom electrostatic energy:        -107.43216426 Ha       -2923.37792923 eV
  | Hartree energy correction     :          -5.53731658 Ha        -150.67805044 eV
  | van der Waals energy corr.    :           0.00000000 Ha           0.00000000 eV
  | Entropy correction            :           0.00000000 Ha           0.00000000 eV
  | ---------------------------
  | Total energy                  :        -229.62815848 Ha       -6248.50011251 eV
  | Total energy, T -> 0          :        -229.62815848 Ha       -6248.50011251 eV  <-- do not rely on this value for anything but (periodic) metals
  | Electronic free energy        :        -229.62815848 Ha       -6248.50011251 eV

  Derived energy quantities:
  | Kinetic energy                :         228.94872524 Ha        6230.01179332 eV
  | Electrostatic energy          :        -430.66247996 Ha      -11718.92233204 eV
  | Energy correction for multipole
  | error in Hartree potential    :          -0.00383374 Ha          -0.10432130 eV
  | Sum of eigenvalues per atom                           :        -376.18245465 eV
  | Total energy (T->0) per atom                          :        -694.27779028 eV  <-- do not rely on this value for anything but (periodic) metals
  | Electronic free energy per atom                       :        -694.27779028 eV

  Self-consistency convergence accuracy:
  | Change of charge density      : 0.6778E-03
  | Change of sum of eigenvalues  : 0.7350E-01 eV
  | Change of total energy        : -.6016E-05 eV

  End self-consistency iteration #     8       :  max(cpu_time)    wall_clock(cpu1)
  | Time for this iteration                    :        0.675 s           0.674 s
  | Charge density update                      :        0.221 s           0.220 s
  | Density mixing                             :        0.007 s           0.008 s
  | Hartree multipole update                   :        0.003 s           0.004 s
  | Hartree multipole summation                :        0.119 s           0.119 s
  | Integration                                :        0.305 s           0.305 s
  | Solution of K.-S. eqns.                    :        0.016 s           0.016 s
  | Total energy evaluation                    :        0.000 s           0.000 s
------------------------------------------------------------

------------------------------------------------------------
          Begin self-consistency iteration #    9

  Date     :  20150727, Time     :  121246.418
------------------------------------------------------------
  Evaluating new KS density.
  Integration grid: deviation in total charge (<rho> - N_e) =   2.842171E-14
  Pulay mixing of updated and previous charge densities.

  Evaluating partitioned Hartree potential by multipole expansion.
  | Analytical far-field extrapolation by fixed multipoles:
  | Hartree multipole sum: apparent total charge =  -0.179792E-05
  Summing up the Hartree potential.
  Time summed over all CPUs for potential: real work        0.943 s, elapsed        0.949 s
  | RMS charge density error from multipole expansion :   0.138474E-01

  Integrating Hamiltonian matrix: batch-based integration.
  Time summed over all CPUs for integration: real work        2.371 s, elapsed        2.436 s

  Updating Kohn-Sham eigenvalues, eigenvectors, occupation numbers, and Fermi level.
  Solving generalized eigenproblem
  Updating Kohn-Sham eigenvalues and eigenfunctions.
  Solving real generalised eigenvalue problem by standard LAPACK (fast)
  Determining occupation numbers for Kohn-Sham eigenstates.
  | Chemical potential (Fermi level) in eV                 : -.45376251E+01
  | Error in electron count due to remaining E_F inaccuracy: 0.00000000E+00
  | Maximum occupation number of highest empty state:  0.00E+00

  Highest occupied state (VBM) at     -5.86406354 eV
  | Occupation number:      2.00000000

  Lowest unoccupied state (CBM) at    -1.45065777 eV
  | Occupation number:      0.00000000

  Overall HOMO-LUMO gap:      4.41340578 eV.

  Total energy components:
  | Sum of eigenvalues            :        -124.42198296 Ha       -3385.69441860 eV
  | XC energy correction          :         -27.91405001 Ha        -759.57994780 eV
  | XC potential correction       :          35.67531657 Ha         970.77475626 eV
  | Free-atom electrostatic energy:        -107.43216426 Ha       -2923.37792923 eV
  | Hartree energy correction     :          -5.53527732 Ha        -150.62255935 eV
  | van der Waals energy corr.    :           0.00000000 Ha           0.00000000 eV
  | Entropy correction            :           0.00000000 Ha           0.00000000 eV
  | ---------------------------
  | Total energy                  :        -229.62815798 Ha       -6248.50009871 eV
  | Total energy, T -> 0          :        -229.62815798 Ha       -6248.50009871 eV  <-- do not rely on this value for anything but (periodic) metals
  | Electronic free energy        :        -229.62815798 Ha       -6248.50009871 eV

  Derived energy quantities:
  | Kinetic energy                :         228.94950601 Ha        6230.03303916 eV
  | Electrostatic energy          :        -430.66361398 Ha      -11718.95319008 eV
  | Energy correction for multipole
  | error in Hartree potential    :          -0.00382507 Ha          -0.10408537 eV
  | Sum of eigenvalues per atom                           :        -376.18826873 eV
  | Total energy (T->0) per atom                          :        -694.27778875 eV  <-- do not rely on this value for anything but (periodic) metals
  | Electronic free energy per atom                       :        -694.27778875 eV

  Self-consistency convergence accuracy:
  | Change of charge density      : 0.4475E-03
  | Change of sum of eigenvalues  : -.5233E-01 eV
  | Change of total energy        : 0.1380E-04 eV

  End self-consistency iteration #     9       :  max(cpu_time)    wall_clock(cpu1)
  | Time for this iteration                    :        0.676 s           0.676 s
  | Charge density update                      :        0.221 s           0.221 s
  | Density mixing                             :        0.009 s           0.009 s
  | Hartree multipole update                   :        0.004 s           0.003 s
  | Hartree multipole summation                :        0.119 s           0.119 s
  | Integration                                :        0.305 s           0.305 s
  | Solution of K.-S. eqns.                    :        0.017 s           0.016 s
  | Total energy evaluation                    :        0.001 s           0.000 s
------------------------------------------------------------

------------------------------------------------------------
          Begin self-consistency iteration #   10

  Date     :  20150727, Time     :  121247.094
------------------------------------------------------------
  Evaluating new KS density.
  Integration grid: deviation in total charge (<rho> - N_e) =  -1.421085E-14
  Pulay mixing of updated and previous charge densities.

  Evaluating partitioned Hartree potential by multipole expansion.
  | Analytical far-field extrapolation by fixed multipoles:
  | Hartree multipole sum: apparent total charge =  -0.179865E-05
  Summing up the Hartree potential.
  Time summed over all CPUs for potential: real work        0.943 s, elapsed        0.948 s
  | RMS charge density error from multipole expansion :   0.138504E-01

  Integrating Hamiltonian matrix: batch-based integration.
  Time summed over all CPUs for integration: real work        2.366 s, elapsed        2.434 s

  Updating Kohn-Sham eigenvalues, eigenvectors, occupation numbers, and Fermi level.
  Solving generalized eigenproblem
  Updating Kohn-Sham eigenvalues and eigenfunctions.
  Solving real generalised eigenvalue problem by standard LAPACK (fast)
  Determining occupation numbers for Kohn-Sham eigenstates.
  | Chemical potential (Fermi level) in eV                 : -.45369007E+01
  | Error in electron count due to remaining E_F inaccuracy: 0.00000000E+00
  | Maximum occupation number of highest empty state:  0.00E+00

  Highest occupied state (VBM) at     -5.86266965 eV
  | Occupation number:      2.00000000

  Lowest unoccupied state (CBM) at    -1.45031230 eV
  | Occupation number:      0.00000000

  Overall HOMO-LUMO gap:      4.41235735 eV.

  Total energy components:
  | Sum of eigenvalues            :        -124.42066123 Ha       -3385.65845247 eV
  | XC energy correction          :         -27.91420592 Ha        -759.58419024 eV
  | XC potential correction       :          35.67552211 Ha         970.78034948 eV
  | Free-atom electrostatic energy:        -107.43216426 Ha       -2923.37792923 eV
  | Hartree energy correction     :          -5.53664879 Ha        -150.65987912 eV
  | van der Waals energy corr.    :           0.00000000 Ha           0.00000000 eV
  | Entropy correction            :           0.00000000 Ha           0.00000000 eV
  | ---------------------------
  | Total energy                  :        -229.62815808 Ha       -6248.50010158 eV
  | Total energy, T -> 0          :        -229.62815808 Ha       -6248.50010158 eV  <-- do not rely on this value for anything but (periodic) metals
  | Electronic free energy        :        -229.62815808 Ha       -6248.50010158 eV

  Derived energy quantities:
  | Kinetic energy                :         228.94944450 Ha        6230.03136525 eV
  | Electrostatic energy          :        -430.66339666 Ha      -11718.94727659 eV
  | Energy correction for multipole
  | error in Hartree potential    :          -0.00382632 Ha          -0.10411955 eV
  | Sum of eigenvalues per atom                           :        -376.18427250 eV
  | Total energy (T->0) per atom                          :        -694.27778906 eV  <-- do not rely on this value for anything but (periodic) metals
  | Electronic free energy per atom                       :        -694.27778906 eV

  Self-consistency convergence accuracy:
  | Change of charge density      : 0.1637E-03
  | Change of sum of eigenvalues  : 0.3597E-01 eV
  | Change of total energy        : -.2867E-05 eV

[...]
  |   Hirshfeld volume        :     21.58811424
  |   Hirshfeld dipole vector :     -0.02819853       0.01712086       0.01909704
  |   Hirshfeld dipole moment :      0.03811795
  |   Hirshfeld second moments:      0.03319446       0.05620299      -0.00839965
  |                                  0.05620299       0.03827792       0.02693546
  |                                 -0.00839965       0.02693546       0.00779882
  ----------------------------------------------------------------------
  | Atom     5: H
  |   Hirshfeld charge        :      0.13230912
  |   Free atom volume        :     10.44207651
  |   Hirshfeld volume        :      6.57448114
  |   Hirshfeld dipole vector :      0.03415989       0.09514697       0.06186242
  |   Hirshfeld dipole moment :      0.11851921
  |   Hirshfeld second moments:      0.11404938       0.01270200      -0.00632904
  |                                  0.01270200       0.10275164       0.00374562
  |                                 -0.00632904       0.00374562       0.10294135
  ----------------------------------------------------------------------
  | Atom     6: H
  |   Hirshfeld charge        :      0.14687599
  |   Free atom volume        :     10.44207651
  |   Hirshfeld volume        :      6.30594708
  |   Hirshfeld dipole vector :     -0.10355175      -0.06500967       0.02235013
  |   Hirshfeld dipole moment :      0.12429300
  |   Hirshfeld second moments:      0.10567929       0.01185884       0.00052865
  |                                  0.01185884       0.12137975       0.01382404
  |                                  0.00052865       0.01382404       0.11187059
  ----------------------------------------------------------------------
  | Atom     7: O
  |   Hirshfeld charge        :     -0.29175694
  |   Free atom volume        :     23.95238533
  |   Hirshfeld volume        :     21.52619931
  |   Hirshfeld dipole vector :      0.00926423       0.00696892       0.05565360
  |   Hirshfeld dipole moment :      0.05684818
  |   Hirshfeld second moments:      0.05461603       0.05844304      -0.01854765
  |                                  0.05844304       0.00341878      -0.00181493
  |                                 -0.01854765      -0.00181493       0.01780982
  ----------------------------------------------------------------------
  | Atom     8: H
  |   Hirshfeld charge        :      0.15394610
  |   Free atom volume        :     10.44207651
  |   Hirshfeld volume        :      6.07871890
  |   Hirshfeld dipole vector :      0.10151356       0.06829731       0.03683267
  |   Hirshfeld dipole moment :      0.12777391
  |   Hirshfeld second moments:      0.12105798       0.01211023      -0.01415254
  |                                  0.01211023       0.10905350      -0.00565878
  |                                 -0.01415254      -0.00565878       0.12536367
  ----------------------------------------------------------------------
  | Atom     9: H
  |   Hirshfeld charge        :      0.14512534
  |   Free atom volume        :     10.44207651
  |   Hirshfeld volume        :      6.38015674
  |   Hirshfeld dipole vector :     -0.07470431      -0.03978157       0.08844173
  |   Hirshfeld dipole moment :      0.12241424
  |   Hirshfeld second moments:      0.11979226       0.01176711       0.00395250
  |                                  0.01176711       0.10549351       0.00628971
  |                                  0.00395250       0.00628971       0.11225862
  ----------------------------------------------------------------------


  Total energy components:
  | Sum of eigenvalues            :        -124.42055545 Ha       -3385.65557393 eV
  | XC energy correction          :         -27.91421866 Ha        -759.58453700 eV
  | XC potential correction       :          35.67553904 Ha         970.78081005 eV
  | Free-atom electrostatic energy:        -107.43216426 Ha       -2923.37792923 eV
  | Hartree energy correction     :          -5.53675875 Ha        -150.66287116 eV
  | van der Waals energy corr.    :          -0.00099157 Ha          -0.02698197 eV
  | Entropy correction            :           0.00000000 Ha           0.00000000 eV
  | ---------------------------
  | Total energy                  :        -229.62914964 Ha       -6248.52708324 eV
  | Total energy, T -> 0          :        -229.62914964 Ha       -6248.52708324 eV  <-- do not rely on this value for anything but (periodic) metals
  | Electronic free energy        :        -229.62914964 Ha       -6248.52708324 eV

  Derived energy quantities:
  | Kinetic energy                :         228.94950118 Ha        6230.03290783 eV
  | Electrostatic energy          :        -430.66344059 Ha      -11718.94847210 eV
  | Energy correction for multipole
  | error in Hartree potential    :          -0.00382621 Ha          -0.10411645 eV
  | Sum of eigenvalues per atom                           :        -376.18395266 eV
  | Total energy (T->0) per atom                          :        -694.28078703 eV  <-- do not rely on this value for anything but (periodic) metals
  | Electronic free energy per atom                       :        -694.28078703 eV

  atomic forces [eV/Ang]:
  -----------------------
  atom #    1
   Hellmann-Feynman + Multipole  : -.750524E+01 -.117395E+02 0.371471E+01
   Pulay + GGA                   : 0.740917E+01 0.155149E+02 -.582905E+01
   Van der Waals               : 0.264694E-02 0.273978E-02 -.155738E-02
   ----------------------------------------------------------------
   Total forces(   1)            : -.934213E-01 0.377821E+01 -.211590E+01
  atom #    2
   Hellmann-Feynman + Multipole  : 0.236441E+01 -.353290E+01 0.152762E+01
   Pulay + GGA                   : -.471371E-01 0.107111E+00 -.585049E-01
   Van der Waals               : 0.100024E-02 0.885092E-03 0.204769E-02
   ----------------------------------------------------------------
   Total forces(   2)            : 0.231827E+01 -.342491E+01 0.147117E+01
  atom #    3
   Hellmann-Feynman + Multipole  : -.216670E+01 -.243627E+00 -.174490E+00
   Pulay + GGA                   : 0.133079E+00 0.330760E-01 -.647144E-02
   Van der Waals               : 0.190933E-02 0.332364E-02 0.145124E-02
   ----------------------------------------------------------------
   Total forces(   3)            : -.203171E+01 -.207227E+00 -.179510E+00
  atom #    4
   Hellmann-Feynman + Multipole  : 0.859002E+01 -.525177E+01 -.152521E+02
   Pulay + GGA                   : -.898193E+01 0.388818E+01 0.148211E+02
   Van der Waals               : 0.628107E-03 0.224046E-02 0.599848E-02
   ----------------------------------------------------------------
   Total forces(   4)            : -.391287E+00 -.136135E+01 -.424992E+00
  atom #    5
   Hellmann-Feynman + Multipole  : -.432687E+00 0.346469E+00 0.850994E+00
   Pulay + GGA                   : 0.359538E-01 0.101702E+00 0.115287E+00
   Van der Waals               : 0.800316E-03 0.616139E-03 -.122402E-02
   ----------------------------------------------------------------
   Total forces(   5)            : -.395932E+00 0.448788E+00 0.965056E+00
  atom #    6
   Hellmann-Feynman + Multipole  : 0.703874E+00 0.829553E+00 0.263993E+00
   Pulay + GGA                   : -.114402E+00 -.566842E-01 0.607591E-01
   Van der Waals               : 0.103969E-02 0.103398E-02 -.136708E-02
   ----------------------------------------------------------------
   Total forces(   6)            : 0.590512E+00 0.773902E+00 0.323385E+00
  atom #    7
   Hellmann-Feynman + Multipole  : -.217263E+01 -.310933E+01 -.171649E+02
   Pulay + GGA                   : 0.290438E+01 0.342342E+01 0.156069E+02
   Van der Waals               : -.609636E-02 -.749529E-02 -.219342E-02
   ----------------------------------------------------------------
   Total forces(   7)            : 0.725647E+00 0.306597E+00 -.156011E+01
  atom #    8
   Hellmann-Feynman + Multipole  : -.517224E+00 -.308699E+00 0.322628E+00
   Pulay + GGA                   : 0.102324E+00 0.741656E-01 0.608811E-01
   Van der Waals               : -.771439E-03 -.902757E-03 -.357577E-03
   ----------------------------------------------------------------
   Total forces(   8)            : -.415671E+00 -.235436E+00 0.383152E+00
  atom #    9
   Hellmann-Feynman + Multipole  : -.209393E+00 -.291480E-01 0.102906E+01
   Pulay + GGA                   : -.933372E-01 -.485518E-01 0.108450E+00
   Van der Waals               : -.115682E-02 -.244105E-02 -.279794E-02
   ----------------------------------------------------------------
   Total forces(   9)            : -.303887E+00 -.801408E-01 0.113471E+01
  Timings for vdw_correction_hirshfeld (Tkatchenko-Scheffler 2009):
  | CPU time:        1.778 s, Wall clock time:        1.780 s.
  Removing unitary transformations (pure translations, rotations) from forces on atoms.
  Atomic forces before filtering:
  | Net force on center of mass :  0.251995E-02 -.155904E-02 -.304160E-02 eV/A
  | Net torque on center of mass:  0.147776E-01 -.142398E-01 -.110633E-02 eV
  Atomic forces after filtering:
  | Net force on center of mass :  -.535218E-15 -.557519E-16 0.178406E-15 eV/A
  | Net torque on center of mass:  -.224220E-15 -.944085E-15 0.358752E-14 eV
 
  Energy and forces in a compact form:
  | Total energy uncorrected      :         -0.624852708324462E+04 eV
  | Total energy corrected        :         -0.624852708324462E+04 eV  <-- do not rely on this value for anything but (periodic) metals
  | Electronic free energy        :         -0.624852708324462E+04 eV
  Total atomic forces (unitary forces cleaned) [eV/Ang]:
  |   1         -0.941855014841557E-01          0.377785844194167E+01         -0.211509041784247E+01
  |   2          0.231733624712633E+01         -0.342540138606739E+01          0.147187067354142E+01
  |   3         -0.203247237592621E+01         -0.207517152448205E+00         -0.179095485974846E+00
  |   4         -0.391239692916715E+00         -0.136098133118820E+01         -0.423911635873493E+00
  |   5         -0.395738458682560E+00          0.449337299972354E+00          0.965842036024258E+00
  |   6          0.590675643379419E+00          0.774316839520258E+00          0.324869947297295E+00
  |   7          0.725384474337463E+00          0.306945446652504E+00         -0.156081200277638E+01
  |   8         -0.415851375437858E+00         -0.234950491718143E+00          0.382048542942859E+00
  |   9         -0.303908960395717E+00         -0.796076666648450E-01          0.113427834266135E+01
 
  ------------------------------------ 
  Start decomposition of the XC Energy 
  ------------------------------------ 
  Hartree-Fock part   :          0.000000000 Ha              0.000000000 eV
  ------------------------------------ 
  X Energy            :        -26.942487934 Ha           -733.142398546 eV
  C Energy GGA        :         -0.971730727 Ha            -26.442138454 eV
  Total XC Energy     :        -27.914218661 Ha           -759.584537000 eV
  LDA X and C from self-consistent density 
  X Energy LDA        :        -24.256459662 Ha           -660.051850465 eV
  C Energy LDA        :         -1.975262026 Ha            -53.749614473 eV
  ------------------------------------ 
  End decomposition of the XC Energy 
  ------------------------------------ 
  Performing Hirshfeld analysis of fragment charges and moments.
  ----------------------------------------------------------------------
  | Atom     1: O
  |   Hirshfeld charge        :     -0.27785158
  |   Free atom volume        :     23.95238533
  |   Hirshfeld volume        :     22.50160592
  |   Hirshfeld dipole vector :      0.02152697       0.03938962       0.02278319
  |   Hirshfeld dipole moment :      0.05033911
  |   Hirshfeld second moments:      0.05396884      -0.02039998       0.01934798
  |                                 -0.02039998      -0.00348456      -0.03428249
  |                                  0.01934798      -0.03428249      -0.04968952
  ----------------------------------------------------------------------
  | Atom     2: H
  |   Hirshfeld charge        :      0.13960004
  |   Free atom volume        :     10.44207651
  |   Hirshfeld volume        :      6.76789563
  |   Hirshfeld dipole vector :     -0.06470121       0.09286613      -0.03423404
  |   Hirshfeld dipole moment :      0.11824692
  |   Hirshfeld second moments:      0.12234042       0.00390713       0.00455729
  |                                  0.00390713       0.09252431      -0.00702216
  |                                  0.00455729      -0.00702216       0.09040703
  ----------------------------------------------------------------------
  | Atom     3: H
  |   Hirshfeld charge        :      0.13158821
  |   Free atom volume        :     10.44207651
  |   Hirshfeld volume        :      7.14594198
  |   Hirshfeld dipole vector :      0.11261004       0.01722264       0.01311879
  |   Hirshfeld dipole moment :      0.11467233
  |   Hirshfeld second moments:      0.10118996      -0.01779292      -0.00335820
  |                                 -0.01779292       0.09878316      -0.01486676
  |                                 -0.00335820      -0.01486676       0.08446185
  ----------------------------------------------------------------------
  | Atom     4: O
  |   Hirshfeld charge        :     -0.27984557
  |   Free atom volume        :     23.95238533
  |   Hirshfeld volume        :     21.58811424
  |   Hirshfeld dipole vector :     -0.02819853       0.01712086       0.01909704
  |   Hirshfeld dipole moment :      0.03811795
  |   Hirshfeld second moments:      0.03319446       0.05620299      -0.00839965
  |                                  0.05620299       0.03827792       0.02693546
  |                                 -0.00839965       0.02693546       0.00779882
  ----------------------------------------------------------------------
  | Atom     5: H
  |   Hirshfeld charge        :      0.13230912
  |   Free atom volume        :     10.44207651
  |   Hirshfeld volume        :      6.57448114
  |   Hirshfeld dipole vector :      0.03415989       0.09514697       0.06186242
  |   Hirshfeld dipole moment :      0.11851921
  |   Hirshfeld second moments:      0.11404938       0.01270200      -0.00632904
  |                                  0.01270200       0.10275164       0.00374562
  |                                 -0.00632904       0.00374562       0.10294135
  ----------------------------------------------------------------------
  | Atom     6: H
  |   Hirshfeld charge        :      0.14687599
  |   Free atom volume        :     10.44207651
  |   Hirshfeld volume        :      6.30594708
  |   Hirshfeld dipole vector :     -0.10355175      -0.06500967       0.02235013
  |   Hirshfeld dipole moment :      0.12429300
  |   Hirshfeld second moments:      0.10567929       0.01185884       0.00052865
  |                                  0.01185884       0.12137975       0.01382404
  |                                  0.00052865       0.01382404       0.11187059
  ----------------------------------------------------------------------
  | Atom     7: O
  |   Hirshfeld charge        :     -0.29175694
  |   Free atom volume        :     23.95238533
  |   Hirshfeld volume        :     21.52619931
  |   Hirshfeld dipole vector :      0.00926423       0.00696892       0.05565360
  |   Hirshfeld dipole moment :      0.05684818
  |   Hirshfeld second moments:      0.05461603       0.05844304      -0.01854765
  |                                  0.05844304       0.00341878      -0.00181493
  |                                 -0.01854765      -0.00181493       0.01780982
  ----------------------------------------------------------------------
  | Atom     8: H
  |   Hirshfeld charge        :      0.15394610
  |   Free atom volume        :     10.44207651
  |   Hirshfeld volume        :      6.07871890
  |   Hirshfeld dipole vector :      0.10151356       0.06829731       0.03683267
  |   Hirshfeld dipole moment :      0.12777391
  |   Hirshfeld second moments:      0.12105798       0.01211023      -0.01415254
  |                                  0.01211023       0.10905350      -0.00565878
  |                                 -0.01415254      -0.00565878       0.12536367
  ----------------------------------------------------------------------
  | Atom     9: H
  |   Hirshfeld charge        :      0.14512534
  |   Free atom volume        :     10.44207651
  |   Hirshfeld volume        :      6.38015674
  |   Hirshfeld dipole vector :     -0.07470431      -0.03978157       0.08844173
  |   Hirshfeld dipole moment :      0.12241424
  |   Hirshfeld second moments:      0.11979226       0.01176711       0.00395250
  |                                  0.01176711       0.10549351       0.00628971
  |                                  0.00395250       0.00628971       0.11225862
  ----------------------------------------------------------------------


------------------------------------------------------------------------------
  Final output of selected total energy values:

  The following output summarizes some interesting total energy values
  at the end of a run (AFTER all relaxation, molecular dynamics, etc.).

  | Total energy of the DFT / Hartree-Fock s.c.f. calculation      :          -6248.527083245 eV
  | Final zero-broadening corrected energy (caution - metals only) :          -6248.527083245 eV
  | For reference only, the value of 1 Hartree used in FHI-aims is :             27.211384500 eV

  Before relying on these values, please be sure to understand exactly which
  total energy value is referred to by a given number. Different objects may
  all carry the same name 'total energy'. Definitions:

  Total energy of the DFT / Hartree-Fock s.c.f. calculation:
  | Note that this energy does not include ANY quantities calculated after the
  | s.c.f. cycle, in particular not ANY RPA, MP2, etc. many-body perturbation terms.

  Final zero-broadening corrected energy:
  | For metallic systems only, a broadening of the occupation numbers at the Fermi
  | level can be extrapolated back to zero broadening by an electron-gas inspired
  | formula. For all systems that are not real metals, this value can be
  | meaningless and should be avoided.

------------------------------------------------------------------------------

------------------------------------------------------------
          Leaving FHI-aims.
          Date     :  20150727, Time     :  121251.850

          Computational steps:
          | Number of self-consistency cycles          :           14

          Detailed time accounting                     :  max(cpu_time)    wall_clock(cpu1)
          | Total time                                 :       11.959 s          11.982 s
          | Preparation time                           :        0.171 s           0.355 s
          | Grid partitioning                          :        0.110 s           0.094 s
          | Preloading free-atom quantities on grid    :        0.013 s           0.013 s
          | Free-atom superposition energy             :        0.029 s           0.029 s
          | Total time for integrations                :        4.757 s           4.757 s
          | Total time for solution of K.-S. equations :        0.293 s           0.294 s
          | Total time for density & force components  :        3.997 s           3.992 s
          | Total time for mixing                      :        0.098 s           0.101 s
          | Total time for Hartree multipole update    :        0.052 s           0.049 s
          | Total time for Hartree multipole sum       :        2.058 s           2.060 s
          | Total time for total energy evaluation     :        0.006 s           0.013 s
          | Total time for scaled ZORA corrections     :        0.000 s           0.000 s
          | Total time for TS (2009) vdW correction    :        0.023 s           0.026 s

          Have a nice day.
------------------------------------------------------------
