  MPI-parallelism will be employed.
------------------------------------------------------------
          Invoking FHI-aims ...
          Version 081213
          Compiled on 2013/08/29 at 17:41:06 on host generoso.

          When using FHI-aims, please cite the following reference:

          Volker Blum, Ralf Gehrke, Felix Hanke, Paula Havu,
          Ville Havu, Xinguo Ren, Karsten Reuter, and Matthias Scheffler,
          'Ab Initio Molecular Simulations with Numeric Atom-Centered Orbitals: FHI-aims',
          Computer Physics Communications 180, 2175-2196 (2009)

          For any questions about FHI-aims, please visit the aimsclub website
          with its forums and wiki. Contributions to both the forums and the
          wiki are warmly encouraged - they are for you, and everyone is welcome there.

------------------------------------------------------------

  Date     :  20150727, Time     :  122519.078
  Time zero on CPU 1             :   0.349940000000000E-01  s.
  Internal wall clock time zero  :           207231919.078  s.

  Using        8 parallel tasks.
  Task        0 on host gen60 reporting.
  Task        1 on host gen60 reporting.
  Task        2 on host gen60 reporting.
  Task        3 on host gen60 reporting.
  Task        4 on host gen60 reporting.
  Task        5 on host gen60 reporting.
  Task        6 on host gen60 reporting.
  Task        7 on host gen60 reporting.

  Performing system and environment tests:
  | Environment variable OMP_NUM_THREADS correctly set to 1.
  | Checking for scalapack...
  | No scalapack compiled in.

  Obtaining array dimensions for all initial allocations:
  
  -----------------------------------------------------------------------
  Parsing control.in (first pass over file, find array dimensions only).
  The contents of control.in will be repeated verbatim below
  unless switched off by setting 'verbatim_writeout .false.' .
  in the first line of control.in .
  -----------------------------------------------------------------------
  
  #########################################################################################
  #
  #  Volker Blum, FHI 2008 : Test run input file control.in
  #
  #########################################################################################
  #
  #  Physical model
  #
    xc                 rpbe
    spin               none
    relativistic       atomic_zora scalar
    charge             0.
   vdw_correction_hirshfeld
  #
  #  SCF convergence
  #
    occupation_type    gaussian 0.01
    mixer              pulay
      n_max_pulay        10
      charge_mix_param   0.1
    sc_accuracy_rho    5E-5
    sc_accuracy_eev    5E-3
    sc_accuracy_etot   5E-6
    sc_iter_limit      3000
  #
  #  Eigenvalue solver
  #
    KS_method          lapack
      empty_states       8
      basis_threshold    0.e-5
  #
  #  Efficiency
  #
  #   all previous settings are now default, except stratmann still
  #   undecided. Continue to handle stratmann with care, if at all.
  #
  #  partition_type stratmann
    partition_type rho_r2
  #  hartree_partition_type stratmann
  #
  #  Oprions for large clusters (100's of atoms: memory saving / better scaling)
  #
  # for periodic systems:
  #
    density_update_method orbital
    packed_matrix_format none
  #  k_grid 6 6 6
  #  output k_eigenvalue 1
  #  distributed_spline_storage .true.
  #
  #  Relaxation
  #
  #  relax_geometry   bfgs 5.e-3
    sc_accuracy_forces 5.E-4
    final_forces_cleaned .true.
  #
  #  Output options
  #
  #  output mulliken
    output Hirshfeld
  #  output dipole
  
  #harmonic_length_scale 0.001
  
  ################################################################################
  #
  #  FHI-aims code project
  #  VB, Fritz-Haber Institut, 2007
  #
  #  Suggested "safe" defaults for H atom (to be pasted into control.in file)
  #  Basis constructed for a non-relativistic H2 molecule using the
  #  PW-LDA functional.
  #
  ################################################################################
    species        H
  #     global species definitions
      nucleus             1
      cut_pot             4.0  2.0  1.0
      cut_free_atom       finite 8.0
      logarithmic         0.00010000 100.00  1.0123
      basis_dep_cutoff    1d-4  # 1d-4 is safe default - please check 5d-4 if you wish!
      radial_base         24 7.0
      radial_multiplier   2
      angular_grids       specified
        division   0.2783  110
        division   0.3822  194
        division   0.5626  302
  #      division   0.5922  434
  #      division   0.6227  590
  #      division   0.7206  770
        outer_grid  302
      l_hartree           4
  ################################################################################
  #
  #  Definition of "minimal" basis
  #
  ################################################################################
  #     valence basis states
      valence      1  s   1.
  #     ion occupancy
      ion_occ      1  s   0.5
  ################################################################################
  #
  #  Suggested additional basis functions. For production calculations,
  #  uncomment them one after another (the most important basis functions are
  #  listed first).
  #
  ################################################################################
  #  "First tier" - improvements: -1014.90 meV to -62.69 meV
       hydro 2 s 2.1
       hydro 2 p 3.5
  #  "Second tier" - improvements: -12.89 meV to -1.83 meV
       hydro 1 s 0.85
       hydro 2 p 3.7
       hydro 2 s 1.2
       hydro 3 d 7
  #  "Third tier" - improvements: -0.25 meV to -0.12 meV
  #     hydro 4 f 11.2
  #     hydro 3 p 4.8
  #     hydro 4 d 9
  #     hydro 3 s 3.2
  
  ################################################################################
  #
  #  FHI-aims code project
  #  VB, Fritz-Haber Institut, 2007
  #
  #  Suggested "safe" defaults for O atom (to be pasted into control.in file)
  #  All values have been tested for a non-relativistic, non-spinpolarized O2
  #  molecule using the PW-LDA functional. Validity for PBE is expected.
  #
  #  Constructed for dimers: 1.0 A, 1.208 A, 1.5 A, 2.0 A, 3.0 A
  #
  ################################################################################
    species        O
  #     global species definitions
      nucleus             8
      mass                15.9994
      l_hartree           4
      cut_pot             4.0  2.0  1.0
      cut_free_atom       finite 8.0
      basis_dep_cutoff    1d-4  # 1d-4 is safe default - please check 5d-4 if you wish!
      logarithmic         0.00010000 100.00  1.0123
      radial_base         36 7.0
      radial_multiplier   2
       angular_grids specified
        division   0.4087  110
        division   0.5181  194
        division   0.6184  302
  #      division   0.7315  434
  #      division   0.7934  590
  #      division   0.9656  770
  #      division   1.4041  974
  #      outer_grid 974
        outer_grid 302
  ################################################################################
  #
  #  Definition of "minimal" basis
  #
  ################################################################################
  #     valence basis states
      valence      2  s   2.
      valence      2  p   4.
  #     ion occupancy
      ion_occ      2  s   1.
      ion_occ      2  p   3.
  ################################################################################
  #
  #  Suggested additional basis functions. For production calculations,
  #  uncomment them one after another (the most important basis functions are
  #  listed first).
  #
  ################################################################################
  #  "First tier" - improvements: -699.05 meV to -159.38 meV
       hydro 2 p 1.8
       hydro 3 d 7.6
       hydro 3 s 6.4
  #  "Second tier" - improvements: -49.91 meV to -5.39 meV
       hydro 4 f 11.6
       hydro 3 p 6.2
       hydro 3 d 5.6
       hydro 5 g 17.6
       hydro 1 s 0.75
  #  "Third tier" - improvements: -2.83 meV to -0.50 meV
  #     ionic 2 p auto
  #     hydro 4 f 10.8
  #     hydro 4 d 4.7
  #     hydro 2 s 6.8
  #  "Fourth tier" - improvements: -0.40 meV to -0.12 meV
  #     hydro 3 p 5
  #     hydro 3 s 3.3
  #     hydro 5 g 15.6
  #     hydro 4 f 17.6
  #     hydro 4 d 14
  # Further basis functions - -0.08 meV and below
  #     hydro 3 s 2.1
  #     hydro 4 d 11.6
  #     hydro 3 p 16
  #     hydro 2 s 17.2
  
  
  -----------------------------------------------------------------------
  Completed first pass over input file control.in .
  -----------------------------------------------------------------------
  
  
  -----------------------------------------------------------------------
  Parsing geometry.in (first pass over file, find array dimensions only).
  The contents of geometry.in will be repeated verbatim below
  unless switched off by setting 'verbatim_writeout .false.' .
  in the first line of geometry.in .
  -----------------------------------------------------------------------
  
  atom      -4.053030000      0.065001000     -1.525160000  O
  atom      -4.566710000      0.974813000     -1.912820000  H
  atom      -3.067820000      0.330172000     -1.477310000  H
  atom      -5.293160000      2.192130000     -2.328800000  O
  atom      -4.829300000      2.988660000     -1.973850000  H
  atom      -5.428570000      2.328640000     -3.235170000  H
  atom      -3.818880000      2.024990000      2.187990000  O
  atom      -3.690880000      1.961360000      3.202150000  H
  atom      -4.546490000      2.751300000      2.045370000  H
  atom      -1.975360000      2.858040000      0.453140000  O
  atom      -1.223550000      3.375850000      0.786238000  H
  atom      -2.537520000      2.567960000      1.156120000  H
  atom      -4.066610000      4.258280000     -0.900064000  O
  atom      -3.224110000      3.876870000     -0.569443000  H
  atom      -3.737450000      5.116530000     -1.322720000  H
  
  -----------------------------------------------------------------------
  Completed first pass over input file geometry.in .
  -----------------------------------------------------------------------
  
 
  Basic array size parameters: 
  | Number of species                 :        2
  | Number of atoms                   :       15
  | Max. basis fn. angular momentum   :        4
  | Max. atomic/ionic basis occupied n:        2
  | Max. number of basis fn. types    :        2
  | Max. radial fns per species/type  :        8
  | Max. logarithmic grid size        :     1301
  | Max. radial integration grid size :       73
  | Max. angular integration grid size:      302
  | Max. angular grid division number :        8
  | Radial grid for Hartree potential :     1301
  | Number of spin channels           :        1

------------------------------------------------------------
          Reading file control.in.
------------------------------------------------------------
  XC: Using RPBE gradient-corrected functionals.
  Spin treatment: No spin polarisation.
  Scalar relativistic treatment of kinetic energy: on-site free-atom approximation to ZORA.
  Charge =   0.000000E+00: Neutral system requested explicitly.
  Using non-empirical van der Waals correction (Hirshfeld partitioning):
  Occupation type: Gaussian broadening, width =   0.100000E-01 eV.
  Using pulay charge density mixing.
  Pulay mixing - number of memorized iterations:   10
  Charge density mixing - mixing parameter:     0.1000
  Convergence accuracy of self-consistent charge density: 0.5000E-04
  Convergence accuracy of sum of eigenvalues: 0.5000E-02
  Convergence accuracy of total energy: 0.5000E-05
  Maximum number of s.-c. iterations  :  3000
  Kohn-Sham eigenvalues and eigenfunctions calculated by lapack diagonalisation (D&C).
  Number of empty states per atom:        8
  Threshold for basis singularities: 0.0000E+00
  Partition function in integrals calculations: rho / r^2
 Using packed matrix format           0
  Convergence accuracy of forces: 0.5000E-03
  Cleaning forces before final output.
  Hirshfeld charge analysis will be performed.
 
  Reading configuration options for species H                   .
  | Found nuclear charge :   1.0000
  | Found cutoff potl. onset [A], width [A], scale factor :    4.00000    2.00000    1.00000
  | Found cutoff specification for free atom: Cutoff potential begins at    8.00000 A.
  | Found logarithmic grid data [bohr] : 0.1000E-03 0.1000E+03 0.1012E+01
  | Threshold for basis-dependent cutoff potential is   0.100000E-03
  | Found data for basic radial integration grid :    24 points, outermost radius =    7.000 A
  | Found multiplier for basic radial grid :   2
  | Found angular grid specification: user-specified.
  | Specified grid contains     4 separate shells.
  | Check grid settings after all constraints further below.
  | Found l_max for Hartree potential  :   4
  | Found free-atom valence shell :  1 s   1.000
  | No ionic wave fns used. Skipping ion_occ.
  | Found hydrogenic basis function :  2 s   2.100
  | Found hydrogenic basis function :  2 p   3.500
  | Found hydrogenic basis function :  1 s   0.850
  | Found hydrogenic basis function :  2 p   3.700
  | Found hydrogenic basis function :  2 s   1.200
  | Found hydrogenic basis function :  3 d   7.000
  Species H                   : Missing cutoff potential type.
  Defaulting to exp(1/x)/(1-x)^2 type cutoff potential.
  Species H : On-site basis accuracy parameter (for Gram-Schmidt orthonormalisation) not specified.
  Using default value basis_acc =  0.1000000E-03.
  Species H                   : Using default innermost maximum threshold i_radial=  2 for radial functions.
  Species H                   : Basic radial grid will be enhanced according to radial_multiplier =   2, to contain    49 grid points.
 
  Reading configuration options for species O                   .
  | Found nuclear charge :   8.0000
  | Found atomic mass :    15.9994000000000      amu
  | Found l_max for Hartree potential  :   4
  | Found cutoff potl. onset [A], width [A], scale factor :    4.00000    2.00000    1.00000
  | Found cutoff specification for free atom: Cutoff potential begins at    8.00000 A.
  | Threshold for basis-dependent cutoff potential is   0.100000E-03
  | Found logarithmic grid data [bohr] : 0.1000E-03 0.1000E+03 0.1012E+01
  | Found data for basic radial integration grid :    36 points, outermost radius =    7.000 A
  | Found multiplier for basic radial grid :   2
  | Found angular grid specification: user-specified.
  | Specified grid contains     4 separate shells.
  | Check grid settings after all constraints further below.
  | Found free-atom valence shell :  2 s   2.000
  | Found free-atom valence shell :  2 p   4.000
  | No ionic wave fns used. Skipping ion_occ.
  | No ionic wave fns used. Skipping ion_occ.
  | Found hydrogenic basis function :  2 p   1.800
  | Found hydrogenic basis function :  3 d   7.600
  | Found hydrogenic basis function :  3 s   6.400
  | Found hydrogenic basis function :  4 f  11.600
  | Found hydrogenic basis function :  3 p   6.200
  | Found hydrogenic basis function :  3 d   5.600
  | Found hydrogenic basis function :  5 g  17.600
  | Found hydrogenic basis function :  1 s   0.750
  Species O                   : Missing cutoff potential type.
  Defaulting to exp(1/x)/(1-x)^2 type cutoff potential.
  Species O : On-site basis accuracy parameter (for Gram-Schmidt orthonormalisation) not specified.
  Using default value basis_acc =  0.1000000E-03.
  Species O                   : Using default innermost maximum threshold i_radial=  2 for radial functions.
  Species O                   : Basic radial grid will be enhanced according to radial_multiplier =   2, to contain    73 grid points.
 
  Finished reading input file 'control.in'. Consistency checks are next.
 
  Target number of points in a grid batch is not set. Defaulting to  100
  Method for grid partitioning is not set. Defaulting to parallel hash+maxmin partitioning.
  Batch size limit is not set. Defaulting to    200
  By default, will store active basis functions for each batch.
  If in need of memory, prune_basis_once .false. can be used to disable this option.
  communication_type for Hartree potential was not specified.
  Defaulting to calc_hartree .
  Pulay mixer: Number of initial linear mixing iterations not set.
  Defaulting to    0 iterations.
  Work space size for distributed Hartree potential not set.
  Defaulting to   0.200000E+03 MB.
  Algorithm-dependent basis array size parameters:
  | n_max_pulay                         :       10
  Geometry relaxation not requested: no relaxation will be performed.
  Handling of forces: Unphysical translation and rotation will be removed from forces.
  No accuracy limit for integral partition fn. given. Defaulting to 0.1000E-14.
  No threshold value for u(r) in integrations given. Defaulting to 0.1000E-05.
  No accuracy for occupation numbers given. Defaulting to 0.1000E-07.
  No threshold value for occupation numbers given. Defaulting to 0.0000E+00.
  No accuracy for fermi level given. Defaulting to 0.1000E-19.
  Maximum # of iterations to find E_F not set. Defaulting to  200.
  Will not use alltoall communication since running on < 1024 CPUs.
  Partitioning for Hartree potential was not defined. Using partition_type for integrals.
  | Reporting present value of keyword multip_moments_threshold  :       0.10000000E-09
  | This value may affect high angular momentum components of the Hartree potential in periodic systems.
  No q(lm)/r^(l+1) cutoff set for long-range Hartree potential.
  | Using default value of  0.100000E-09 .
  | Verify using the multipole_threshold keyword.
  Defaulting to new monopole extrapolation.
  Density update method: Loop over occupied states selected for charge density update.
------------------------------------------------------------


------------------------------------------------------------
          Reading geometry description geometry.in.
------------------------------------------------------------
  Input structure read successfully.
  The structure contains       15 atoms,  and a total of         50.000 electrons.

  Input geometry:
  | No unit cell requested.
  | Atomic structure:
  |       Atom                x [A]            y [A]            z [A]
  |    1: Species O             -4.053030         0.065001        -1.525160
  |    2: Species H             -4.566710         0.974813        -1.912820
  |    3: Species H             -3.067820         0.330172        -1.477310
  |    4: Species O             -5.293160         2.192130        -2.328800
  |    5: Species H             -4.829300         2.988660        -1.973850
  |    6: Species H             -5.428570         2.328640        -3.235170
  |    7: Species O             -3.818880         2.024990         2.187990
  |    8: Species H             -3.690880         1.961360         3.202150
  |    9: Species H             -4.546490         2.751300         2.045370
  |   10: Species O             -1.975360         2.858040         0.453140
  |   11: Species H             -1.223550         3.375850         0.786238
  |   12: Species H             -2.537520         2.567960         1.156120
  |   13: Species O             -4.066610         4.258280        -0.900064
  |   14: Species H             -3.224110         3.876870        -0.569443
  |   15: Species H             -3.737450         5.116530        -1.322720
  |

  | The smallest distance between any two atoms is         0.92654057 AA.
  |
  | The first atom of this pair is atom number                      4 .
  | The second atom of this pair is atom number                     6 .

  Structure-dependent array size parameters: 
  | Maximum number of distinct radial functions  :       18
  | Maximum number of basis functions            :      345
  | Number of Kohn-Sham states (occupied + empty):       85
------------------------------------------------------------

------------------------------------------------------------
          Preparing all fixed parts of the calculation.
------------------------------------------------------------
  Determining machine precision:
    2.225073858507201E-308
  Setting up grids for atomic and cluster calculations.

  Creating wave function, potential, and density for free atoms.

  Species: H

  List of occupied orbitals and eigenvalues:
    n    l              occ      energy [Ha]    energy [eV]
    1    0           1.0000        -0.241408        -6.5691


  Species: O

  List of occupied orbitals and eigenvalues:
    n    l              occ      energy [Ha]    energy [eV]
    1    0           2.0000       -18.944147      -515.4965
    2    0           2.0000        -0.883529       -24.0421
    2    1           4.0000        -0.330176        -8.9845

  Creating fixed part of basis set: Ionic, confined, hydrogenic.
 
  H                    hydrogenic:
 
  List of hydrogenic basis orbitals: 
    n    l      effective z      eigenvalue [eV]  inner max. [A]     outer max. [A]     outer radius [A]   
    2    0         2.100000       -14.9965           0.193241           1.317192           5.372934
    2    1         3.500000       -41.6672           0.602363           0.602363           4.056010
    1    0         0.850000        -9.8292           0.624864           0.624864           5.372934
    2    1         3.700000       -46.5653           0.573616           0.573616           3.909951
    2    0         1.200000        -4.5995           0.334977           2.228160           5.505921
    3    2         7.000000       -74.0753           0.680692           0.680692           3.769152
 
 
  O                    hydrogenic:
 
  List of hydrogenic basis orbitals: 
    n    l      effective z      eigenvalue [eV]  inner max. [A]     outer max. [A]     outer radius [A]   
    2    1         1.800000       -11.0118           1.178546           1.178546           5.432516
    3    2         7.600000       -87.3182           0.624117           0.624117           3.541422
    3    0         6.400000       -61.9209           0.061166           1.081887           4.306510
    4    3        11.600000      -114.4238           0.731621           0.731621           3.584982
    3    1         6.200000       -58.1113           0.255677           1.030255           4.306510
    3    2         5.600000       -47.4081           0.847222           0.847222           4.413102
    5    4        17.600000      -168.5799           0.749730           0.749730           3.372413
    1    0         0.750000        -7.6499           0.705275           0.705275           5.366508
 

  Adding cutoff potential to free-atom effective potential.
  Creating atomic-like basis functions for current effective potential.

  Species H                   :

  List of atomic basis orbitals and eigenvalues:
    n    l      energy [Ha]    energy [eV]    outer radius [A]
    1    0        -0.241374        -6.5681       5.372934


  Species O                   :

  List of atomic basis orbitals and eigenvalues:
    n    l      energy [Ha]    energy [eV]    outer radius [A]
    1    0       -18.944147      -515.4965       1.415745
    2    0        -0.883529       -24.0421       5.048305
    2    1        -0.330173        -8.9845       5.301302

  Assembling full basis from fixed parts.
  | Species H :   atomic orbital   1 s accepted.
  | Species H :    hydro orbital   2 s accepted.
  | Species H :    hydro orbital   1 s accepted.
  | Species H :    hydro orbital   2 s accepted.
  | Species H :    hydro orbital   2 p accepted.
  | Species H :    hydro orbital   2 p accepted.
  | Species H :    hydro orbital   3 d accepted.
  | Species O :   atomic orbital   1 s accepted.
  | Species O :    hydro orbital   3 s accepted.
  | Species O :   atomic orbital   2 s accepted.
  | Species O :    hydro orbital   1 s accepted.
  | Species O :    hydro orbital   3 p accepted.
  | Species O :   atomic orbital   2 p accepted.
  | Species O :    hydro orbital   2 p accepted.
  | Species O :    hydro orbital   3 d accepted.
  | Species O :    hydro orbital   3 d accepted.
  | Species O :    hydro orbital   4 f accepted.
  | Species O :    hydro orbital   5 g accepted.
 
  Basis size parameters after reduction:
  | Total number of radial functions:       18
  | Total number of basis functions :      345
 
  Testing on-site integration grid accuracy.
  |  Species  Function  <phi|h_atom|phi> (log., in eV)  <phi|h_atom|phi> (rad., in eV)
           1        1                 -6.5683835025                 -6.5684759159
           1        2                 13.3711789951                 13.3708738703
           1        3                 23.6590910787                 23.6532055418
           1        4                 16.2963827186                 16.1870710655 ***
           1        5                 28.7627214838                 28.7627215090
           1        6                 59.5965249172                 59.5965950857
           1        7                 60.2220506392                 60.2220503827
           2        8               -515.4964576505               -515.4964530710
           2        9                 15.3030791347                 15.3030722972
           2       10                -21.7296094581                -21.7296135470
           2       11                 14.2969371730                 14.2969701621
           2       12                 21.0679693190                 21.0679697493
           2       13                 -2.3833606469                 -2.3833613176
           2       14                 13.7067136422                 13.7066766629
           2       15                 45.8013116808                 45.8013116965
           2       16                 52.2309815402                 52.2309831494
           2       17                 85.4120732416                 85.4120732763
           2       18                142.1019167745                142.1019167817
 * Note: Onsite integrals marked "***" above are less accurate than
 * onsite_accuracy_threshold =    0.03000 eV. Usually, this is harmless.
 * When in doubt, tighten the "radial" and/or "radial_multiplier" flags to check.

  Preparing densities etc. for the partition functions (integrals / Hartree potential).

  Preparations completed.
  max(cpu_time)          :      0.171 s.
  Wall clock time (cpu1) :      0.471 s.
------------------------------------------------------------

------------------------------------------------------------
          Begin self-consistency loop: Initialization.

          Date     :  20150727, Time     :  122519.624
------------------------------------------------------------

  Initializing index lists of integration centers etc. from given atomic structure:
  | Number of centers in hartree potential         :        15
  | Number of centers in hartree multipole         :        15
  | Number of centers in electron density summation:        15
  | Number of centers in basis integrals           :        15
  | Number of centers in integrals                 :        15
  Partitioning the integration grid into batches with parallel hashing+maxmin method.
  | Number of batches:     2061
  | Maximal batch size:     200
  | Minimal batch size:      49
  | Average batch size:      95.444
  | Standard deviation of batch sizes:      29.019

  Integration load balanced across     8 MPI tasks.
  Work distribution over tasks is as follows:
  Task     0 has      24620 integration points.
  Task     1 has      24550 integration points.
  Task     2 has      24628 integration points.
  Task     3 has      24533 integration points.
  Task     4 has      24557 integration points.
  Task     5 has      24601 integration points.
  Task     6 has      24620 integration points.
  Task     7 has      24601 integration points.
  Initializing partition tables, free-atom densities, potentials, etc. across the integration grid (initialize_grid_storage).
  | Net number of integration points:   196710
  | of which are non-zero points    :   196169
  Obtaining max. number of non-zero basis functions in each batch (get_n_compute_maxes).
  | Maximal number of non-zero basis functions:      342 in task     0
  | Maximal number of non-zero basis functions:      342 in task     1
  | Maximal number of non-zero basis functions:      342 in task     2
  | Maximal number of non-zero basis functions:      342 in task     3
  | Maximal number of non-zero basis functions:      342 in task     4
  | Maximal number of non-zero basis functions:      342 in task     5
  | Maximal number of non-zero basis functions:      342 in task     6
  | Maximal number of non-zero basis functions:      342 in task     7
  Integrating Hamiltonian matrix: batch-based integration.
  Time summed over all CPUs for integration: real work        7.355 s, elapsed        7.500 s
  Integrating overlap matrix.
  Time summed over all CPUs for integration: real work        3.966 s, elapsed        4.050 s

  Updating Kohn-Sham eigenvalues, eigenvectors, occupation numbers, and Fermi level.
  Solving generalized eigenproblem
  Updating Kohn-Sham eigenvalues and eigenfunctions.
  Transforming overlap matrix and checking for singularities.
  Overlap matrix is nonsingular:
  | Lowest eigenvalue:  0.285615E-03
  Solving real generalised eigenvalue problem by standard LAPACK (fast)
  Determining occupation numbers for Kohn-Sham eigenstates.
  | Chemical potential (Fermi level) in eV                 : -.39024299E+01
  | Error in electron count due to remaining E_F inaccuracy: 0.00000000E+00
  | Maximum occupation number of highest empty state:  0.00E+00

  Writing Kohn-Sham eigenvalues.

  State    Occupation    Eigenvalue [Ha]    Eigenvalue [eV]
      1       2.00000         -19.064895         -518.78220
      2       2.00000         -19.056822         -518.56250
      3       2.00000         -19.042982         -518.18590
      4       2.00000         -19.032603         -517.90349
      5       2.00000         -19.019419         -517.54473
      6       2.00000          -1.122116          -30.53433
      7       2.00000          -1.109245          -30.18410
      8       2.00000          -1.086564          -29.56692
      9       2.00000          -1.064987          -28.97977
     10       2.00000          -1.043124          -28.38484
     11       2.00000          -0.654118          -17.79946
     12       2.00000          -0.653186          -17.77409
     13       2.00000          -0.609287          -16.57953
     14       2.00000          -0.596929          -16.24326
     15       2.00000          -0.594085          -16.16588
     16       2.00000          -0.528296          -14.37567
     17       2.00000          -0.516081          -14.04329
     18       2.00000          -0.506067          -13.77078
     19       2.00000          -0.491012          -13.36113
     20       2.00000          -0.482299          -13.12401
     21       2.00000          -0.444194          -12.08714
     22       2.00000          -0.440887          -11.99714
     23       2.00000          -0.433252          -11.78939
     24       2.00000          -0.425077          -11.56692
     25       2.00000          -0.409567          -11.14487
     26       0.00000          -0.094938           -2.58339
     27       0.00000          -0.069818           -1.89986
     28       0.00000          -0.052440           -1.42695
     29       0.00000          -0.046136           -1.25541
     30       0.00000          -0.025704           -0.69943
     31       0.00000          -0.013805           -0.37564
     32       0.00000           0.031216            0.84943
     33       0.00000           0.038985            1.06085
     34       0.00000           0.046305            1.26003
     35       0.00000           0.054607            1.48592
     36       0.00000           0.073937            2.01193
     37       0.00000           0.081568            2.21957
     38       0.00000           0.084107            2.28867
     39       0.00000           0.097059            2.64110
     40       0.00000           0.097835            2.66222
     41       0.00000           0.106080            2.88659
     42       0.00000           0.112101            3.05043
     43       0.00000           0.118509            3.22478
     44       0.00000           0.123301            3.35520
     45       0.00000           0.134543            3.66110
     46       0.00000           0.138810            3.77720
     47       0.00000           0.143800            3.91300
     48       0.00000           0.151317            4.11755
     49       0.00000           0.168188            4.57663
     50       0.00000           0.175747            4.78233
     51       0.00000           0.194354            5.28864
     52       0.00000           0.230336            6.26777
     53       0.00000           0.245132            6.67038
     54       0.00000           0.249639            6.79301
     55       0.00000           0.253526            6.89878
     56       0.00000           0.276146            7.51432
     57       0.00000           0.282508            7.68744
     58       0.00000           0.286461            7.79501
     59       0.00000           0.308907            8.40579
     60       0.00000           0.328843            8.94827
     61       0.00000           0.339525            9.23894
     62       0.00000           0.354744            9.65307
     63       0.00000           0.358393            9.75237
     64       0.00000           0.369734           10.06097
     65       0.00000           0.385018           10.47686
     66       0.00000           0.389587           10.60121
     67       0.00000           0.411907           11.20856
     68       0.00000           0.418817           11.39659
     69       0.00000           0.424846           11.56066
     70       0.00000           0.447579           12.17925
     71       0.00000           0.450785           12.26649
     72       0.00000           0.456591           12.42448
     73       0.00000           0.473170           12.87562
     74       0.00000           0.503185           13.69236
     75       0.00000           0.516843           14.06402
     76       0.00000           0.544192           14.80821
     77       0.00000           0.558066           15.18574
     78       0.00000           0.571915           15.56261
     79       0.00000           0.596899           16.24244
     80       0.00000           0.619212           16.84962
     81       0.00000           0.638871           17.38455
     82       0.00000           0.644366           17.53408
     83       0.00000           0.669905           18.22905
     84       0.00000           0.716211           19.48909
     85       0.00000           0.733060           19.94759

  Highest occupied state (VBM) at    -11.14487327 eV
  | Occupation number:      2.00000000

  Lowest unoccupied state (CBM) at    -2.58339396 eV
  | Occupation number:      0.00000000

  Overall HOMO-LUMO gap:      8.56147930 eV.
  Calculating total energy contributions from superposition of free atom densities.

  Total energy components:
  | Sum of eigenvalues            :        -216.85418834 Ha       -5900.90269937 eV
  | XC energy correction          :         -45.57008414 Ha       -1240.02508122 eV
  | XC potential correction       :          58.23141442 Ha        1584.55740774 eV
  | Free-atom electrostatic energy:        -178.89094437 Ha       -4867.87027070 eV
  | Hartree energy correction     :           0.00000000 Ha           0.00000000 eV
  | van der Waals energy corr.    :           0.00000000 Ha           0.00000000 eV
  | Entropy correction            :           0.00000000 Ha           0.00000000 eV
  | ---------------------------
  | Total energy                  :        -383.08380243 Ha      -10424.24064355 eV
  | Total energy, T -> 0          :        -383.08380243 Ha      -10424.24064355 eV  <-- do not rely on this value for anything but (periodic) metals
  | Electronic free energy        :        -383.08380243 Ha      -10424.24064355 eV

  Derived energy quantities:
  | Kinetic energy                :         379.15510599 Ha       10317.33537428 eV
  | Electrostatic energy          :        -716.66882428 Ha      -19501.55093662 eV
  | Energy correction for multipole
  | error in Hartree potential    :           0.00000000 Ha           0.00000000 eV
  | Sum of eigenvalues per atom                           :        -393.39351329 eV
  | Total energy (T->0) per atom                          :        -694.94937624 eV  <-- do not rely on this value for anything but (periodic) metals
  | Electronic free energy per atom                       :        -694.94937624 eV
  Initialize hartree_potential_storage
  Max. number of atoms included in rho_multipole:           15

  End scf initialization - timings             :  max(cpu_time)    wall_clock(cpu1)
  | Time for scf. initialization               :        2.029 s           2.029 s
  | Boundary condition initialization          :        0.000 s           0.001 s
  | Integration                                :        1.447 s           1.446 s
  | Solution of K.-S. eqns.                    :        0.197 s           0.197 s
  | Grid partitioning                          :        0.169 s           0.168 s
  | Preloading free-atom quantities on grid    :        0.014 s           0.013 s
  | Free-atom superposition energy             :        0.065 s           0.065 s
  | Total energy evaluation                    :        0.000 s           0.001 s
------------------------------------------------------------

------------------------------------------------------------
          Begin self-consistency iteration #    1

  Date     :  20150727, Time     :  122521.653
------------------------------------------------------------
  Evaluating new KS density.
  Integration grid: deviation in total charge (<rho> - N_e) =   2.842171E-14
  Pulay mixing of updated and previous charge densities.

  Evaluating partitioned Hartree potential by multipole expansion.
  | Analytical far-field extrapolation by fixed multipoles:
  | Hartree multipole sum: apparent total charge =  -0.214817E-05
  Summing up the Hartree potential.
  Time summed over all CPUs for potential: real work        2.566 s, elapsed        2.581 s
  | RMS charge density error from multipole expansion :   0.162738E-02

  Integrating Hamiltonian matrix: batch-based integration.
  Time summed over all CPUs for integration: real work        7.340 s, elapsed        7.508 s

  Updating Kohn-Sham eigenvalues, eigenvectors, occupation numbers, and Fermi level.
  Solving generalized eigenproblem
  Updating Kohn-Sham eigenvalues and eigenfunctions.
  Solving real generalised eigenvalue problem by standard LAPACK (fast)
  Determining occupation numbers for Kohn-Sham eigenstates.
  | Chemical potential (Fermi level) in eV                 : -.34942488E+01
  | Error in electron count due to remaining E_F inaccuracy: 0.00000000E+00
  | Maximum occupation number of highest empty state:  0.00E+00

  Writing Kohn-Sham eigenvalues.

  State    Occupation    Eigenvalue [Ha]    Eigenvalue [eV]
      1       2.00000         -18.991915         -516.79629
      2       2.00000         -18.977905         -516.41506
      3       2.00000         -18.972217         -516.26030
      4       2.00000         -18.965771         -516.08490
      5       2.00000         -18.930932         -515.13687
      6       2.00000          -1.085825          -29.54681
      7       2.00000          -1.070464          -29.12880
      8       2.00000          -1.051791          -28.62069
      9       2.00000          -1.032433          -28.09393
     10       2.00000          -0.994236          -27.05454
     11       2.00000          -0.621458          -16.91073
     12       2.00000          -0.620112          -16.87411
     13       2.00000          -0.579630          -15.77252
     14       2.00000          -0.567396          -15.43962
     15       2.00000          -0.558877          -15.20781
     16       2.00000          -0.489531          -13.32083
     17       2.00000          -0.478759          -13.02770
     18       2.00000          -0.470474          -12.80226
     19       2.00000          -0.455644          -12.39871
     20       2.00000          -0.440613          -11.98969
     21       2.00000          -0.404479          -11.00642
     22       2.00000          -0.397240          -10.80945
     23       2.00000          -0.396414          -10.78697
     24       2.00000          -0.389984          -10.61201
     25       2.00000          -0.359284           -9.77662
     26       0.00000          -0.086605           -2.35665
     27       0.00000          -0.061970           -1.68629
     28       0.00000          -0.042326           -1.15175
     29       0.00000          -0.038387           -1.04456
     30       0.00000          -0.016932           -0.46075
     31       0.00000          -0.007147           -0.19449
     32       0.00000           0.043051            1.17149
     33       0.00000           0.050220            1.36655
     34       0.00000           0.053328            1.45112
     35       0.00000           0.062156            1.69134
     36       0.00000           0.083778            2.27972
     37       0.00000           0.093850            2.55379
     38       0.00000           0.095479            2.59812
     39       0.00000           0.105001            2.85723
     40       0.00000           0.109473            2.97892
     41       0.00000           0.117590            3.19979
     42       0.00000           0.119582            3.25399
     43       0.00000           0.131154            3.56889
     44       0.00000           0.137239            3.73447
     45       0.00000           0.143984            3.91800
     46       0.00000           0.149317            4.06313
     47       0.00000           0.157127            4.27564
     48       0.00000           0.162499            4.42183
     49       0.00000           0.180065            4.89983
     50       0.00000           0.185206            5.03970
     51       0.00000           0.203663            5.54195
     52       0.00000           0.240941            6.55635
     53       0.00000           0.254106            6.91459
     54       0.00000           0.259761            7.06846
     55       0.00000           0.263874            7.18037
     56       0.00000           0.285031            7.75610
     57       0.00000           0.292997            7.97286
     58       0.00000           0.295010            8.02762
     59       0.00000           0.317407            8.63709
     60       0.00000           0.338190            9.20261
     61       0.00000           0.349249            9.50356
     62       0.00000           0.363776            9.89884
     63       0.00000           0.369494           10.05444
     64       0.00000           0.380233           10.34666
     65       0.00000           0.393807           10.71605
     66       0.00000           0.398505           10.84388
     67       0.00000           0.419786           11.42297
     68       0.00000           0.429389           11.68426
     69       0.00000           0.436109           11.86714
     70       0.00000           0.456878           12.43229
     71       0.00000           0.458554           12.47789
     72       0.00000           0.463957           12.62490
     73       0.00000           0.483323           13.15189
     74       0.00000           0.517719           14.08786
     75       0.00000           0.530381           14.43239
     76       0.00000           0.557812           15.17884
     77       0.00000           0.569523           15.49751
     78       0.00000           0.581940           15.83540
     79       0.00000           0.607172           16.52198
     80       0.00000           0.631607           17.18691
     81       0.00000           0.650755           17.70794
     82       0.00000           0.655743           17.84368
     83       0.00000           0.683039           18.58644
     84       0.00000           0.730041           19.86542
     85       0.00000           0.745375           20.28269

  Highest occupied state (VBM) at     -9.77662163 eV
  | Occupation number:      2.00000000

  Lowest unoccupied state (CBM) at    -2.35664624 eV
  | Occupation number:      0.00000000

  Overall HOMO-LUMO gap:      7.41997538 eV.

  Total energy components:
  | Sum of eigenvalues            :        -214.60676802 Ha       -5839.74728082 eV
  | XC energy correction          :         -45.80866075 Ha       -1246.51708123 eV
  | XC potential correction       :          58.54345594 Ha        1593.04848957 eV
  | Free-atom electrostatic energy:        -178.89094437 Ha       -4867.87027070 eV
  | Hartree energy correction     :          -2.18178771 Ha         -59.36946424 eV
  | van der Waals energy corr.    :           0.00000000 Ha           0.00000000 eV
  | Entropy correction            :           0.00000000 Ha           0.00000000 eV
  | ---------------------------
  | Total energy                  :        -382.94470491 Ha      -10420.45560742 eV
  | Total energy, T -> 0          :        -382.94470491 Ha      -10420.45560742 eV  <-- do not rely on this value for anything but (periodic) metals
  | Electronic free energy        :        -382.94470491 Ha      -10420.45560742 eV

  Derived energy quantities:
  | Kinetic energy                :         380.56789483 Ha       10355.77931457 eV
  | Electrostatic energy          :        -717.70393898 Ha      -19529.71784075 eV
  | Energy correction for multipole
  | error in Hartree potential    :           0.00001411 Ha           0.00038400 eV
  | Sum of eigenvalues per atom                           :        -389.31648539 eV
  | Total energy (T->0) per atom                          :        -694.69704049 eV  <-- do not rely on this value for anything but (periodic) metals
  | Electronic free energy per atom                       :        -694.69704049 eV

  Self-consistency convergence accuracy:
  | Change of charge density      : 0.6568E+00
  | Change of sum of eigenvalues  : 0.6116E+02 eV
  | Change of total energy        : 0.3785E+01 eV

  End self-consistency iteration #     1       :  max(cpu_time)    wall_clock(cpu1)
  | Time for this iteration                    :        1.976 s           1.976 s
  | Charge density update                      :        0.650 s           0.650 s
  | Density mixing                             :        0.003 s           0.003 s
  | Hartree multipole update                   :        0.005 s           0.005 s
  | Hartree multipole summation                :        0.323 s           0.323 s
  | Integration                                :        0.940 s           0.940 s
  | Solution of K.-S. eqns.                    :        0.053 s           0.054 s
  | Total energy evaluation                    :        0.001 s           0.001 s
------------------------------------------------------------

------------------------------------------------------------
          Begin self-consistency iteration #    2

  Date     :  20150727, Time     :  122523.629
------------------------------------------------------------
  Evaluating new KS density.
  Integration grid: deviation in total charge (<rho> - N_e) =   4.973799E-14
  Pulay mixing of updated and previous charge densities.

  Evaluating partitioned Hartree potential by multipole expansion.
  | Analytical far-field extrapolation by fixed multipoles:
  | Hartree multipole sum: apparent total charge =  -0.645182E-05
  Summing up the Hartree potential.
  Time summed over all CPUs for potential: real work        2.566 s, elapsed        2.581 s
  | RMS charge density error from multipole expansion :   0.654018E-02

  Integrating Hamiltonian matrix: batch-based integration.
  Time summed over all CPUs for integration: real work        7.335 s, elapsed        7.496 s

  Updating Kohn-Sham eigenvalues, eigenvectors, occupation numbers, and Fermi level.
  Solving generalized eigenproblem
  Updating Kohn-Sham eigenvalues and eigenfunctions.
  Solving real generalised eigenvalue problem by standard LAPACK (fast)
  Determining occupation numbers for Kohn-Sham eigenstates.
  | Chemical potential (Fermi level) in eV                 : -.24398968E+01
  | Error in electron count due to remaining E_F inaccuracy: 0.00000000E+00
  | Maximum occupation number of highest empty state:  0.00E+00

  Highest occupied state (VBM) at     -6.48495123 eV
  | Occupation number:      2.00000000

  Lowest unoccupied state (CBM) at    -1.86700321 eV
  | Occupation number:      0.00000000

  Overall HOMO-LUMO gap:      4.61794802 eV.

  Total energy components:
  | Sum of eigenvalues            :        -209.24724840 Ha       -5693.90733171 eV
  | XC energy correction          :         -46.40208730 Ha       -1262.66503923 eV
  | XC potential correction       :          59.31884651 Ha        1614.14794038 eV
  | Free-atom electrostatic energy:        -178.89094437 Ha       -4867.87027070 eV
  | Hartree energy correction     :          -7.56172220 Ha        -205.76493038 eV
  | van der Waals energy corr.    :           0.00000000 Ha           0.00000000 eV
  | Entropy correction            :           0.00000000 Ha           0.00000000 eV
  | ---------------------------
  | Total energy                  :        -382.78315576 Ha      -10416.05963163 eV
  | Total energy, T -> 0          :        -382.78315576 Ha      -10416.05963163 eV  <-- do not rely on this value for anything but (periodic) metals
  | Electronic free energy        :        -382.78315576 Ha      -10416.05963163 eV

  Derived energy quantities:
  | Kinetic energy                :         383.43391200 Ha       10433.76760965 eV
  | Electrostatic energy          :        -719.81498046 Ha      -19587.16220205 eV
  | Energy correction for multipole
  | error in Hartree potential    :          -0.00080063 Ha          -0.02178614 eV
  | Sum of eigenvalues per atom                           :        -379.59382211 eV
  | Total energy (T->0) per atom                          :        -694.40397544 eV  <-- do not rely on this value for anything but (periodic) metals
  | Electronic free energy per atom                       :        -694.40397544 eV

  Self-consistency convergence accuracy:
  | Change of charge density      : 0.4972E+00
  | Change of sum of eigenvalues  : 0.1458E+03 eV
  | Change of total energy        : 0.4396E+01 eV

  End self-consistency iteration #     2       :  max(cpu_time)    wall_clock(cpu1)
  | Time for this iteration                    :        1.972 s           1.971 s
  | Charge density update                      :        0.645 s           0.645 s
  | Density mixing                             :        0.006 s           0.006 s
  | Hartree multipole update                   :        0.005 s           0.004 s
  | Hartree multipole summation                :        0.323 s           0.324 s
  | Integration                                :        0.939 s           0.938 s
  | Solution of K.-S. eqns.                    :        0.053 s           0.054 s
  | Total energy evaluation                    :        0.000 s           0.000 s
------------------------------------------------------------

------------------------------------------------------------
          Begin self-consistency iteration #    3

  Date     :  20150727, Time     :  122525.600
------------------------------------------------------------
  Evaluating new KS density.
  Integration grid: deviation in total charge (<rho> - N_e) =   0.000000E+00
  Pulay mixing of updated and previous charge densities.

  Evaluating partitioned Hartree potential by multipole expansion.
  | Analytical far-field extrapolation by fixed multipoles:
  | Hartree multipole sum: apparent total charge =  -0.721429E-05
  Summing up the Hartree potential.
  Time summed over all CPUs for potential: real work        2.566 s, elapsed        2.581 s
  | RMS charge density error from multipole expansion :   0.134125E-01

  Integrating Hamiltonian matrix: batch-based integration.
  Time summed over all CPUs for integration: real work        7.337 s, elapsed        7.491 s

  Updating Kohn-Sham eigenvalues, eigenvectors, occupation numbers, and Fermi level.
  Solving generalized eigenproblem
  Updating Kohn-Sham eigenvalues and eigenfunctions.
  Solving real generalised eigenvalue problem by standard LAPACK (fast)
  Determining occupation numbers for Kohn-Sham eigenstates.
  | Chemical potential (Fermi level) in eV                 : -.22076596E+01
  | Error in electron count due to remaining E_F inaccuracy: 0.00000000E+00
  | Maximum occupation number of highest empty state:  0.00E+00

  Highest occupied state (VBM) at     -6.10637989 eV
  | Occupation number:      2.00000000

  Lowest unoccupied state (CBM) at    -1.80568020 eV
  | Occupation number:      0.00000000

  Overall HOMO-LUMO gap:      4.30069969 eV.

  Total energy components:
  | Sum of eigenvalues            :        -209.26368712 Ha       -5694.35465213 eV
  | XC energy correction          :         -46.39763741 Ha       -1262.54395135 eV
  | XC potential correction       :          59.30775300 Ha        1613.84607080 eV
  | Free-atom electrostatic energy:        -178.89094437 Ha       -4867.87027070 eV
  | Hartree energy correction     :          -7.53242681 Ha        -204.96776203 eV
  | van der Waals energy corr.    :           0.00000000 Ha           0.00000000 eV
  | Entropy correction            :           0.00000000 Ha           0.00000000 eV
  | ---------------------------
  | Total energy                  :        -382.77694270 Ha      -10415.89056541 eV
  | Total energy, T -> 0          :        -382.77694270 Ha      -10415.89056541 eV  <-- do not rely on this value for anything but (periodic) metals
  | Electronic free energy        :        -382.77694270 Ha      -10415.89056541 eV

  Derived energy quantities:
  | Kinetic energy                :         381.44453856 Ha       10379.63400410 eV
  | Electrostatic energy          :        -717.82384385 Ha      -19532.98061816 eV
  | Energy correction for multipole
  | error in Hartree potential    :          -0.00577405 Ha          -0.15711976 eV
  | Sum of eigenvalues per atom                           :        -379.62364348 eV
  | Total energy (T->0) per atom                          :        -694.39270436 eV  <-- do not rely on this value for anything but (periodic) metals
  | Electronic free energy per atom                       :        -694.39270436 eV

  Self-consistency convergence accuracy:
  | Change of charge density      : 0.2461E+00
  | Change of sum of eigenvalues  : -.4473E+00 eV
  | Change of total energy        : 0.1691E+00 eV

  End self-consistency iteration #     3       :  max(cpu_time)    wall_clock(cpu1)
  | Time for this iteration                    :        1.966 s           1.966 s
  | Charge density update                      :        0.639 s           0.640 s
  | Density mixing                             :        0.007 s           0.007 s
  | Hartree multipole update                   :        0.005 s           0.004 s
  | Hartree multipole summation                :        0.323 s           0.324 s
  | Integration                                :        0.937 s           0.938 s
  | Solution of K.-S. eqns.                    :        0.054 s           0.053 s
  | Total energy evaluation                    :        0.000 s           0.000 s
------------------------------------------------------------

------------------------------------------------------------
          Begin self-consistency iteration #    4

  Date     :  20150727, Time     :  122527.566
------------------------------------------------------------
  Evaluating new KS density.
  Integration grid: deviation in total charge (<rho> - N_e) =  -7.105427E-15
  Pulay mixing of updated and previous charge densities.

  Evaluating partitioned Hartree potential by multipole expansion.
  | Analytical far-field extrapolation by fixed multipoles:
  | Hartree multipole sum: apparent total charge =  -0.854249E-05
  Summing up the Hartree potential.
  Time summed over all CPUs for potential: real work        2.565 s, elapsed        2.580 s
  | RMS charge density error from multipole expansion :   0.166873E-01

  Integrating Hamiltonian matrix: batch-based integration.
  Time summed over all CPUs for integration: real work        7.327 s, elapsed        7.474 s

  Updating Kohn-Sham eigenvalues, eigenvectors, occupation numbers, and Fermi level.
  Solving generalized eigenproblem
  Updating Kohn-Sham eigenvalues and eigenfunctions.
  Solving real generalised eigenvalue problem by standard LAPACK (fast)
  Determining occupation numbers for Kohn-Sham eigenstates.
  | Chemical potential (Fermi level) in eV                 : -.18541832E+01
  | Error in electron count due to remaining E_F inaccuracy: 0.00000000E+00
  | Maximum occupation number of highest empty state:  0.00E+00

  Highest occupied state (VBM) at     -5.10509456 eV
  | Occupation number:      2.00000000

  Lowest unoccupied state (CBM) at    -1.66746073 eV
  | Occupation number:      0.00000000

  Overall HOMO-LUMO gap:      3.43763383 eV.

  Total energy components:
  | Sum of eigenvalues            :        -207.86929821 Ha       -5656.41139922 eV
  | XC energy correction          :         -46.56784248 Ha       -1267.17546708 eV
  | XC potential correction       :          59.52922436 Ha        1619.87261318 eV
  | Free-atom electrostatic energy:        -178.89094437 Ha       -4867.87027070 eV
  | Hartree energy correction     :          -8.96914061 Ha        -244.06273387 eV
  | van der Waals energy corr.    :           0.00000000 Ha           0.00000000 eV
  | Entropy correction            :           0.00000000 Ha           0.00000000 eV
  | ---------------------------
  | Total energy                  :        -382.76800130 Ha      -10415.64725769 eV
  | Total energy, T -> 0          :        -382.76800130 Ha      -10415.64725769 eV  <-- do not rely on this value for anything but (periodic) metals
  | Electronic free energy        :        -382.76800130 Ha      -10415.64725769 eV

  Derived energy quantities:
  | Kinetic energy                :         381.60299344 Ha       10383.94578078 eV
  | Electrostatic energy          :        -717.80315226 Ha      -19532.41757139 eV
  | Energy correction for multipole
  | error in Hartree potential    :          -0.00749642 Ha          -0.20398800 eV
  | Sum of eigenvalues per atom                           :        -377.09409328 eV
  | Total energy (T->0) per atom                          :        -694.37648385 eV  <-- do not rely on this value for anything but (periodic) metals
  | Electronic free energy per atom                       :        -694.37648385 eV

  Self-consistency convergence accuracy:
  | Change of charge density      : 0.1241E+00
  | Change of sum of eigenvalues  : 0.3794E+02 eV
  | Change of total energy        : 0.2433E+00 eV

  End self-consistency iteration #     4       :  max(cpu_time)    wall_clock(cpu1)
  | Time for this iteration                    :        1.967 s           1.967 s
  | Charge density update                      :        0.641 s           0.641 s
  | Density mixing                             :        0.008 s           0.008 s
  | Hartree multipole update                   :        0.005 s           0.005 s
  | Hartree multipole summation                :        0.323 s           0.323 s
  | Integration                                :        0.936 s           0.936 s
  | Solution of K.-S. eqns.                    :        0.054 s           0.053 s
  | Total energy evaluation                    :        0.000 s           0.000 s
------------------------------------------------------------

------------------------------------------------------------
          Begin self-consistency iteration #    5

  Date     :  20150727, Time     :  122529.533
------------------------------------------------------------
  Evaluating new KS density.
  Integration grid: deviation in total charge (<rho> - N_e) =   7.105427E-15
  Pulay mixing of updated and previous charge densities.

  Evaluating partitioned Hartree potential by multipole expansion.
  | Analytical far-field extrapolation by fixed multipoles:
  | Hartree multipole sum: apparent total charge =  -0.874896E-05
  Summing up the Hartree potential.
  Time summed over all CPUs for potential: real work        2.565 s, elapsed        2.581 s
  | RMS charge density error from multipole expansion :   0.175579E-01

  Integrating Hamiltonian matrix: batch-based integration.
  Time summed over all CPUs for integration: real work        7.334 s, elapsed        7.477 s

  Updating Kohn-Sham eigenvalues, eigenvectors, occupation numbers, and Fermi level.
  Solving generalized eigenproblem
  Updating Kohn-Sham eigenvalues and eigenfunctions.
  Solving real generalised eigenvalue problem by standard LAPACK (fast)
  Determining occupation numbers for Kohn-Sham eigenstates.
  | Chemical potential (Fermi level) in eV                 : -.18003193E+01
  | Error in electron count due to remaining E_F inaccuracy: 0.00000000E+00
  | Maximum occupation number of highest empty state:  0.00E+00

  Highest occupied state (VBM) at     -4.84867253 eV
  | Occupation number:      2.00000000

  Lowest unoccupied state (CBM) at    -1.63425786 eV
  | Occupation number:      0.00000000

  Overall HOMO-LUMO gap:      3.21441466 eV.

  Total energy components:
  | Sum of eigenvalues            :        -207.69144583 Ha       -5651.57178977 eV
  | XC energy correction          :         -46.59401242 Ha       -1267.88758747 eV
  | XC potential correction       :          59.56285057 Ha        1620.78762872 eV
  | Free-atom electrostatic energy:        -178.89094437 Ha       -4867.87027070 eV
  | Hartree energy correction     :          -9.15410290 Ha        -249.09581373 eV
  | van der Waals energy corr.    :           0.00000000 Ha           0.00000000 eV
  | Entropy correction            :           0.00000000 Ha           0.00000000 eV
  | ---------------------------
  | Total energy                  :        -382.76765495 Ha      -10415.63783294 eV
  | Total energy, T -> 0          :        -382.76765495 Ha      -10415.63783294 eV  <-- do not rely on this value for anything but (periodic) metals
  | Electronic free energy        :        -382.76765495 Ha      -10415.63783294 eV

  Derived energy quantities:
  | Kinetic energy                :         381.60718025 Ha       10384.05970976 eV
  | Electrostatic energy          :        -717.78082277 Ha      -19531.80995524 eV
  | Energy correction for multipole
  | error in Hartree potential    :          -0.00800840 Ha          -0.21791974 eV
  | Sum of eigenvalues per atom                           :        -376.77145265 eV
  | Total energy (T->0) per atom                          :        -694.37585553 eV  <-- do not rely on this value for anything but (periodic) metals
  | Electronic free energy per atom                       :        -694.37585553 eV

  Self-consistency convergence accuracy:
  | Change of charge density      : 0.3595E-01
  | Change of sum of eigenvalues  : 0.4840E+01 eV
  | Change of total energy        : 0.9425E-02 eV

  End self-consistency iteration #     5       :  max(cpu_time)    wall_clock(cpu1)
  | Time for this iteration                    :        1.966 s           1.966 s
  | Charge density update                      :        0.638 s           0.638 s
  | Density mixing                             :        0.009 s           0.010 s
  | Hartree multipole update                   :        0.005 s           0.004 s
  | Hartree multipole summation                :        0.323 s           0.323 s
  | Integration                                :        0.936 s           0.936 s
  | Solution of K.-S. eqns.                    :        0.053 s           0.053 s
  | Total energy evaluation                    :        0.000 s           0.000 s
------------------------------------------------------------

------------------------------------------------------------
          Begin self-consistency iteration #    6

  Date     :  20150727, Time     :  122531.499
------------------------------------------------------------
  Evaluating new KS density.
  Integration grid: deviation in total charge (<rho> - N_e) =   7.105427E-15
  Pulay mixing of updated and previous charge densities.

  Evaluating partitioned Hartree potential by multipole expansion.
  | Analytical far-field extrapolation by fixed multipoles:
  | Hartree multipole sum: apparent total charge =  -0.878739E-05
  Summing up the Hartree potential.
  Time summed over all CPUs for potential: real work        2.565 s, elapsed        2.580 s
  | RMS charge density error from multipole expansion :   0.177622E-01

  Integrating Hamiltonian matrix: batch-based integration.
  Time summed over all CPUs for integration: real work        7.338 s, elapsed        7.487 s

  Updating Kohn-Sham eigenvalues, eigenvectors, occupation numbers, and Fermi level.
  Solving generalized eigenproblem
  Updating Kohn-Sham eigenvalues and eigenfunctions.
  Solving real generalised eigenvalue problem by standard LAPACK (fast)
  Determining occupation numbers for Kohn-Sham eigenstates.
  | Chemical potential (Fermi level) in eV                 : -.17900566E+01
  | Error in electron count due to remaining E_F inaccuracy: 0.00000000E+00
  | Maximum occupation number of highest empty state:  0.00E+00

  Highest occupied state (VBM) at     -4.83074157 eV
  | Occupation number:      2.00000000

  Lowest unoccupied state (CBM) at    -1.62968531 eV
  | Occupation number:      0.00000000

  Overall HOMO-LUMO gap:      3.20105626 eV.

  Total energy components:
  | Sum of eigenvalues            :        -207.65764151 Ha       -5650.65192736 eV
  | XC energy correction          :         -46.59906003 Ha       -1268.02493993 eV
  | XC potential correction       :          59.56929066 Ha        1620.96287258 eV
  | Free-atom electrostatic energy:        -178.89094437 Ha       -4867.87027070 eV
  | Hartree energy correction     :          -9.18934268 Ha        -250.05473685 eV
  | van der Waals energy corr.    :           0.00000000 Ha           0.00000000 eV
  | Entropy correction            :           0.00000000 Ha           0.00000000 eV
  | ---------------------------
  | Total energy                  :        -382.76769792 Ha      -10415.63900227 eV
  | Total energy, T -> 0          :        -382.76769792 Ha      -10415.63900227 eV  <-- do not rely on this value for anything but (periodic) metals
  | Electronic free energy        :        -382.76769792 Ha      -10415.63900227 eV

  Derived energy quantities:
  | Kinetic energy                :         381.60391016 Ha       10383.97072613 eV
  | Electrostatic energy          :        -717.77254805 Ha      -19531.58478847 eV
  | Energy correction for multipole
  | error in Hartree potential    :          -0.00813281 Ha          -0.22130509 eV
  | Sum of eigenvalues per atom                           :        -376.71012849 eV
  | Total energy (T->0) per atom                          :        -694.37593348 eV  <-- do not rely on this value for anything but (periodic) metals
  | Electronic free energy per atom                       :        -694.37593348 eV

  Self-consistency convergence accuracy:
  | Change of charge density      : 0.1005E-01
  | Change of sum of eigenvalues  : 0.9199E+00 eV
  | Change of total energy        : -.1169E-02 eV

  End self-consistency iteration #     6       :  max(cpu_time)    wall_clock(cpu1)
  | Time for this iteration                    :        1.969 s           1.968 s
  | Charge density update                      :        0.638 s           0.638 s
  | Density mixing                             :        0.011 s           0.011 s
  | Hartree multipole update                   :        0.005 s           0.004 s
  | Hartree multipole summation                :        0.323 s           0.324 s
  | Integration                                :        0.938 s           0.937 s
  | Solution of K.-S. eqns.                    :        0.054 s           0.054 s
  | Total energy evaluation                    :        0.000 s           0.000 s
------------------------------------------------------------

------------------------------------------------------------
          Begin self-consistency iteration #    7

  Date     :  20150727, Time     :  122533.467
------------------------------------------------------------
  Evaluating new KS density.
  Integration grid: deviation in total charge (<rho> - N_e) =   0.000000E+00
  Pulay mixing of updated and previous charge densities.

  Evaluating partitioned Hartree potential by multipole expansion.
  | Analytical far-field extrapolation by fixed multipoles:
  | Hartree multipole sum: apparent total charge =  -0.864904E-05
  Summing up the Hartree potential.
  Time summed over all CPUs for potential: real work        2.565 s, elapsed        2.580 s
  | RMS charge density error from multipole expansion :   0.177325E-01

  Integrating Hamiltonian matrix: batch-based integration.
  Time summed over all CPUs for integration: real work        7.324 s, elapsed        7.467 s

  Updating Kohn-Sham eigenvalues, eigenvectors, occupation numbers, and Fermi level.
  Solving generalized eigenproblem
  Updating Kohn-Sham eigenvalues and eigenfunctions.
  Solving real generalised eigenvalue problem by standard LAPACK (fast)
  Determining occupation numbers for Kohn-Sham eigenstates.
  | Chemical potential (Fermi level) in eV                 : -.18331006E+01
  | Error in electron count due to remaining E_F inaccuracy: 0.00000000E+00
  | Maximum occupation number of highest empty state:  0.00E+00

  Highest occupied state (VBM) at     -4.96534357 eV
  | Occupation number:      2.00000000

  Lowest unoccupied state (CBM) at    -1.64988405 eV
  | Occupation number:      0.00000000

  Overall HOMO-LUMO gap:      3.31545952 eV.

  Total energy components:
  | Sum of eigenvalues            :        -207.80537650 Ha       -5654.67200100 eV
  | XC energy correction          :         -46.58365427 Ha       -1267.60572764 eV
  | XC potential correction       :          59.54866975 Ha        1620.40174904 eV
  | Free-atom electrostatic energy:        -178.89094437 Ha       -4867.87027070 eV
  | Hartree energy correction     :          -9.03630273 Ha        -245.89030814 eV
  | van der Waals energy corr.    :           0.00000000 Ha           0.00000000 eV
  | Entropy correction            :           0.00000000 Ha           0.00000000 eV
  | ---------------------------
  | Total energy                  :        -382.76760811 Ha      -10415.63655845 eV
  | Total energy, T -> 0          :        -382.76760811 Ha      -10415.63655845 eV  <-- do not rely on this value for anything but (periodic) metals
  | Electronic free energy        :        -382.76760811 Ha      -10415.63655845 eV

  Derived energy quantities:
  | Kinetic energy                :         381.64973107 Ha       10385.21757651 eV
  | Electrostatic energy          :        -717.83368492 Ha      -19533.24840731 eV
  | Energy correction for multipole
  | error in Hartree potential    :          -0.00812969 Ha          -0.22122009 eV
  | Sum of eigenvalues per atom                           :        -376.97813340 eV
  | Total energy (T->0) per atom                          :        -694.37577056 eV  <-- do not rely on this value for anything but (periodic) metals
  | Electronic free energy per atom                       :        -694.37577056 eV

  Self-consistency convergence accuracy:
  | Change of charge density      : 0.9936E-02
  | Change of sum of eigenvalues  : -.4020E+01 eV
  | Change of total energy        : 0.2444E-02 eV

  End self-consistency iteration #     7       :  max(cpu_time)    wall_clock(cpu1)
  | Time for this iteration                    :        1.968 s           1.968 s
  | Charge density update                      :        0.638 s           0.638 s
  | Density mixing                             :        0.013 s           0.013 s
  | Hartree multipole update                   :        0.004 s           0.004 s
  | Hartree multipole summation                :        0.324 s           0.324 s
  | Integration                                :        0.935 s           0.935 s
  | Solution of K.-S. eqns.                    :        0.054 s           0.053 s
  | Total energy evaluation                    :        0.000 s           0.000 s
------------------------------------------------------------

------------------------------------------------------------
          Begin self-consistency iteration #    8

  Date     :  20150727, Time     :  122535.435
------------------------------------------------------------
  Evaluating new KS density.
  Integration grid: deviation in total charge (<rho> - N_e) =   0.000000E+00
  Pulay mixing of updated and previous charge densities.

  Evaluating partitioned Hartree potential by multipole expansion.
  | Analytical far-field extrapolation by fixed multipoles:
  | Hartree multipole sum: apparent total charge =  -0.866416E-05
  Summing up the Hartree potential.
  Time summed over all CPUs for potential: real work        2.565 s, elapsed        2.580 s
  | RMS charge density error from multipole expansion :   0.178049E-01

  Integrating Hamiltonian matrix: batch-based integration.
  Time summed over all CPUs for integration: real work        7.330 s, elapsed        7.478 s

  Updating Kohn-Sham eigenvalues, eigenvectors, occupation numbers, and Fermi level.
  Solving generalized eigenproblem
  Updating Kohn-Sham eigenvalues and eigenfunctions.
  Solving real generalised eigenvalue problem by standard LAPACK (fast)
  Determining occupation numbers for Kohn-Sham eigenstates.
  | Chemical potential (Fermi level) in eV                 : -.18277773E+01
  | Error in electron count due to remaining E_F inaccuracy: 0.00000000E+00
  | Maximum occupation number of highest empty state:  0.00E+00

  Highest occupied state (VBM) at     -4.93549928 eV
  | Occupation number:      2.00000000

  Lowest unoccupied state (CBM) at    -1.64826149 eV
  | Occupation number:      0.00000000

  Overall HOMO-LUMO gap:      3.28723779 eV.

  Total energy components:
  | Sum of eigenvalues            :        -207.78420798 Ha       -5654.09597642 eV
  | XC energy correction          :         -46.58621430 Ha       -1267.67538973 eV
  | XC potential correction       :          59.55197260 Ha        1620.49162415 eV
  | Free-atom electrostatic energy:        -178.89094437 Ha       -4867.87027070 eV
  | Hartree energy correction     :          -9.05821477 Ha        -246.48656507 eV
  | van der Waals energy corr.    :           0.00000000 Ha           0.00000000 eV
  | Entropy correction            :           0.00000000 Ha           0.00000000 eV
  | ---------------------------
  | Total energy                  :        -382.76760882 Ha      -10415.63657777 eV
  | Total energy, T -> 0          :        -382.76760882 Ha      -10415.63657777 eV  <-- do not rely on this value for anything but (periodic) metals
  | Electronic free energy        :        -382.76760882 Ha      -10415.63657777 eV

  Derived energy quantities:
  | Kinetic energy                :         381.65245403 Ha       10385.29167190 eV
  | Electrostatic energy          :        -717.83384855 Ha      -19533.25285994 eV
  | Energy correction for multipole
  | error in Hartree potential    :          -0.00818122 Ha          -0.22262234 eV
  | Sum of eigenvalues per atom                           :        -376.93973176 eV
  | Total energy (T->0) per atom                          :        -694.37577185 eV  <-- do not rely on this value for anything but (periodic) metals
  | Electronic free energy per atom                       :        -694.37577185 eV

  Self-consistency convergence accuracy:
  | Change of charge density      : 0.2360E-02
  | Change of sum of eigenvalues  : 0.5760E+00 eV
  | Change of total energy        : -.1932E-04 eV

  End self-consistency iteration #     8       :  max(cpu_time)    wall_clock(cpu1)
  | Time for this iteration                    :        1.972 s           1.972 s
  | Charge density update                      :        0.640 s           0.639 s
  | Density mixing                             :        0.014 s           0.013 s
  | Hartree multipole update                   :        0.004 s           0.005 s
  | Hartree multipole summation                :        0.324 s           0.323 s
  | Integration                                :        0.936 s           0.937 s
  | Solution of K.-S. eqns.                    :        0.054 s           0.053 s
  | Total energy evaluation                    :        0.000 s           0.000 s
------------------------------------------------------------

------------------------------------------------------------
          Begin self-consistency iteration #    9

  Date     :  20150727, Time     :  122537.407
------------------------------------------------------------
  Evaluating new KS density.
  Integration grid: deviation in total charge (<rho> - N_e) =  -1.421085E-14
  Pulay mixing of updated and previous charge densities.

  Evaluating partitioned Hartree potential by multipole expansion.
  | Analytical far-field extrapolation by fixed multipoles:
  | Hartree multipole sum: apparent total charge =  -0.866052E-05
  Summing up the Hartree potential.
  Time summed over all CPUs for potential: real work        2.565 s, elapsed        2.580 s
  | RMS charge density error from multipole expansion :   0.178014E-01

  Integrating Hamiltonian matrix: batch-based integration.
  Time summed over all CPUs for integration: real work        7.328 s, elapsed        7.466 s

  Updating Kohn-Sham eigenvalues, eigenvectors, occupation numbers, and Fermi level.
  Solving generalized eigenproblem
  Updating Kohn-Sham eigenvalues and eigenfunctions.
  Solving real generalised eigenvalue problem by standard LAPACK (fast)
  Determining occupation numbers for Kohn-Sham eigenstates.
  | Chemical potential (Fermi level) in eV                 : -.18283433E+01
  | Error in electron count due to remaining E_F inaccuracy: 0.00000000E+00
  | Maximum occupation number of highest empty state:  0.00E+00

  Highest occupied state (VBM) at     -4.93989849 eV
  | Occupation number:      2.00000000

  Lowest unoccupied state (CBM) at    -1.64866988 eV
  | Occupation number:      0.00000000

  Overall HOMO-LUMO gap:      3.29122860 eV.

  Total energy components:
  | Sum of eigenvalues            :        -207.78524838 Ha       -5654.12428708 eV
  | XC energy correction          :         -46.58605716 Ha       -1267.67111370 eV
  | XC potential correction       :          59.55175927 Ha        1620.48581923 eV
  | Free-atom electrostatic energy:        -178.89094437 Ha       -4867.87027070 eV
  | Hartree energy correction     :          -9.05711739 Ha        -246.45670377 eV
  | van der Waals energy corr.    :           0.00000000 Ha           0.00000000 eV
  | Entropy correction            :           0.00000000 Ha           0.00000000 eV
  | ---------------------------
  | Total energy                  :        -382.76760802 Ha      -10415.63655602 eV
  | Total energy, T -> 0          :        -382.76760802 Ha      -10415.63655602 eV  <-- do not rely on this value for anything but (periodic) metals
  | Electronic free energy        :        -382.76760802 Ha      -10415.63655602 eV

  Derived energy quantities:
  | Kinetic energy                :         381.65560650 Ha       10385.37745516 eV
  | Electrostatic energy          :        -717.83715737 Ha      -19533.34289747 eV
  | Energy correction for multipole
[...]
   ----------------------------------------------------------------
   Total forces(   4)            : -.562425E-01 0.290013E+00 0.211072E+01
  atom #    5
   Hellmann-Feynman + Multipole  : -.122889E+00 -.728406E-01 0.588486E-01
   Pulay + GGA                   : 0.382199E-01 0.822362E-01 0.286485E-02
   Van der Waals               : 0.610711E-03 0.156109E-04 0.190137E-02
   ----------------------------------------------------------------
   Total forces(   5)            : -.840586E-01 0.941123E-02 0.636148E-01
  atom #    6
   Hellmann-Feynman + Multipole  : -.269094E+00 0.288262E+00 -.223833E+01
   Pulay + GGA                   : -.360649E-01 0.381158E-01 -.121594E+00
   Van der Waals               : 0.239538E-02 0.227174E-02 0.298941E-02
   ----------------------------------------------------------------
   Total forces(   6)            : -.302764E+00 0.328650E+00 -.235693E+01
  atom #    7
   Hellmann-Feynman + Multipole  : 0.396064E+01 -.915534E+01 -.905414E+01
   Pulay + GGA                   : -.552674E+01 0.106528E+02 0.108826E+02
   Van der Waals               : -.313283E-03 0.186958E-02 -.903957E-02
   ----------------------------------------------------------------
   Total forces(   7)            : -.156641E+01 0.149933E+01 0.181941E+01
  atom #    8
   Hellmann-Feynman + Multipole  : -.439155E+00 0.272732E+00 -.226279E+01
   Pulay + GGA                   : 0.738602E-02 0.904242E-03 0.131259E+00
   Van der Waals               : 0.846562E-03 0.641797E-03 -.201369E-02
   ----------------------------------------------------------------
   Total forces(   8)            : -.430923E+00 0.274278E+00 -.213354E+01
  atom #    9
   Hellmann-Feynman + Multipole  : 0.179480E+01 -.192513E+01 0.547597E+00
   Pulay + GGA                   : -.905104E-01 0.914053E-01 -.150759E-02
   Van der Waals               : -.449738E-03 0.140215E-02 -.492763E-02
   ----------------------------------------------------------------
   Total forces(   9)            : 0.170384E+01 -.183232E+01 0.541161E+00
  atom #   10
   Hellmann-Feynman + Multipole  : -.730094E+00 -.472189E+01 -.144893E+02
   Pulay + GGA                   : 0.219706E+01 0.563410E+01 0.122895E+02
   Van der Waals               : -.156945E-02 -.440323E-02 -.533750E-02
   ----------------------------------------------------------------
   Total forces(  10)            : 0.146540E+01 0.907810E+00 -.220510E+01
  atom #   11
   Hellmann-Feynman + Multipole  : -.449214E+00 -.323164E+00 0.202406E+00
   Pulay + GGA                   : 0.961195E-01 0.560461E-01 0.515562E-01
   Van der Waals               : -.457193E-02 -.131931E-02 0.484752E-03
   ----------------------------------------------------------------
   Total forces(  11)            : -.357666E+00 -.268438E+00 0.254447E+00
  atom #   12
   Hellmann-Feynman + Multipole  : -.771341E+00 -.510426E+00 0.158569E+01
   Pulay + GGA                   : -.354780E-01 -.140738E-01 0.704356E-01
   Van der Waals               : 0.709254E-03 -.340890E-02 -.422065E-02
   ----------------------------------------------------------------
   Total forces(  12)            : -.806109E+00 -.527909E+00 0.165191E+01
  atom #   13
   Hellmann-Feynman + Multipole  : -.122668E+02 -.324669E+01 0.252360E+01
   Pulay + GGA                   : 0.129555E+02 0.502015E+01 -.344496E+01
   Van der Waals               : -.200360E-02 -.374897E-02 0.126219E-02
   ----------------------------------------------------------------
   Total forces(  13)            : 0.686762E+00 0.176971E+01 -.920101E+00
  atom #   14
   Hellmann-Feynman + Multipole  : 0.612754E-01 -.384435E+00 0.276729E+00
   Pulay + GGA                   : 0.819103E-01 -.242189E-01 0.244839E-01
   Van der Waals               : -.396354E-02 -.527804E-02 0.367322E-03
   ----------------------------------------------------------------
   Total forces(  14)            : 0.139222E+00 -.413932E+00 0.301580E+00
  atom #   15
   Hellmann-Feynman + Multipole  : -.819739E+00 -.150546E+01 0.697888E+00
   Pulay + GGA                   : 0.421268E-01 0.105864E+00 -.502734E-01
   Van der Waals               : 0.156492E-02 -.445710E-02 0.238145E-02
   ----------------------------------------------------------------
   Total forces(  15)            : -.776047E+00 -.140406E+01 0.649996E+00
  Timings for vdw_correction_hirshfeld (Tkatchenko-Scheffler 2009):
  | CPU time:        5.353 s, Wall clock time:        5.353 s.
  Removing unitary transformations (pure translations, rotations) from forces on atoms.
  Atomic forces before filtering:
  | Net force on center of mass :  0.835802E-02 -.393730E-02 0.506476E-02 eV/A
  | Net torque on center of mass:  -.174432E-01 -.125924E-02 -.191038E-02 eV
  Atomic forces after filtering:
  | Net force on center of mass :  -.115964E-14 -.178406E-15 0.115964E-14 eV/A
  | Net torque on center of mass:  -.188817E-15 0.116879E-14 -.377634E-15 eV
 
  Energy and forces in a compact form:
  | Total energy uncorrected      :         -0.104157068682151E+05 eV
  | Total energy corrected        :         -0.104157068682151E+05 eV  <-- do not rely on this value for anything but (periodic) metals
  | Electronic free energy        :         -0.104157068682151E+05 eV
  Total atomic forces (unitary forces cleaned) [eV/Ang]:
  |   1          0.828358244307926E+00          0.239208453261945E+01         -0.780399818747379E+00
  |   2          0.165196766187618E+01         -0.258661977139413E+01          0.110932578221666E+01
  |   3         -0.208801672468379E+01         -0.440249030014773E+00         -0.103572539478430E+00
  |   4         -0.568322207264046E-01          0.290578825745613E+00          0.211035962637798E+01
  |   5         -0.847345367570694E-01          0.994499081029331E-02          0.634378303996057E-01
  |   6         -0.303403623538760E+00          0.329427431793899E+00         -0.235725145699333E+01
  |   7         -0.156681462290280E+01          0.149894020066922E+01          0.181894932988186E+01
  |   8         -0.431280625120132E+00          0.273645909256777E+00         -0.213401885343507E+01
  |   9          0.170334474559918E+01         -0.183276580093491E+01          0.540914006785202E+00
  |  10          0.146482813869972E+01          0.908086553459148E+00         -0.220541958907859E+01
  |  11         -0.358288960187002E+00         -0.268151636926324E+00          0.254235271557793E+00
  |  12         -0.806617817397322E+00         -0.527879868192924E+00          0.165154123936097E+01
  |  13          0.685967508873601E+00          0.177006404874180E+01         -0.919985378127260E+00
  |  14          0.138487198285183E+00         -0.413553372745744E+00          0.301568379979871E+00
  |  15         -0.776964366328503E+00         -0.140355301288740E+01          0.650316169300115E+00
 
  ------------------------------------ 
  Start decomposition of the XC Energy 
  ------------------------------------ 
  Hartree-Fock part   :          0.000000000 Ha              0.000000000 eV
  ------------------------------------ 
  X Energy            :        -44.948263355 Ha          -1223.104476761 eV
  C Energy GGA        :         -1.637308907 Ha            -44.553442222 eV
  Total XC Energy     :        -46.585572262 Ha          -1267.657918984 eV
  LDA X and C from self-consistent density 
  X Energy LDA        :        -40.510351716 Ha          -1102.342756775 eV
  C Energy LDA        :         -3.299879406 Ha            -89.794287309 eV
  ------------------------------------ 
  End decomposition of the XC Energy 
  ------------------------------------ 
  Performing Hirshfeld analysis of fragment charges and moments.
  ----------------------------------------------------------------------
  | Atom     1: O
  |   Hirshfeld charge        :     -0.37906493
  |   Free atom volume        :     23.95238533
  |   Hirshfeld volume        :     24.36531431
  |   Hirshfeld dipole vector :      0.02383521       0.07187595      -0.01357914
  |   Hirshfeld dipole moment :      0.07693284
  |   Hirshfeld second moments:      0.01467418      -0.01790784       0.02579378
  |                                 -0.01790784      -0.06945643      -0.02012502
  |                                  0.02579378      -0.02012502      -0.11009025
  ----------------------------------------------------------------------
  | Atom     2: H
  |   Hirshfeld charge        :      0.06831479
  |   Free atom volume        :     10.44207651
  |   Hirshfeld volume        :      8.52057986
  |   Hirshfeld dipole vector :     -0.02062012       0.03700726      -0.01474568
  |   Hirshfeld dipole moment :      0.04485713
  |   Hirshfeld second moments:      0.07123721       0.02990131      -0.00110951
  |                                  0.02990131       0.02370095       0.01441403
  |                                 -0.00110951       0.01441403       0.05948519
  ----------------------------------------------------------------------
  | Atom     3: H
  |   Hirshfeld charge        :      0.09672987
  |   Free atom volume        :     10.44207651
  |   Hirshfeld volume        :      7.88909229
  |   Hirshfeld dipole vector :      0.11204852       0.02778926       0.00686812
  |   Hirshfeld dipole moment :      0.11564724
  |   Hirshfeld second moments:      0.08409616      -0.01864616       0.00182203
  |                                 -0.01864616       0.07776896      -0.01373456
  |                                  0.00182203      -0.01373456       0.06389124
  ----------------------------------------------------------------------
  | Atom     4: O
  |   Hirshfeld charge        :     -0.20296796
  |   Free atom volume        :     23.95238533
  |   Hirshfeld volume        :     20.46024940
  |   Hirshfeld dipole vector :      0.03214005      -0.00728690      -0.01520011
  |   Hirshfeld dipole moment :      0.03629222
  |   Hirshfeld second moments:      0.03525979       0.01004932       0.02640242
  |                                  0.01004932       0.07572568       0.00454795
  |                                  0.02640242       0.00454795       0.09930254
  ----------------------------------------------------------------------
  | Atom     5: H
  |   Hirshfeld charge        :      0.11647177
  |   Free atom volume        :     10.44207651
  |   Hirshfeld volume        :      7.34910018
  |   Hirshfeld dipole vector :      0.02654372       0.03663877       0.00658429
  |   Hirshfeld dipole moment :      0.04572003
  |   Hirshfeld second moments:      0.08092154      -0.02156193      -0.00720162
  |                                 -0.02156193       0.06809717      -0.02922772
  |                                 -0.00720162      -0.02922772       0.10204880
  ----------------------------------------------------------------------
  | Atom     6: H
  |   Hirshfeld charge        :      0.16208248
  |   Free atom volume        :     10.44207651
  |   Hirshfeld volume        :      5.90873757
  |   Hirshfeld dipole vector :     -0.01767353       0.01039336      -0.11973820
  |   Hirshfeld dipole moment :      0.12148092
  |   Hirshfeld second moments:      0.12048319       0.00785576       0.00774407
  |                                  0.00785576       0.13485966       0.00271066
  |                                  0.00774407       0.00271066       0.12400065
  ----------------------------------------------------------------------
  | Atom     7: O
  |   Hirshfeld charge        :     -0.20507322
  |   Free atom volume        :     23.95238533
  |   Hirshfeld volume        :     20.62143731
  |   Hirshfeld dipole vector :      0.01119721       0.02708929       0.00335861
  |   Hirshfeld dipole moment :      0.02950402
  |   Hirshfeld second moments:      0.06077866      -0.03760607       0.00826987
  |                                 -0.03760607       0.02919627      -0.02470183
  |                                  0.00826987      -0.02470183       0.08577106
  ----------------------------------------------------------------------
  | Atom     8: H
  |   Hirshfeld charge        :      0.16833127
  |   Free atom volume        :     10.44207651
  |   Hirshfeld volume        :      5.69269884
  |   Hirshfeld dipole vector :      0.02290944      -0.01448727       0.11910175
  |   Hirshfeld dipole moment :      0.12214725
  |   Hirshfeld second moments:      0.13520609      -0.01420525      -0.00161400
  |                                 -0.01420525       0.12827307      -0.00555954
  |                                 -0.00161400      -0.00555954       0.12237128
  ----------------------------------------------------------------------
  | Atom     9: H
  |   Hirshfeld charge        :      0.17180661
  |   Free atom volume        :     10.44207651
  |   Hirshfeld volume        :      6.22598023
  |   Hirshfeld dipole vector :     -0.08275675       0.07817417      -0.01941187
  |   Hirshfeld dipole moment :      0.11548464
  |   Hirshfeld second moments:      0.12268593      -0.00136539      -0.00119267
  |                                 -0.00136539       0.10382424       0.00593264
  |                                 -0.00119267       0.00593264       0.13153717
  ----------------------------------------------------------------------
  | Atom    10: O
  |   Hirshfeld charge        :     -0.26395550
  |   Free atom volume        :     23.95238533
  |   Hirshfeld volume        :     20.96598944
  |   Hirshfeld dipole vector :     -0.01461515       0.02007255       0.03114279
  |   Hirshfeld dipole moment :      0.03982943
  |   Hirshfeld second moments:      0.07019038       0.03619784       0.01145438
  |                                  0.03619784       0.03096609      -0.01258538
  |                                  0.01145438      -0.01258538       0.03866653
  ----------------------------------------------------------------------
  | Atom    11: H
  |   Hirshfeld charge        :      0.15239964
  |   Free atom volume        :     10.44207651
  |   Hirshfeld volume        :      5.99092126
  |   Hirshfeld dipole vector :      0.09579650       0.06702389       0.03505346
  |   Hirshfeld dipole moment :      0.12205702
  |   Hirshfeld second moments:      0.12367772       0.00613851      -0.00499642
  |                                  0.00613851       0.11222143      -0.00924193
  |                                 -0.00499642      -0.00924193       0.12727887
  ----------------------------------------------------------------------
  | Atom    12: H
  |   Hirshfeld charge        :      0.09584506
  |   Free atom volume        :     10.44207651
  |   Hirshfeld volume        :      7.52455927
  |   Hirshfeld dipole vector :     -0.02314917      -0.01421575       0.03387432
  |   Hirshfeld dipole moment :      0.04342167
  |   Hirshfeld second moments:      0.07405871      -0.00650498       0.03623365
  |                                 -0.00650498       0.08467851       0.01029885
  |                                  0.03623365       0.01029885       0.07234632
  ----------------------------------------------------------------------
  | Atom    13: O
  |   Hirshfeld charge        :     -0.24465834
  |   Free atom volume        :     23.95238533
  |   Hirshfeld volume        :     20.96017802
  |   Hirshfeld dipole vector :      0.02774041      -0.01761350      -0.02485696
  |   Hirshfeld dipole moment :      0.04120236
  |   Hirshfeld second moments:      0.03719397       0.00801030       0.02019722
  |                                  0.00801030       0.07868203      -0.03125922
  |                                  0.02019722      -0.03125922       0.02506980
  ----------------------------------------------------------------------
  | Atom    14: H
  |   Hirshfeld charge        :      0.10821298
  |   Free atom volume        :     10.44207651
  |   Hirshfeld volume        :      7.35074448
  |   Hirshfeld dipole vector :      0.04878084      -0.01822679       0.00448011
  |   Hirshfeld dipole moment :      0.05226717
  |   Hirshfeld second moments:      0.06845095       0.03269515      -0.02085948
  |                                  0.03269515       0.09503928       0.00410507
  |                                 -0.02085948       0.00410507       0.08398197
  ----------------------------------------------------------------------
  | Atom    15: H
  |   Hirshfeld charge        :      0.15550536
  |   Free atom volume        :     10.44207651
  |   Hirshfeld volume        :      5.94166172
  |   Hirshfeld dipole vector :      0.03709885       0.10094144      -0.05469674
  |   Hirshfeld dipole moment :      0.12065336
  |   Hirshfeld second moments:      0.12900779      -0.00458398       0.01057702
  |                                 -0.00458398       0.12331269      -0.00246588
  |                                  0.01057702      -0.00246588       0.11430970
  ----------------------------------------------------------------------


------------------------------------------------------------------------------
  Final output of selected total energy values:

  The following output summarizes some interesting total energy values
  at the end of a run (AFTER all relaxation, molecular dynamics, etc.).

  | Total energy of the DFT / Hartree-Fock s.c.f. calculation      :         -10415.706868215 eV
  | Final zero-broadening corrected energy (caution - metals only) :         -10415.706868215 eV
  | For reference only, the value of 1 Hartree used in FHI-aims is :             27.211384500 eV

  Before relying on these values, please be sure to understand exactly which
  total energy value is referred to by a given number. Different objects may
  all carry the same name 'total energy'. Definitions:

  Total energy of the DFT / Hartree-Fock s.c.f. calculation:
  | Note that this energy does not include ANY quantities calculated after the
  | s.c.f. cycle, in particular not ANY RPA, MP2, etc. many-body perturbation terms.

  Final zero-broadening corrected energy:
  | For metallic systems only, a broadening of the occupation numbers at the Fermi
  | level can be extrapolated back to zero broadening by an electron-gas inspired
  | formula. For all systems that are not real metals, this value can be
  | meaningless and should be avoided.

------------------------------------------------------------------------------

------------------------------------------------------------
          Leaving FHI-aims.
          Date     :  20150727, Time     :  122557.264

          Computational steps:
          | Number of self-consistency cycles          :           16

          Detailed time accounting                     :  max(cpu_time)    wall_clock(cpu1)
          | Total time                                 :       38.141 s          38.186 s
          | Preparation time                           :        0.171 s           0.471 s
          | Grid partitioning                          :        0.169 s           0.168 s
          | Preloading free-atom quantities on grid    :        0.014 s           0.013 s
          | Free-atom superposition energy             :        0.065 s           0.065 s
          | Total time for integrations                :       16.443 s          16.442 s
          | Total time for solution of K.-S. equations :        1.053 s           1.052 s
          | Total time for density & force components  :       13.081 s          13.082 s
          | Total time for mixing                      :        0.209 s           0.208 s
          | Total time for Hartree multipole update    :        0.074 s           0.073 s
          | Total time for Hartree multipole sum       :        6.245 s           6.245 s
          | Total time for total energy evaluation     :        0.003 s           0.007 s
          | Total time for scaled ZORA corrections     :        0.000 s           0.000 s
          | Total time for TS (2009) vdW correction    :        0.052 s           0.052 s

          Have a nice day.
------------------------------------------------------------
