  MPI-parallelism will be employed.
------------------------------------------------------------
          Invoking FHI-aims ...
          Version 081213
          Compiled on 2013/08/29 at 17:41:06 on host generoso.

          When using FHI-aims, please cite the following reference:

          Volker Blum, Ralf Gehrke, Felix Hanke, Paula Havu,
          Ville Havu, Xinguo Ren, Karsten Reuter, and Matthias Scheffler,
          'Ab Initio Molecular Simulations with Numeric Atom-Centered Orbitals: FHI-aims',
          Computer Physics Communications 180, 2175-2196 (2009)

          For any questions about FHI-aims, please visit the aimsclub website
          with its forums and wiki. Contributions to both the forums and the
          wiki are warmly encouraged - they are for you, and everyone is welcome there.

------------------------------------------------------------

  Date     :  20150727, Time     :  120559.901
  Time zero on CPU 1             :   0.419930000000000E-01  s.
  Internal wall clock time zero  :           207230759.901  s.

  Using        8 parallel tasks.
  Task        0 on host gen60 reporting.
  Task        1 on host gen60 reporting.
  Task        2 on host gen60 reporting.
  Task        3 on host gen60 reporting.
  Task        4 on host gen60 reporting.
  Task        5 on host gen60 reporting.
  Task        6 on host gen60 reporting.
  Task        7 on host gen60 reporting.

  Performing system and environment tests:
  | Environment variable OMP_NUM_THREADS correctly set to 1.
  | Checking for scalapack...
  | No scalapack compiled in.

  Obtaining array dimensions for all initial allocations:
  
  -----------------------------------------------------------------------
  Parsing control.in (first pass over file, find array dimensions only).
  The contents of control.in will be repeated verbatim below
  unless switched off by setting 'verbatim_writeout .false.' .
  in the first line of control.in .
  -----------------------------------------------------------------------
  
  #########################################################################################
  #
  #  Volker Blum, FHI 2008 : Test run input file control.in
  #
  #########################################################################################
  #
  #  Physical model
  #
    xc                 rpbe
    spin               none
    relativistic       atomic_zora scalar
    charge             0.
   vdw_correction_hirshfeld
  #
  #  SCF convergence
  #
    occupation_type    gaussian 0.01
    mixer              pulay
      n_max_pulay        10
      charge_mix_param   0.1
    sc_accuracy_rho    5E-5
    sc_accuracy_eev    5E-3
    sc_accuracy_etot   5E-6
    sc_iter_limit      3000
  #
  #  Eigenvalue solver
  #
    KS_method          lapack
      empty_states       8
      basis_threshold    0.e-5
  #
  #  Efficiency
  #
  #   all previous settings are now default, except stratmann still
  #   undecided. Continue to handle stratmann with care, if at all.
  #
  #  partition_type stratmann
    partition_type rho_r2
  #  hartree_partition_type stratmann
  #
  #  Oprions for large clusters (100's of atoms: memory saving / better scaling)
  #
  # for periodic systems:
  #
    density_update_method orbital
    packed_matrix_format none
  #  k_grid 6 6 6
  #  output k_eigenvalue 1
  #  distributed_spline_storage .true.
  #
  #  Relaxation
  #
  #  relax_geometry   bfgs 5.e-3
    sc_accuracy_forces 5.E-4
    final_forces_cleaned .true.
  #
  #  Output options
  #
  #  output mulliken
    output Hirshfeld
  #  output dipole
  
  #harmonic_length_scale 0.001
  
  ################################################################################
  #
  #  FHI-aims code project
  #  VB, Fritz-Haber Institut, 2007
  #
  #  Suggested "safe" defaults for H atom (to be pasted into control.in file)
  #  Basis constructed for a non-relativistic H2 molecule using the
  #  PW-LDA functional.
  #
  ################################################################################
    species        H
  #     global species definitions
      nucleus             1
      cut_pot             4.0  2.0  1.0
      cut_free_atom       finite 8.0
      logarithmic         0.00010000 100.00  1.0123
      basis_dep_cutoff    1d-4  # 1d-4 is safe default - please check 5d-4 if you wish!
      radial_base         24 7.0
      radial_multiplier   2
      angular_grids       specified
        division   0.2783  110
        division   0.3822  194
        division   0.5626  302
  #      division   0.5922  434
  #      division   0.6227  590
  #      division   0.7206  770
        outer_grid  302
      l_hartree           4
  ################################################################################
  #
  #  Definition of "minimal" basis
  #
  ################################################################################
  #     valence basis states
      valence      1  s   1.
  #     ion occupancy
      ion_occ      1  s   0.5
  ################################################################################
  #
  #  Suggested additional basis functions. For production calculations,
  #  uncomment them one after another (the most important basis functions are
  #  listed first).
  #
  ################################################################################
  #  "First tier" - improvements: -1014.90 meV to -62.69 meV
       hydro 2 s 2.1
       hydro 2 p 3.5
  #  "Second tier" - improvements: -12.89 meV to -1.83 meV
       hydro 1 s 0.85
       hydro 2 p 3.7
       hydro 2 s 1.2
       hydro 3 d 7
  #  "Third tier" - improvements: -0.25 meV to -0.12 meV
  #     hydro 4 f 11.2
  #     hydro 3 p 4.8
  #     hydro 4 d 9
  #     hydro 3 s 3.2
  
  ################################################################################
  #
  #  FHI-aims code project
  #  VB, Fritz-Haber Institut, 2007
  #
  #  Suggested "safe" defaults for O atom (to be pasted into control.in file)
  #  All values have been tested for a non-relativistic, non-spinpolarized O2
  #  molecule using the PW-LDA functional. Validity for PBE is expected.
  #
  #  Constructed for dimers: 1.0 A, 1.208 A, 1.5 A, 2.0 A, 3.0 A
  #
  ################################################################################
    species        O
  #     global species definitions
      nucleus             8
      mass                15.9994
      l_hartree           4
      cut_pot             4.0  2.0  1.0
      cut_free_atom       finite 8.0
      basis_dep_cutoff    1d-4  # 1d-4 is safe default - please check 5d-4 if you wish!
      logarithmic         0.00010000 100.00  1.0123
      radial_base         36 7.0
      radial_multiplier   2
       angular_grids specified
        division   0.4087  110
        division   0.5181  194
        division   0.6184  302
  #      division   0.7315  434
  #      division   0.7934  590
  #      division   0.9656  770
  #      division   1.4041  974
  #      outer_grid 974
        outer_grid 302
  ################################################################################
  #
  #  Definition of "minimal" basis
  #
  ################################################################################
  #     valence basis states
      valence      2  s   2.
      valence      2  p   4.
  #     ion occupancy
      ion_occ      2  s   1.
      ion_occ      2  p   3.
  ################################################################################
  #
  #  Suggested additional basis functions. For production calculations,
  #  uncomment them one after another (the most important basis functions are
  #  listed first).
  #
  ################################################################################
  #  "First tier" - improvements: -699.05 meV to -159.38 meV
       hydro 2 p 1.8
       hydro 3 d 7.6
       hydro 3 s 6.4
  #  "Second tier" - improvements: -49.91 meV to -5.39 meV
       hydro 4 f 11.6
       hydro 3 p 6.2
       hydro 3 d 5.6
       hydro 5 g 17.6
       hydro 1 s 0.75
  #  "Third tier" - improvements: -2.83 meV to -0.50 meV
  #     ionic 2 p auto
  #     hydro 4 f 10.8
  #     hydro 4 d 4.7
  #     hydro 2 s 6.8
  #  "Fourth tier" - improvements: -0.40 meV to -0.12 meV
  #     hydro 3 p 5
  #     hydro 3 s 3.3
  #     hydro 5 g 15.6
  #     hydro 4 f 17.6
  #     hydro 4 d 14
  # Further basis functions - -0.08 meV and below
  #     hydro 3 s 2.1
  #     hydro 4 d 11.6
  #     hydro 3 p 16
  #     hydro 2 s 17.2
  
  
  -----------------------------------------------------------------------
  Completed first pass over input file control.in .
  -----------------------------------------------------------------------
  
  
  -----------------------------------------------------------------------
  Parsing geometry.in (first pass over file, find array dimensions only).
  The contents of geometry.in will be repeated verbatim below
  unless switched off by setting 'verbatim_writeout .false.' .
  in the first line of geometry.in .
  -----------------------------------------------------------------------
  
  atom      -4.053030000      0.065001000     -1.525160000  O
  atom      -4.566710000      0.974813000     -1.912820000  H
  atom      -3.067820000      0.330172000     -1.477310000  H
  atom      -4.581760000     -0.256435000      0.939478000  O
  atom      -4.349860000      0.471090000      1.504340000  H
  atom      -5.393870000     -0.726611000      1.228070000  H
  atom      -1.645860000      0.870179000     -1.502250000  O
  atom      -1.568890000      1.501730000     -0.721051000  H
  atom      -0.824432000      0.282220000     -1.377720000  H
  atom      -4.066610000      4.258280000     -0.900064000  O
  atom      -3.224110000      3.876870000     -0.569443000  H
  atom      -3.737450000      5.116530000     -1.322720000  H
  
  -----------------------------------------------------------------------
  Completed first pass over input file geometry.in .
  -----------------------------------------------------------------------
  
 
  Basic array size parameters: 
  | Number of species                 :        2
  | Number of atoms                   :       12
  | Max. basis fn. angular momentum   :        4
  | Max. atomic/ionic basis occupied n:        2
  | Max. number of basis fn. types    :        2
  | Max. radial fns per species/type  :        8
  | Max. logarithmic grid size        :     1301
  | Max. radial integration grid size :       73
  | Max. angular integration grid size:      302
  | Max. angular grid division number :        8
  | Radial grid for Hartree potential :     1301
  | Number of spin channels           :        1

------------------------------------------------------------
          Reading file control.in.
------------------------------------------------------------
  XC: Using RPBE gradient-corrected functionals.
  Spin treatment: No spin polarisation.
  Scalar relativistic treatment of kinetic energy: on-site free-atom approximation to ZORA.
  Charge =   0.000000E+00: Neutral system requested explicitly.
  Using non-empirical van der Waals correction (Hirshfeld partitioning):
  Occupation type: Gaussian broadening, width =   0.100000E-01 eV.
  Using pulay charge density mixing.
  Pulay mixing - number of memorized iterations:   10
  Charge density mixing - mixing parameter:     0.1000
  Convergence accuracy of self-consistent charge density: 0.5000E-04
  Convergence accuracy of sum of eigenvalues: 0.5000E-02
  Convergence accuracy of total energy: 0.5000E-05
  Maximum number of s.-c. iterations  :  3000
  Kohn-Sham eigenvalues and eigenfunctions calculated by lapack diagonalisation (D&C).
  Number of empty states per atom:        8
  Threshold for basis singularities: 0.0000E+00
  Partition function in integrals calculations: rho / r^2
 Using packed matrix format           0
  Convergence accuracy of forces: 0.5000E-03
  Cleaning forces before final output.
  Hirshfeld charge analysis will be performed.
 
  Reading configuration options for species H                   .
  | Found nuclear charge :   1.0000
  | Found cutoff potl. onset [A], width [A], scale factor :    4.00000    2.00000    1.00000
  | Found cutoff specification for free atom: Cutoff potential begins at    8.00000 A.
  | Found logarithmic grid data [bohr] : 0.1000E-03 0.1000E+03 0.1012E+01
  | Threshold for basis-dependent cutoff potential is   0.100000E-03
  | Found data for basic radial integration grid :    24 points, outermost radius =    7.000 A
  | Found multiplier for basic radial grid :   2
  | Found angular grid specification: user-specified.
  | Specified grid contains     4 separate shells.
  | Check grid settings after all constraints further below.
  | Found l_max for Hartree potential  :   4
  | Found free-atom valence shell :  1 s   1.000
  | No ionic wave fns used. Skipping ion_occ.
  | Found hydrogenic basis function :  2 s   2.100
  | Found hydrogenic basis function :  2 p   3.500
  | Found hydrogenic basis function :  1 s   0.850
  | Found hydrogenic basis function :  2 p   3.700
  | Found hydrogenic basis function :  2 s   1.200
  | Found hydrogenic basis function :  3 d   7.000
  Species H                   : Missing cutoff potential type.
  Defaulting to exp(1/x)/(1-x)^2 type cutoff potential.
  Species H : On-site basis accuracy parameter (for Gram-Schmidt orthonormalisation) not specified.
  Using default value basis_acc =  0.1000000E-03.
  Species H                   : Using default innermost maximum threshold i_radial=  2 for radial functions.
  Species H                   : Basic radial grid will be enhanced according to radial_multiplier =   2, to contain    49 grid points.
 
  Reading configuration options for species O                   .
  | Found nuclear charge :   8.0000
  | Found atomic mass :    15.9994000000000      amu
  | Found l_max for Hartree potential  :   4
  | Found cutoff potl. onset [A], width [A], scale factor :    4.00000    2.00000    1.00000
  | Found cutoff specification for free atom: Cutoff potential begins at    8.00000 A.
  | Threshold for basis-dependent cutoff potential is   0.100000E-03
  | Found logarithmic grid data [bohr] : 0.1000E-03 0.1000E+03 0.1012E+01
  | Found data for basic radial integration grid :    36 points, outermost radius =    7.000 A
  | Found multiplier for basic radial grid :   2
  | Found angular grid specification: user-specified.
  | Specified grid contains     4 separate shells.
  | Check grid settings after all constraints further below.
  | Found free-atom valence shell :  2 s   2.000
  | Found free-atom valence shell :  2 p   4.000
  | No ionic wave fns used. Skipping ion_occ.
  | No ionic wave fns used. Skipping ion_occ.
  | Found hydrogenic basis function :  2 p   1.800
  | Found hydrogenic basis function :  3 d   7.600
  | Found hydrogenic basis function :  3 s   6.400
  | Found hydrogenic basis function :  4 f  11.600
  | Found hydrogenic basis function :  3 p   6.200
  | Found hydrogenic basis function :  3 d   5.600
  | Found hydrogenic basis function :  5 g  17.600
  | Found hydrogenic basis function :  1 s   0.750
  Species O                   : Missing cutoff potential type.
  Defaulting to exp(1/x)/(1-x)^2 type cutoff potential.
  Species O : On-site basis accuracy parameter (for Gram-Schmidt orthonormalisation) not specified.
  Using default value basis_acc =  0.1000000E-03.
  Species O                   : Using default innermost maximum threshold i_radial=  2 for radial functions.
  Species O                   : Basic radial grid will be enhanced according to radial_multiplier =   2, to contain    73 grid points.
 
  Finished reading input file 'control.in'. Consistency checks are next.
 
  Target number of points in a grid batch is not set. Defaulting to  100
  Method for grid partitioning is not set. Defaulting to parallel hash+maxmin partitioning.
  Batch size limit is not set. Defaulting to    200
  By default, will store active basis functions for each batch.
  If in need of memory, prune_basis_once .false. can be used to disable this option.
  communication_type for Hartree potential was not specified.
  Defaulting to calc_hartree .
  Pulay mixer: Number of initial linear mixing iterations not set.
  Defaulting to    0 iterations.
  Work space size for distributed Hartree potential not set.
  Defaulting to   0.200000E+03 MB.
  Algorithm-dependent basis array size parameters:
  | n_max_pulay                         :       10
  Geometry relaxation not requested: no relaxation will be performed.
  Handling of forces: Unphysical translation and rotation will be removed from forces.
  No accuracy limit for integral partition fn. given. Defaulting to 0.1000E-14.
  No threshold value for u(r) in integrations given. Defaulting to 0.1000E-05.
  No accuracy for occupation numbers given. Defaulting to 0.1000E-07.
  No threshold value for occupation numbers given. Defaulting to 0.0000E+00.
  No accuracy for fermi level given. Defaulting to 0.1000E-19.
  Maximum # of iterations to find E_F not set. Defaulting to  200.
  Will not use alltoall communication since running on < 1024 CPUs.
  Partitioning for Hartree potential was not defined. Using partition_type for integrals.
  | Reporting present value of keyword multip_moments_threshold  :       0.10000000E-09
  | This value may affect high angular momentum components of the Hartree potential in periodic systems.
  No q(lm)/r^(l+1) cutoff set for long-range Hartree potential.
  | Using default value of  0.100000E-09 .
  | Verify using the multipole_threshold keyword.
  Defaulting to new monopole extrapolation.
  Density update method: Loop over occupied states selected for charge density update.
------------------------------------------------------------


------------------------------------------------------------
          Reading geometry description geometry.in.
------------------------------------------------------------
  Input structure read successfully.
  The structure contains       12 atoms,  and a total of         40.000 electrons.

  Input geometry:
  | No unit cell requested.
  | Atomic structure:
  |       Atom                x [A]            y [A]            z [A]
  |    1: Species O             -4.053030         0.065001        -1.525160
  |    2: Species H             -4.566710         0.974813        -1.912820
  |    3: Species H             -3.067820         0.330172        -1.477310
  |    4: Species O             -4.581760        -0.256435         0.939478
  |    5: Species H             -4.349860         0.471090         1.504340
  |    6: Species H             -5.393870        -0.726611         1.228070
  |    7: Species O             -1.645860         0.870179        -1.502250
  |    8: Species H             -1.568890         1.501730        -0.721051
  |    9: Species H             -0.824432         0.282220        -1.377720
  |   10: Species O             -4.066610         4.258280        -0.900064
  |   11: Species H             -3.224110         3.876870        -0.569443
  |   12: Species H             -3.737450         5.116530        -1.322720
  |

  | The smallest distance between any two atoms is         0.94981015 AA.
  |
  | The first atom of this pair is atom number                      4 .
  | The second atom of this pair is atom number                     5 .

  Structure-dependent array size parameters: 
  | Maximum number of distinct radial functions  :       18
  | Maximum number of basis functions            :      276
  | Number of Kohn-Sham states (occupied + empty):       68
------------------------------------------------------------

------------------------------------------------------------
          Preparing all fixed parts of the calculation.
------------------------------------------------------------
  Determining machine precision:
    2.225073858507201E-308
  Setting up grids for atomic and cluster calculations.

  Creating wave function, potential, and density for free atoms.

  Species: H

  List of occupied orbitals and eigenvalues:
    n    l              occ      energy [Ha]    energy [eV]
    1    0           1.0000        -0.241408        -6.5691


  Species: O

  List of occupied orbitals and eigenvalues:
    n    l              occ      energy [Ha]    energy [eV]
    1    0           2.0000       -18.944147      -515.4965
    2    0           2.0000        -0.883529       -24.0421
    2    1           4.0000        -0.330176        -8.9845

  Creating fixed part of basis set: Ionic, confined, hydrogenic.
 
  H                    hydrogenic:
 
  List of hydrogenic basis orbitals: 
    n    l      effective z      eigenvalue [eV]  inner max. [A]     outer max. [A]     outer radius [A]   
    2    0         2.100000       -14.9965           0.193241           1.317192           5.372934
    2    1         3.500000       -41.6672           0.602363           0.602363           4.056010
    1    0         0.850000        -9.8292           0.624864           0.624864           5.372934
    2    1         3.700000       -46.5653           0.573616           0.573616           3.909951
    2    0         1.200000        -4.5995           0.334977           2.228160           5.505921
    3    2         7.000000       -74.0753           0.680692           0.680692           3.769152
 
 
  O                    hydrogenic:
 
  List of hydrogenic basis orbitals: 
    n    l      effective z      eigenvalue [eV]  inner max. [A]     outer max. [A]     outer radius [A]   
    2    1         1.800000       -11.0118           1.178546           1.178546           5.432516
    3    2         7.600000       -87.3182           0.624117           0.624117           3.541422
    3    0         6.400000       -61.9209           0.061166           1.081887           4.306510
    4    3        11.600000      -114.4238           0.731621           0.731621           3.584982
    3    1         6.200000       -58.1113           0.255677           1.030255           4.306510
    3    2         5.600000       -47.4081           0.847222           0.847222           4.413102
    5    4        17.600000      -168.5799           0.749730           0.749730           3.372413
    1    0         0.750000        -7.6499           0.705275           0.705275           5.366508
 

  Adding cutoff potential to free-atom effective potential.
  Creating atomic-like basis functions for current effective potential.

  Species H                   :

  List of atomic basis orbitals and eigenvalues:
    n    l      energy [Ha]    energy [eV]    outer radius [A]
    1    0        -0.241374        -6.5681       5.372934


  Species O                   :

  List of atomic basis orbitals and eigenvalues:
    n    l      energy [Ha]    energy [eV]    outer radius [A]
    1    0       -18.944147      -515.4965       1.415745
    2    0        -0.883529       -24.0421       5.048305
    2    1        -0.330173        -8.9845       5.301302

  Assembling full basis from fixed parts.
  | Species H :   atomic orbital   1 s accepted.
  | Species H :    hydro orbital   2 s accepted.
  | Species H :    hydro orbital   1 s accepted.
  | Species H :    hydro orbital   2 s accepted.
  | Species H :    hydro orbital   2 p accepted.
  | Species H :    hydro orbital   2 p accepted.
  | Species H :    hydro orbital   3 d accepted.
  | Species O :   atomic orbital   1 s accepted.
  | Species O :    hydro orbital   3 s accepted.
  | Species O :   atomic orbital   2 s accepted.
  | Species O :    hydro orbital   1 s accepted.
  | Species O :    hydro orbital   3 p accepted.
  | Species O :   atomic orbital   2 p accepted.
  | Species O :    hydro orbital   2 p accepted.
  | Species O :    hydro orbital   3 d accepted.
  | Species O :    hydro orbital   3 d accepted.
  | Species O :    hydro orbital   4 f accepted.
  | Species O :    hydro orbital   5 g accepted.
 
  Basis size parameters after reduction:
  | Total number of radial functions:       18
  | Total number of basis functions :      276
 
  Testing on-site integration grid accuracy.
  |  Species  Function  <phi|h_atom|phi> (log., in eV)  <phi|h_atom|phi> (rad., in eV)
           1        1                 -6.5683835025                 -6.5684759159
           1        2                 13.3711789951                 13.3708738703
           1        3                 23.6590910787                 23.6532055418
           1        4                 16.2963827186                 16.1870710655 ***
           1        5                 28.7627214838                 28.7627215090
           1        6                 59.5965249172                 59.5965950857
           1        7                 60.2220506392                 60.2220503827
           2        8               -515.4964576505               -515.4964530710
           2        9                 15.3030791347                 15.3030722972
           2       10                -21.7296094581                -21.7296135470
           2       11                 14.2969371730                 14.2969701621
           2       12                 21.0679693190                 21.0679697493
           2       13                 -2.3833606469                 -2.3833613176
           2       14                 13.7067136422                 13.7066766629
           2       15                 45.8013116808                 45.8013116965
           2       16                 52.2309815402                 52.2309831494
           2       17                 85.4120732416                 85.4120732763
           2       18                142.1019167745                142.1019167817
 * Note: Onsite integrals marked "***" above are less accurate than
 * onsite_accuracy_threshold =    0.03000 eV. Usually, this is harmless.
 * When in doubt, tighten the "radial" and/or "radial_multiplier" flags to check.

  Preparing densities etc. for the partition functions (integrals / Hartree potential).

  Preparations completed.
  max(cpu_time)          :      0.172 s.
  Wall clock time (cpu1) :      0.545 s.
------------------------------------------------------------

------------------------------------------------------------
          Begin self-consistency loop: Initialization.

          Date     :  20150727, Time     :  120600.457
------------------------------------------------------------

  Initializing index lists of integration centers etc. from given atomic structure:
  | Number of centers in hartree potential         :        12
  | Number of centers in hartree multipole         :        12
  | Number of centers in electron density summation:        12
  | Number of centers in basis integrals           :        12
  | Number of centers in integrals                 :        12
  Partitioning the integration grid into batches with parallel hashing+maxmin method.
  | Number of batches:     1739
  | Maximal batch size:     156
  | Minimal batch size:      50
  | Average batch size:      90.493
  | Standard deviation of batch sizes:      29.754

  Integration load balanced across     8 MPI tasks.
  Work distribution over tasks is as follows:
  Task     0 has      19736 integration points.
  Task     1 has      19725 integration points.
  Task     2 has      19626 integration points.
  Task     3 has      19626 integration points.
  Task     4 has      19695 integration points.
  Task     5 has      19636 integration points.
  Task     6 has      19599 integration points.
  Task     7 has      19725 integration points.
  Initializing partition tables, free-atom densities, potentials, etc. across the integration grid (initialize_grid_storage).
  | Net number of integration points:   157368
  | of which are non-zero points    :   156822
  Obtaining max. number of non-zero basis functions in each batch (get_n_compute_maxes).
  | Maximal number of non-zero basis functions:      274 in task     0
  | Maximal number of non-zero basis functions:      274 in task     1
  | Maximal number of non-zero basis functions:      273 in task     2
  | Maximal number of non-zero basis functions:      274 in task     3
  | Maximal number of non-zero basis functions:      274 in task     4
  | Maximal number of non-zero basis functions:      274 in task     5
  | Maximal number of non-zero basis functions:      273 in task     6
  | Maximal number of non-zero basis functions:      273 in task     7
  Integrating Hamiltonian matrix: batch-based integration.
  Time summed over all CPUs for integration: real work        4.280 s, elapsed        4.332 s
  Integrating overlap matrix.
  Time summed over all CPUs for integration: real work        2.253 s, elapsed        2.289 s

  Updating Kohn-Sham eigenvalues, eigenvectors, occupation numbers, and Fermi level.
  Solving generalized eigenproblem
  Updating Kohn-Sham eigenvalues and eigenfunctions.
  Transforming overlap matrix and checking for singularities.
  Overlap matrix is nonsingular:
  | Lowest eigenvalue:  0.307655E-03
  Solving real generalised eigenvalue problem by standard LAPACK (fast)
  Determining occupation numbers for Kohn-Sham eigenstates.
  | Chemical potential (Fermi level) in eV                 : -.50007018E+01
  | Error in electron count due to remaining E_F inaccuracy: 0.00000000E+00
  | Maximum occupation number of highest empty state:  0.00E+00

  Writing Kohn-Sham eigenvalues.

  State    Occupation    Eigenvalue [Ha]    Eigenvalue [eV]
      1       2.00000         -19.051939         -518.42964
      2       2.00000         -19.042427         -518.17081
      3       2.00000         -19.040006         -518.10493
      4       2.00000         -19.019702         -517.55243
      5       2.00000          -1.098562          -29.89341
      6       2.00000          -1.086720          -29.57116
      7       2.00000          -1.083007          -29.47012
      8       2.00000          -1.042010          -28.35453
      9       2.00000          -0.644515          -17.53815
     10       2.00000          -0.605186          -16.46795
     11       2.00000          -0.602877          -16.40511
     12       2.00000          -0.589098          -16.03018
     13       2.00000          -0.518883          -14.11952
     14       2.00000          -0.504802          -13.73637
     15       2.00000          -0.500564          -13.62103
     16       2.00000          -0.469746          -12.78243
     17       2.00000          -0.439630          -11.96293
     18       2.00000          -0.430601          -11.71725
     19       2.00000          -0.426811          -11.61413
     20       2.00000          -0.402572          -10.95454
     21       0.00000          -0.099573           -2.70953
     22       0.00000          -0.063796           -1.73599
     23       0.00000          -0.060396           -1.64345
     24       0.00000          -0.056733           -1.54380
     25       0.00000          -0.021582           -0.58729
     26       0.00000           0.000756            0.02058
     27       0.00000           0.027497            0.74823
     28       0.00000           0.045273            1.23194
     29       0.00000           0.071134            1.93566
     30       0.00000           0.085909            2.33769
     31       0.00000           0.087431            2.37911
     32       0.00000           0.094255            2.56480
     33       0.00000           0.099004            2.69403
     34       0.00000           0.109521            2.98023
     35       0.00000           0.114547            3.11698
     36       0.00000           0.128304            3.49133
     37       0.00000           0.133988            3.64600
     38       0.00000           0.143574            3.90684
     39       0.00000           0.158234            4.30578
     40       0.00000           0.171491            4.66650
     41       0.00000           0.189122            5.14626
     42       0.00000           0.191562            5.21267
     43       0.00000           0.224373            6.10551
     44       0.00000           0.241006            6.55810
     45       0.00000           0.258957            7.04657
     46       0.00000           0.277488            7.55082
     47       0.00000           0.281913            7.67125
     48       0.00000           0.306724            8.34638
     49       0.00000           0.333566            9.07679
     50       0.00000           0.346005            9.41528
     51       0.00000           0.369530           10.05542
     52       0.00000           0.379843           10.33606
     53       0.00000           0.390707           10.63168
     54       0.00000           0.398475           10.84305
     55       0.00000           0.410400           11.16755
     56       0.00000           0.415722           11.31238
     57       0.00000           0.431689           11.74685
     58       0.00000           0.443609           12.07122
     59       0.00000           0.448248           12.19745
     60       0.00000           0.467154           12.71190
     61       0.00000           0.503203           13.69285
     62       0.00000           0.513924           13.98459
     63       0.00000           0.520841           14.17281
     64       0.00000           0.564757           15.36783
     65       0.00000           0.569511           15.49718
     66       0.00000           0.604869           16.45932
     67       0.00000           0.676214           18.40073
     68       0.00000           0.691033           18.80396

  Highest occupied state (VBM) at    -10.95453694 eV
  | Occupation number:      2.00000000

  Lowest unoccupied state (CBM) at    -2.70952647 eV
  | Occupation number:      0.00000000

  Overall HOMO-LUMO gap:      8.24501047 eV.
  Calculating total energy contributions from superposition of free atom densities.

  Total energy components:
  | Sum of eigenvalues            :        -173.19931730 Ha       -4712.99321826 eV
  | XC energy correction          :         -36.40286415 Ha        -990.57233320 eV
  | XC potential correction       :          46.50711883 Ha        1265.52309241 eV
  | Free-atom electrostatic energy:        -143.35891384 Ha       -3900.99452593 eV
  | Hartree energy correction     :           0.00000000 Ha           0.00000000 eV
  | van der Waals energy corr.    :           0.00000000 Ha           0.00000000 eV
  | Entropy correction            :           0.00000000 Ha           0.00000000 eV
  | ---------------------------
  | Total energy                  :        -306.45397646 Ha       -8339.03698497 eV
  | Total energy, T -> 0          :        -306.45397646 Ha       -8339.03698497 eV  <-- do not rely on this value for anything but (periodic) metals
  | Electronic free energy        :        -306.45397646 Ha       -8339.03698497 eV

  Derived energy quantities:
  | Kinetic energy                :         303.23463505 Ha        8251.43424793 eV
  | Electrostatic energy          :        -573.28574736 Ha      -15599.89889971 eV
  | Energy correction for multipole
  | error in Hartree potential    :           0.00000000 Ha           0.00000000 eV
  | Sum of eigenvalues per atom                           :        -392.74943485 eV
  | Total energy (T->0) per atom                          :        -694.91974875 eV  <-- do not rely on this value for anything but (periodic) metals
  | Electronic free energy per atom                       :        -694.91974875 eV
  Initialize hartree_potential_storage
  Max. number of atoms included in rho_multipole:           12

  End scf initialization - timings             :  max(cpu_time)    wall_clock(cpu1)
  | Time for scf. initialization               :        1.220 s           1.219 s
  | Boundary condition initialization          :        0.000 s           0.000 s
  | Integration                                :        0.830 s           0.830 s
  | Solution of K.-S. eqns.                    :        0.119 s           0.119 s
  | Grid partitioning                          :        0.123 s           0.123 s
  | Preloading free-atom quantities on grid    :        0.014 s           0.013 s
  | Free-atom superposition energy             :        0.046 s           0.046 s
  | Total energy evaluation                    :        0.000 s           0.000 s
------------------------------------------------------------

------------------------------------------------------------
          Begin self-consistency iteration #    1

  Date     :  20150727, Time     :  120601.676
------------------------------------------------------------
  Evaluating new KS density.
  Integration grid: deviation in total charge (<rho> - N_e) =   7.105427E-15
  Pulay mixing of updated and previous charge densities.

  Evaluating partitioned Hartree potential by multipole expansion.
  | Analytical far-field extrapolation by fixed multipoles:
  | Hartree multipole sum: apparent total charge =  -0.193494E-05
  Summing up the Hartree potential.
  Time summed over all CPUs for potential: real work        1.672 s, elapsed        1.772 s
  | RMS charge density error from multipole expansion :   0.140097E-02

  Integrating Hamiltonian matrix: batch-based integration.
  Time summed over all CPUs for integration: real work        4.286 s, elapsed        4.350 s

  Updating Kohn-Sham eigenvalues, eigenvectors, occupation numbers, and Fermi level.
  Solving generalized eigenproblem
  Updating Kohn-Sham eigenvalues and eigenfunctions.
  Solving real generalised eigenvalue problem by standard LAPACK (fast)
  Determining occupation numbers for Kohn-Sham eigenstates.
  | Chemical potential (Fermi level) in eV                 : -.45549623E+01
  | Error in electron count due to remaining E_F inaccuracy: 0.00000000E+00
  | Maximum occupation number of highest empty state:  0.00E+00

  Writing Kohn-Sham eigenvalues.

  State    Occupation    Eigenvalue [Ha]    Eigenvalue [eV]
      1       2.00000         -18.978097         -516.42029
      2       2.00000         -18.966221         -516.09714
      3       2.00000         -18.965239         -516.07042
      4       2.00000         -18.930749         -515.13190
      5       2.00000          -1.055960          -28.73413
      6       2.00000          -1.054153          -28.68496
      7       2.00000          -1.046806          -28.48503
      8       2.00000          -0.993195          -27.02621
      9       2.00000          -0.606436          -16.50195
     10       2.00000          -0.579146          -15.75937
     11       2.00000          -0.572436          -15.57678
     12       2.00000          -0.551693          -15.01233
     13       2.00000          -0.481653          -13.10645
     14       2.00000          -0.468346          -12.74436
     15       2.00000          -0.456267          -12.41565
     16       2.00000          -0.426215          -11.59790
     17       2.00000          -0.396048          -10.77702
     18       2.00000          -0.390410          -10.62359
     19       2.00000          -0.388336          -10.56716
     20       2.00000          -0.351080           -9.55338
     21       0.00000          -0.091830           -2.49881
     22       0.00000          -0.054607           -1.48593
     23       0.00000          -0.053517           -1.45626
     24       0.00000          -0.044247           -1.20403
     25       0.00000          -0.015455           -0.42055
     26       0.00000           0.008457            0.23014
     27       0.00000           0.034192            0.93042
     28       0.00000           0.054693            1.48827
     29       0.00000           0.081107            2.20704
     30       0.00000           0.092922            2.52853
     31       0.00000           0.095794            2.60669
     32       0.00000           0.101930            2.77365
     33       0.00000           0.108591            2.95492
     34       0.00000           0.116568            3.17198
     35       0.00000           0.122613            3.33647
     36       0.00000           0.138939            3.78071
     37       0.00000           0.144062            3.92012
     38       0.00000           0.160033            4.35471
     39       0.00000           0.165676            4.50828
     40       0.00000           0.184053            5.00833
     41       0.00000           0.199522            5.42927
     42       0.00000           0.204627            5.56817
     43       0.00000           0.234080            6.36964
     44       0.00000           0.251187            6.83515
     45       0.00000           0.269300            7.32804
     46       0.00000           0.287976            7.83623
     47       0.00000           0.291560            7.93374
     48       0.00000           0.314953            8.57032
     49       0.00000           0.346641            9.43258
     50       0.00000           0.353277            9.61316
     51       0.00000           0.377065           10.26046
     52       0.00000           0.390501           10.62607
     53       0.00000           0.399543           10.87213
     54       0.00000           0.408782           11.12353
     55       0.00000           0.419225           11.40769
     56       0.00000           0.425539           11.57949
     57       0.00000           0.440421           11.98448
     58       0.00000           0.452486           12.31277
     59       0.00000           0.459212           12.49580
     60       0.00000           0.478849           13.03013
     61       0.00000           0.512351           13.94178
     62       0.00000           0.524749           14.27914
     63       0.00000           0.534034           14.53179
     64       0.00000           0.580468           15.79534
     65       0.00000           0.583392           15.87491
     66       0.00000           0.618426           16.82823
     67       0.00000           0.692451           18.84256
     68       0.00000           0.704749           19.17720

  Highest occupied state (VBM) at     -9.55337535 eV
  | Occupation number:      2.00000000

  Lowest unoccupied state (CBM) at    -2.49881386 eV
  | Occupation number:      0.00000000

  Overall HOMO-LUMO gap:      7.05456149 eV.

  Total energy components:
  | Sum of eigenvalues            :        -171.31697452 Ha       -4661.77206503 eV
  | XC energy correction          :         -36.59859359 Ha        -995.89840245 eV
  | XC potential correction       :          46.76371739 Ha        1272.50549461 eV
  | Free-atom electrostatic energy:        -143.35891384 Ha       -3900.99452593 eV
  | Hartree energy correction     :          -1.81859119 Ha         -49.48638410 eV
  | van der Waals energy corr.    :           0.00000000 Ha           0.00000000 eV
  | Entropy correction            :           0.00000000 Ha           0.00000000 eV
  | ---------------------------
  | Total energy                  :        -306.32935575 Ha       -8335.64588289 eV
  | Total energy, T -> 0          :        -306.32935575 Ha       -8335.64588289 eV  <-- do not rely on this value for anything but (periodic) metals
  | Electronic free energy        :        -306.32935575 Ha       -8335.64588289 eV

  Derived energy quantities:
  | Kinetic energy                :         304.39443537 Ha        8282.99402062 eV
  | Electrostatic energy          :        -574.12519753 Ha      -15622.74150106 eV
  | Energy correction for multipole
  | error in Hartree potential    :          -0.00018104 Ha          -0.00492639 eV
  | Sum of eigenvalues per atom                           :        -388.48100542 eV
  | Total energy (T->0) per atom                          :        -694.63715691 eV  <-- do not rely on this value for anything but (periodic) metals
  | Electronic free energy per atom                       :        -694.63715691 eV

  Self-consistency convergence accuracy:
  | Change of charge density      : 0.5976E+00
  | Change of sum of eigenvalues  : 0.5122E+02 eV
  | Change of total energy        : 0.3391E+01 eV

  End self-consistency iteration #     1       :  max(cpu_time)    wall_clock(cpu1)
  | Time for this iteration                    :        1.194 s           1.194 s
  | Charge density update                      :        0.378 s           0.378 s
  | Density mixing                             :        0.003 s           0.003 s
  | Hartree multipole update                   :        0.004 s           0.004 s
  | Hartree multipole summation                :        0.222 s           0.223 s
  | Integration                                :        0.545 s           0.544 s
  | Solution of K.-S. eqns.                    :        0.032 s           0.032 s
  | Total energy evaluation                    :        0.000 s           0.007 s
------------------------------------------------------------

------------------------------------------------------------
          Begin self-consistency iteration #    2

  Date     :  20150727, Time     :  120602.871
------------------------------------------------------------
  Evaluating new KS density.
  Integration grid: deviation in total charge (<rho> - N_e) =  -7.105427E-15
  Pulay mixing of updated and previous charge densities.

  Evaluating partitioned Hartree potential by multipole expansion.
  | Analytical far-field extrapolation by fixed multipoles:
  | Hartree multipole sum: apparent total charge =  -0.573223E-05
  Summing up the Hartree potential.
  Time summed over all CPUs for potential: real work        1.654 s, elapsed        1.663 s
  | RMS charge density error from multipole expansion :   0.549017E-02

  Integrating Hamiltonian matrix: batch-based integration.
  Time summed over all CPUs for integration: real work        4.257 s, elapsed        4.300 s

  Updating Kohn-Sham eigenvalues, eigenvectors, occupation numbers, and Fermi level.
  Solving generalized eigenproblem
  Updating Kohn-Sham eigenvalues and eigenfunctions.
  Solving real generalised eigenvalue problem by standard LAPACK (fast)
  Determining occupation numbers for Kohn-Sham eigenstates.
  | Chemical potential (Fermi level) in eV                 : -.34616633E+01
  | Error in electron count due to remaining E_F inaccuracy: 0.00000000E+00
  | Maximum occupation number of highest empty state:  0.00E+00

  Highest occupied state (VBM) at     -6.33524895 eV
  | Occupation number:      2.00000000

  Lowest unoccupied state (CBM) at    -2.08677235 eV
  | Occupation number:      0.00000000

  Overall HOMO-LUMO gap:      4.24847660 eV.

  Total energy components:
  | Sum of eigenvalues            :        -167.05053754 Ha       -4545.67640782 eV
  | XC energy correction          :         -37.06128979 Ha       -1008.48900664 eV
  | XC potential correction       :          47.36988174 Ha        1289.00006568 eV
  | Free-atom electrostatic energy:        -143.35891384 Ha       -3900.99452593 eV
  | Hartree energy correction     :          -6.08848539 Ha        -165.67611687 eV
  | van der Waals energy corr.    :           0.00000000 Ha           0.00000000 eV
  | Entropy correction            :           0.00000000 Ha           0.00000000 eV
  | ---------------------------
  | Total energy                  :        -306.18934482 Ha       -8331.83599158 eV
  | Total energy, T -> 0          :        -306.18934482 Ha       -8331.83599158 eV  <-- do not rely on this value for anything but (periodic) metals
  | Electronic free energy        :        -306.18934482 Ha       -8331.83599158 eV

  Derived energy quantities:
  | Kinetic energy                :         306.61514146 Ha        8343.42250772 eV
  | Electrostatic energy          :        -575.74319648 Ha      -15666.76949266 eV
  | Energy correction for multipole
  | error in Hartree potential    :          -0.00123816 Ha          -0.03369210 eV
  | Sum of eigenvalues per atom                           :        -378.80636732 eV
  | Total energy (T->0) per atom                          :        -694.31966597 eV  <-- do not rely on this value for anything but (periodic) metals
  | Electronic free energy per atom                       :        -694.31966597 eV

  Self-consistency convergence accuracy:
  | Change of charge density      : 0.4498E+00
  | Change of sum of eigenvalues  : 0.1161E+03 eV
  | Change of total energy        : 0.3810E+01 eV

  End self-consistency iteration #     2       :  max(cpu_time)    wall_clock(cpu1)
  | Time for this iteration                    :        1.150 s           1.149 s
  | Charge density update                      :        0.362 s           0.361 s
  | Density mixing                             :        0.004 s           0.004 s
  | Hartree multipole update                   :        0.004 s           0.005 s
  | Hartree multipole summation                :        0.208 s           0.208 s
  | Integration                                :        0.539 s           0.539 s
  | Solution of K.-S. eqns.                    :        0.030 s           0.030 s
  | Total energy evaluation                    :        0.000 s           0.001 s
------------------------------------------------------------

------------------------------------------------------------
          Begin self-consistency iteration #    3

  Date     :  20150727, Time     :  120604.020
------------------------------------------------------------
  Evaluating new KS density.
  Integration grid: deviation in total charge (<rho> - N_e) =  -2.131628E-14
  Pulay mixing of updated and previous charge densities.

  Evaluating partitioned Hartree potential by multipole expansion.
  | Analytical far-field extrapolation by fixed multipoles:
  | Hartree multipole sum: apparent total charge =  -0.649618E-05
  Summing up the Hartree potential.
  Time summed over all CPUs for potential: real work        1.654 s, elapsed        1.663 s
  | RMS charge density error from multipole expansion :   0.113951E-01

  Integrating Hamiltonian matrix: batch-based integration.
  Time summed over all CPUs for integration: real work        4.261 s, elapsed        4.301 s

  Updating Kohn-Sham eigenvalues, eigenvectors, occupation numbers, and Fermi level.
  Solving generalized eigenproblem
  Updating Kohn-Sham eigenvalues and eigenfunctions.
  Solving real generalised eigenvalue problem by standard LAPACK (fast)
  Determining occupation numbers for Kohn-Sham eigenstates.
  | Chemical potential (Fermi level) in eV                 : -.32133360E+01
  | Error in electron count due to remaining E_F inaccuracy: 0.00000000E+00
  | Maximum occupation number of highest empty state:  0.00E+00

  Highest occupied state (VBM) at     -6.20822282 eV
  | Occupation number:      2.00000000

  Lowest unoccupied state (CBM) at    -2.06019699 eV
  | Occupation number:      0.00000000

  Overall HOMO-LUMO gap:      4.14802583 eV.

  Total energy components:
  | Sum of eigenvalues            :        -167.32601760 Ha       -4553.17260183 eV
  | XC energy correction          :         -37.02693885 Ha       -1007.55426991 eV
  | XC potential correction       :          47.32132211 Ha        1287.67869108 eV
  | Free-atom electrostatic energy:        -143.35891384 Ha       -3900.99452593 eV
  | Hartree energy correction     :          -5.79480510 Ha        -157.68466958 eV
  | van der Waals energy corr.    :           0.00000000 Ha           0.00000000 eV
  | Entropy correction            :           0.00000000 Ha           0.00000000 eV
  | ---------------------------
  | Total energy                  :        -306.18535327 Ha       -8331.72737616 eV
  | Total energy, T -> 0          :        -306.18535327 Ha       -8331.72737616 eV  <-- do not rely on this value for anything but (periodic) metals
  | Electronic free energy        :        -306.18535327 Ha       -8331.72737616 eV

  Derived energy quantities:
  | Kinetic energy                :         304.89398021 Ha        8296.58732731 eV
  | Electrostatic energy          :        -574.05239464 Ha      -15620.76043356 eV
  | Energy correction for multipole
  | error in Hartree potential    :          -0.00485074 Ha          -0.13199523 eV
  | Sum of eigenvalues per atom                           :        -379.43105015 eV
  | Total energy (T->0) per atom                          :        -694.31061468 eV  <-- do not rely on this value for anything but (periodic) metals
  | Electronic free energy per atom                       :        -694.31061468 eV

  Self-consistency convergence accuracy:
  | Change of charge density      : 0.2336E+00
  | Change of sum of eigenvalues  : -.7496E+01 eV
  | Change of total energy        : 0.1086E+00 eV

  End self-consistency iteration #     3       :  max(cpu_time)    wall_clock(cpu1)
  | Time for this iteration                    :        1.148 s           1.148 s
  | Charge density update                      :        0.358 s           0.359 s
  | Density mixing                             :        0.005 s           0.005 s
  | Hartree multipole update                   :        0.004 s           0.005 s
  | Hartree multipole summation                :        0.208 s           0.208 s
  | Integration                                :        0.539 s           0.539 s
  | Solution of K.-S. eqns.                    :        0.031 s           0.031 s
  | Total energy evaluation                    :        0.000 s           0.001 s
------------------------------------------------------------

------------------------------------------------------------
          Begin self-consistency iteration #    4

  Date     :  20150727, Time     :  120605.168
------------------------------------------------------------
  Evaluating new KS density.
  Integration grid: deviation in total charge (<rho> - N_e) =  -1.421085E-14
  Pulay mixing of updated and previous charge densities.

  Evaluating partitioned Hartree potential by multipole expansion.
  | Analytical far-field extrapolation by fixed multipoles:
  | Hartree multipole sum: apparent total charge =  -0.821228E-05
  Summing up the Hartree potential.
  Time summed over all CPUs for potential: real work        1.653 s, elapsed        1.663 s
  | RMS charge density error from multipole expansion :   0.150314E-01

  Integrating Hamiltonian matrix: batch-based integration.
  Time summed over all CPUs for integration: real work        4.249 s, elapsed        4.295 s

  Updating Kohn-Sham eigenvalues, eigenvectors, occupation numbers, and Fermi level.
  Solving generalized eigenproblem
  Updating Kohn-Sham eigenvalues and eigenfunctions.
  Solving real generalised eigenvalue problem by standard LAPACK (fast)
  Determining occupation numbers for Kohn-Sham eigenstates.
  | Chemical potential (Fermi level) in eV                 : -.26794512E+01
  | Error in electron count due to remaining E_F inaccuracy: 0.00000000E+00
  | Maximum occupation number of highest empty state:  0.00E+00

  Highest occupied state (VBM) at     -4.90282490 eV
  | Occupation number:      2.00000000

  Lowest unoccupied state (CBM) at    -1.92948133 eV
  | Occupation number:      0.00000000

  Overall HOMO-LUMO gap:      2.97334357 eV.

  Total energy components:
  | Sum of eigenvalues            :        -165.78214365 Ha       -4511.16165417 eV
  | XC energy correction          :         -37.21107541 Ha       -1012.56488065 eV
  | XC potential correction       :          47.56204757 Ha        1294.22916416 eV
  | Free-atom electrostatic energy:        -143.35891384 Ha       -3900.99452593 eV
  | Hartree energy correction     :          -7.38298269 Ha        -200.90118076 eV
  | van der Waals energy corr.    :           0.00000000 Ha           0.00000000 eV
  | Entropy correction            :           0.00000000 Ha           0.00000000 eV
  | ---------------------------
  | Total energy                  :        -306.17306802 Ha       -8331.39307735 eV
  | Total energy, T -> 0          :        -306.17306802 Ha       -8331.39307735 eV  <-- do not rely on this value for anything but (periodic) metals
  | Electronic free energy        :        -306.17306802 Ha       -8331.39307735 eV

  Derived energy quantities:
  | Kinetic energy                :         305.12270355 Ha        8302.81120591 eV
  | Electrostatic energy          :        -574.08469615 Ha      -15621.63940261 eV
  | Energy correction for multipole
  | error in Hartree potential    :          -0.00655274 Ha          -0.17830923 eV
  | Sum of eigenvalues per atom                           :        -375.93013785 eV
  | Total energy (T->0) per atom                          :        -694.28275645 eV  <-- do not rely on this value for anything but (periodic) metals
  | Electronic free energy per atom                       :        -694.28275645 eV

  Self-consistency convergence accuracy:
  | Change of charge density      : 0.1361E+00
  | Change of sum of eigenvalues  : 0.4201E+02 eV
  | Change of total energy        : 0.3343E+00 eV

  End self-consistency iteration #     4       :  max(cpu_time)    wall_clock(cpu1)
  | Time for this iteration                    :        1.149 s           1.148 s
  | Charge density update                      :        0.359 s           0.358 s
  | Density mixing                             :        0.007 s           0.007 s
  | Hartree multipole update                   :        0.004 s           0.004 s
  | Hartree multipole summation                :        0.209 s           0.209 s
  | Integration                                :        0.538 s           0.537 s
  | Solution of K.-S. eqns.                    :        0.030 s           0.031 s
  | Total energy evaluation                    :        0.000 s           0.000 s
------------------------------------------------------------

------------------------------------------------------------
          Begin self-consistency iteration #    5

  Date     :  20150727, Time     :  120606.317
------------------------------------------------------------
  Evaluating new KS density.
  Integration grid: deviation in total charge (<rho> - N_e) =   2.131628E-14
  Pulay mixing of updated and previous charge densities.

  Evaluating partitioned Hartree potential by multipole expansion.
  | Analytical far-field extrapolation by fixed multipoles:
  | Hartree multipole sum: apparent total charge =  -0.820125E-05
  Summing up the Hartree potential.
  Time summed over all CPUs for potential: real work        1.653 s, elapsed        1.663 s
  | RMS charge density error from multipole expansion :   0.152688E-01

  Integrating Hamiltonian matrix: batch-based integration.
  Time summed over all CPUs for integration: real work        4.248 s, elapsed        4.287 s

  Updating Kohn-Sham eigenvalues, eigenvectors, occupation numbers, and Fermi level.
  Solving generalized eigenproblem
  Updating Kohn-Sham eigenvalues and eigenfunctions.
  Solving real generalised eigenvalue problem by standard LAPACK (fast)
  Determining occupation numbers for Kohn-Sham eigenstates.
  | Chemical potential (Fermi level) in eV                 : -.26928110E+01
  | Error in electron count due to remaining E_F inaccuracy: 0.00000000E+00
  | Maximum occupation number of highest empty state:  0.00E+00

  Highest occupied state (VBM) at     -4.83524636 eV
  | Occupation number:      2.00000000

  Lowest unoccupied state (CBM) at    -1.93475171 eV
  | Occupation number:      0.00000000

  Overall HOMO-LUMO gap:      2.90049465 eV.

  Total energy components:
  | Sum of eigenvalues            :        -165.79184053 Ha       -4511.42551954 eV
  | XC energy correction          :         -37.21227491 Ha       -1012.59752066 eV
  | XC potential correction       :          47.56327934 Ha        1294.26268210 eV
  | Free-atom electrostatic energy:        -143.35891384 Ha       -3900.99452593 eV
  | Hartree energy correction     :          -7.37315022 Ha        -200.63362560 eV
  | van der Waals energy corr.    :           0.00000000 Ha           0.00000000 eV
  | Entropy correction            :           0.00000000 Ha           0.00000000 eV
  | ---------------------------
  | Total energy                  :        -306.17290016 Ha       -8331.38850962 eV
  | Total energy, T -> 0          :        -306.17290016 Ha       -8331.38850962 eV  <-- do not rely on this value for anything but (periodic) metals
  | Electronic free energy        :        -306.17290016 Ha       -8331.38850962 eV

  Derived energy quantities:
  | Kinetic energy                :         305.15590721 Ha        8303.71472343 eV
  | Electrostatic energy          :        -574.11653245 Ha      -15622.50571240 eV
  | Energy correction for multipole
  | error in Hartree potential    :          -0.00651609 Ha          -0.17731173 eV
  | Sum of eigenvalues per atom                           :        -375.95212663 eV
  | Total energy (T->0) per atom                          :        -694.28237580 eV  <-- do not rely on this value for anything but (periodic) metals
  | Electronic free energy per atom                       :        -694.28237580 eV

  Self-consistency convergence accuracy:
  | Change of charge density      : 0.2304E-01
  | Change of sum of eigenvalues  : -.2639E+00 eV
  | Change of total energy        : 0.4568E-02 eV

  End self-consistency iteration #     5       :  max(cpu_time)    wall_clock(cpu1)
  | Time for this iteration                    :        1.148 s           1.148 s
  | Charge density update                      :        0.358 s           0.358 s
  | Density mixing                             :        0.007 s           0.008 s
  | Hartree multipole update                   :        0.004 s           0.004 s
  | Hartree multipole summation                :        0.208 s           0.209 s
  | Integration                                :        0.537 s           0.537 s
  | Solution of K.-S. eqns.                    :        0.031 s           0.030 s
  | Total energy evaluation                    :        0.000 s           0.000 s
------------------------------------------------------------

------------------------------------------------------------
          Begin self-consistency iteration #    6

  Date     :  20150727, Time     :  120607.465
------------------------------------------------------------
  Evaluating new KS density.
  Integration grid: deviation in total charge (<rho> - N_e) =   0.000000E+00
  Pulay mixing of updated and previous charge densities.

  Evaluating partitioned Hartree potential by multipole expansion.
  | Analytical far-field extrapolation by fixed multipoles:
  | Hartree multipole sum: apparent total charge =  -0.830244E-05
  Summing up the Hartree potential.
  Time summed over all CPUs for potential: real work        1.653 s, elapsed        1.663 s
  | RMS charge density error from multipole expansion :   0.155857E-01

  Integrating Hamiltonian matrix: batch-based integration.
  Time summed over all CPUs for integration: real work        4.246 s, elapsed        4.288 s

  Updating Kohn-Sham eigenvalues, eigenvectors, occupation numbers, and Fermi level.
  Solving generalized eigenproblem
  Updating Kohn-Sham eigenvalues and eigenfunctions.
  Solving real generalised eigenvalue problem by standard LAPACK (fast)
  Determining occupation numbers for Kohn-Sham eigenstates.
  | Chemical potential (Fermi level) in eV                 : -.26649526E+01
  | Error in electron count due to remaining E_F inaccuracy: 0.00000000E+00
  | Maximum occupation number of highest empty state:  0.00E+00

  Highest occupied state (VBM) at     -4.76709206 eV
  | Occupation number:      2.00000000

  Lowest unoccupied state (CBM) at    -1.92546312 eV
  | Occupation number:      0.00000000

  Overall HOMO-LUMO gap:      2.84162894 eV.

  Total energy components:
  | Sum of eigenvalues            :        -165.71079453 Ha       -4509.22014587 eV
  | XC energy correction          :         -37.22313723 Ha       -1012.89309941 eV
  | XC potential correction       :          47.57736067 Ha        1294.64585456 eV
  | Free-atom electrostatic energy:        -143.35891384 Ha       -3900.99452593 eV
  | Hartree energy correction     :          -7.45753160 Ha        -202.92975977 eV
  | van der Waals energy corr.    :           0.00000000 Ha           0.00000000 eV
  | Entropy correction            :           0.00000000 Ha           0.00000000 eV
  | ---------------------------
  | Total energy                  :        -306.17301653 Ha       -8331.39167644 eV
  | Total energy, T -> 0          :        -306.17301653 Ha       -8331.39167644 eV  <-- do not rely on this value for anything but (periodic) metals
  | Electronic free energy        :        -306.17301653 Ha       -8331.39167644 eV

  Derived energy quantities:
  | Kinetic energy                :         305.17473107 Ha        8304.22694670 eV
  | Electrostatic energy          :        -574.12461037 Ha      -15622.72552373 eV
  | Energy correction for multipole
  | error in Hartree potential    :          -0.00660725 Ha          -0.17979235 eV
  | Sum of eigenvalues per atom                           :        -375.76834549 eV
  | Total energy (T->0) per atom                          :        -694.28263970 eV  <-- do not rely on this value for anything but (periodic) metals
  | Electronic free energy per atom                       :        -694.28263970 eV

  Self-consistency convergence accuracy:
  | Change of charge density      : 0.9338E-02
  | Change of sum of eigenvalues  : 0.2205E+01 eV
  | Change of total energy        : -.3167E-02 eV

  End self-consistency iteration #     6       :  max(cpu_time)    wall_clock(cpu1)
  | Time for this iteration                    :        1.151 s           1.150 s
  | Charge density update                      :        0.360 s           0.359 s
  | Density mixing                             :        0.009 s           0.009 s
  | Hartree multipole update                   :        0.004 s           0.004 s
  | Hartree multipole summation                :        0.209 s           0.209 s
  | Integration                                :        0.537 s           0.537 s
  | Solution of K.-S. eqns.                    :        0.030 s           0.031 s
  | Total energy evaluation                    :        0.000 s           0.001 s
------------------------------------------------------------

------------------------------------------------------------
          Begin self-consistency iteration #    7

  Date     :  20150727, Time     :  120608.616
------------------------------------------------------------
  Evaluating new KS density.
  Integration grid: deviation in total charge (<rho> - N_e) =   3.552714E-14
  Pulay mixing of updated and previous charge densities.

  Evaluating partitioned Hartree potential by multipole expansion.
  | Analytical far-field extrapolation by fixed multipoles:
  | Hartree multipole sum: apparent total charge =  -0.810009E-05
  Summing up the Hartree potential.
  Time summed over all CPUs for potential: real work        1.654 s, elapsed        1.663 s
  | RMS charge density error from multipole expansion :   0.154836E-01

  Integrating Hamiltonian matrix: batch-based integration.
  Time summed over all CPUs for integration: real work        4.245 s, elapsed        4.293 s

  Updating Kohn-Sham eigenvalues, eigenvectors, occupation numbers, and Fermi level.
  Solving generalized eigenproblem
  Updating Kohn-Sham eigenvalues and eigenfunctions.
  Solving real generalised eigenvalue problem by standard LAPACK (fast)
  Determining occupation numbers for Kohn-Sham eigenstates.
  | Chemical potential (Fermi level) in eV                 : -.27301489E+01
  | Error in electron count due to remaining E_F inaccuracy: 0.00000000E+00
  | Maximum occupation number of highest empty state:  0.00E+00

  Highest occupied state (VBM) at     -4.94841406 eV
  | Occupation number:      2.00000000

  Lowest unoccupied state (CBM) at    -1.94069529 eV
  | Occupation number:      0.00000000

  Overall HOMO-LUMO gap:      3.00771877 eV.

  Total energy components:
  | Sum of eigenvalues            :        -165.87099313 Ha       -4513.57937154 eV
  | XC energy correction          :         -37.20591326 Ha       -1012.42441127 eV
  | XC potential correction       :          47.55438509 Ha        1294.02065734 eV
  | Free-atom electrostatic energy:        -143.35891384 Ha       -3900.99452593 eV
  | Hartree energy correction     :          -7.29142920 Ha        -198.40988359 eV
  | van der Waals energy corr.    :           0.00000000 Ha           0.00000000 eV
  | Entropy correction            :           0.00000000 Ha           0.00000000 eV
  | ---------------------------
  | Total energy                  :        -306.17286434 Ha       -8331.38753499 eV
  | Total energy, T -> 0          :        -306.17286434 Ha       -8331.38753499 eV  <-- do not rely on this value for anything but (periodic) metals
  | Electronic free energy        :        -306.17286434 Ha       -8331.38753499 eV

  Derived energy quantities:
  | Kinetic energy                :         305.21996764 Ha        8305.45789646 eV
  | Electrostatic energy          :        -574.18691872 Ha      -15624.42102018 eV
  | Energy correction for multipole
  | error in Hartree potential    :          -0.00632823 Ha          -0.17219987 eV
  | Sum of eigenvalues per atom                           :        -376.13161429 eV
  | Total energy (T->0) per atom                          :        -694.28229458 eV  <-- do not rely on this value for anything but (periodic) metals
  | Electronic free energy per atom                       :        -694.28229458 eV

  Self-consistency convergence accuracy:
  | Change of charge density      : 0.1172E-01
  | Change of sum of eigenvalues  : -.4359E+01 eV
  | Change of total energy        : 0.4141E-02 eV

  End self-consistency iteration #     7       :  max(cpu_time)    wall_clock(cpu1)
  | Time for this iteration                    :        1.152 s           1.151 s
  | Charge density update                      :        0.359 s           0.359 s
  | Density mixing                             :        0.010 s           0.009 s
  | Hartree multipole update                   :        0.004 s           0.005 s
  | Hartree multipole summation                :        0.209 s           0.208 s
  | Integration                                :        0.538 s           0.538 s
  | Solution of K.-S. eqns.                    :        0.030 s           0.031 s
  | Total energy evaluation                    :        0.001 s           0.001 s
------------------------------------------------------------

------------------------------------------------------------
          Begin self-consistency iteration #    8

  Date     :  20150727, Time     :  120609.768
------------------------------------------------------------
  Evaluating new KS density.
  Integration grid: deviation in total charge (<rho> - N_e) =  -7.105427E-15
  Pulay mixing of updated and previous charge densities.

  Evaluating partitioned Hartree potential by multipole expansion.
  | Analytical far-field extrapolation by fixed multipoles:
  | Hartree multipole sum: apparent total charge =  -0.811912E-05
  Summing up the Hartree potential.
  Time summed over all CPUs for potential: real work        1.653 s, elapsed        1.663 s
  | RMS charge density error from multipole expansion :   0.155230E-01

  Integrating Hamiltonian matrix: batch-based integration.
  Time summed over all CPUs for integration: real work        4.246 s, elapsed        4.294 s

  Updating Kohn-Sham eigenvalues, eigenvectors, occupation numbers, and Fermi level.
  Solving generalized eigenproblem
  Updating Kohn-Sham eigenvalues and eigenfunctions.
  Solving real generalised eigenvalue problem by standard LAPACK (fast)
  Determining occupation numbers for Kohn-Sham eigenstates.
  | Chemical potential (Fermi level) in eV                 : -.27238243E+01
  | Error in electron count due to remaining E_F inaccuracy: 0.00000000E+00
  | Maximum occupation number of highest empty state:  0.00E+00

  Highest occupied state (VBM) at     -4.92370297 eV
  | Occupation number:      2.00000000

  Lowest unoccupied state (CBM) at    -1.94009595 eV
  | Occupation number:      0.00000000

  Overall HOMO-LUMO gap:      2.98360702 eV.

  Total energy components:
  | Sum of eigenvalues            :        -165.85447339 Ha       -4513.12984640 eV
  | XC energy correction          :         -37.20775345 Ha       -1012.47448545 eV
  | XC potential correction       :          47.55679620 Ha        1294.08626710 eV
  | Free-atom electrostatic energy:        -143.35891384 Ha       -3900.99452593 eV
  | Hartree energy correction     :          -7.30851881 Ha        -198.87491537 eV
  | van der Waals energy corr.    :           0.00000000 Ha           0.00000000 eV
  | Entropy correction            :           0.00000000 Ha           0.00000000 eV
  | ---------------------------
  | Total energy                  :        -306.17286328 Ha       -8331.38750605 eV
  | Total energy, T -> 0          :        -306.17286328 Ha       -8331.38750605 eV  <-- do not rely on this value for anything but (periodic) metals
  | Electronic free energy        :        -306.17286328 Ha       -8331.38750605 eV

  Derived energy quantities:
  | Kinetic energy                :         305.22063250 Ha        8305.47598824 eV
  | Electrostatic energy          :        -574.18574233 Ha      -15624.38900884 eV
  | Energy correction for multipole
  | error in Hartree potential    :          -0.00635390 Ha          -0.17289849 eV
  | Sum of eigenvalues per atom                           :        -376.09415387 eV
  | Total energy (T->0) per atom                          :        -694.28229217 eV  <-- do not rely on this value for anything but (periodic) metals
  | Electronic free energy per atom                       :        -694.28229217 eV

  Self-consistency convergence accuracy:
  | Change of charge density      : 0.2028E-02
  | Change of sum of eigenvalues  : 0.4495E+00 eV
  | Change of total energy        : 0.2894E-04 eV

  End self-consistency iteration #     8       :  max(cpu_time)    wall_clock(cpu1)
  | Time for this iteration                    :        1.154 s           1.153 s
  | Charge density update                      :        0.360 s           0.359 s
  | Density mixing                             :        0.011 s           0.011 s
  | Hartree multipole update                   :        0.004 s           0.004 s
  | Hartree multipole summation                :        0.209 s           0.209 s
  | Integration                                :        0.538 s           0.538 s
  | Solution of K.-S. eqns.                    :        0.030 s           0.030 s
  | Total energy evaluation                    :        0.001 s           0.001 s
------------------------------------------------------------

------------------------------------------------------------
          Begin self-consistency iteration #    9

  Date     :  20150727, Time     :  120610.921
------------------------------------------------------------
  Evaluating new KS density.
  Integration grid: deviation in total charge (<rho> - N_e) =   7.105427E-15
  Pulay mixing of updated and previous charge densities.

  Evaluating partitioned Hartree potential by multipole expansion.
  | Analytical far-field extrapolation by fixed multipoles:
  | Hartree multipole sum: apparent total charge =  -0.812038E-05
  Summing up the Hartree potential.
  Time summed over all CPUs for potential: real work        1.653 s, elapsed        1.663 s
  | RMS charge density error from multipole expansion :   0.155373E-01

  Integrating Hamiltonian matrix: batch-based integration.
  Time summed over all CPUs for integration: real work        4.245 s, elapsed        4.293 s

  Updating Kohn-Sham eigenvalues, eigenvectors, occupation numbers, and Fermi level.
  Solving generalized eigenproblem
  Updating Kohn-Sham eigenvalues and eigenfunctions.
  Solving real generalised eigenvalue problem by standard LAPACK (fast)
  Determining occupation numbers for Kohn-Sham eigenstates.
  | Chemical potential (Fermi level) in eV                 : -.27225780E+01
  | Error in electron count due to remaining E_F inaccuracy: 0.00000000E+00
  | Maximum occupation number of highest empty state:  0.00E+00

  Highest occupied state (VBM) at     -4.92264693 eV
  | Occupation number:      2.00000000

  Lowest unoccupied state (CBM) at    -1.94011599 eV
  | Occupation number:      0.00000000

  Overall HOMO-LUMO gap:      2.98253094 eV.

  Total energy components:
  | Sum of eigenvalues            :        -165.85125402 Ha       -4513.04224284 eV
  | XC energy correction          :         -37.20805738 Ha       -1012.48275597 eV
  | XC potential correction       :          47.55718074 Ha        1294.09673089 eV
  | Free-atom electrostatic energy:        -143.35891384 Ha       -3900.99452593 eV
  | Hartree energy correction     :          -7.31181859 Ha        -198.96470707 eV
  | van der Waals energy corr.    :           0.00000000 Ha           0.00000000 eV
  | Entropy correction            :           0.00000000 Ha           0.00000000 eV
  | ---------------------------
  | Total energy                  :        -306.17286309 Ha       -8331.38750092 eV
  | Total energy, T -> 0          :        -306.17286309 Ha       -8331.38750092 eV  <-- do not rely on this value for anything but (periodic) metals
  | Electronic free energy        :        -306.17286309 Ha       -8331.38750092 eV

  Derived energy quantities:
  | Kinetic energy                :         305.22383973 Ha        8305.56326136 eV
  | Electrostatic energy          :        -574.18864543 Ha      -15624.46800631 eV
  | Energy correction for multipole
  | error in Hartree potential    :          -0.00635518 Ha          -0.17293312 eV
  | Sum of eigenvalues per atom                           :        -376.08685357 eV
  | Total energy (T->0) per atom                          :        -694.28229174 eV  <-- do not rely on this value for anything but (periodic) metals
  | Electronic free energy per atom                       :        -694.28229174 eV

  Self-consistency convergence accuracy:
  | Change of charge density      : 0.1009E-02
  | Change of sum of eigenvalues  : 0.8760E-01 eV
  | Change of total energy        : 0.5129E-05 eV

  End self-consistency iteration #     9       :  max(cpu_time)    wall_clock(cpu1)
  | Time for this iteration                    :        1.154 s           1.154 s
  | Charge density update                      :        0.359 s           0.358 s
  | Density mixing                             :        0.012 s           0.012 s
  | Hartree multipole update                   :        0.004 s           0.004 s
  | Hartree multipole summation                :        0.208 s           0.209 s
  | Integration                                :        0.538 s           0.538 s
  | Solution of K.-S. eqns.                    :        0.030 s           0.030 s
  | Total energy evaluation                    :        0.000 s           0.000 s
------------------------------------------------------------

------------------------------------------------------------
          Begin self-consistency iteration #   10

  Date     :  20150727, Time     :  120612.075
------------------------------------------------------------
  Evaluating new KS density.
  Integration grid: deviation in total charge (<rho> - N_e) =   4.263256E-14
  Pulay mixing of updated and previous charge densities.

  Evaluating partitioned Hartree potential by multipole expansion.
  | Analytical far-field extrapolation by fixed multipoles:
  | Hartree multipole sum: apparent total charge =  -0.811131E-05
  Summing up the Hartree potential.
  Time summed over all CPUs for potential: real work        1.653 s, elapsed        1.663 s
  | RMS charge density error from multipole expansion :   0.155357E-01

  Integrating Hamiltonian matrix: batch-based integration.
  Time summed over all CPUs for integration: real work        4.249 s, elapsed        4.296 s

  Updating Kohn-Sham eigenvalues, eigenvectors, occupation numbers, and Fermi level.
  Solving generalized eigenproblem
[...]
  |                                 -0.01047216       0.11657253      -0.00891753
  |                                  0.01077354      -0.00891753       0.10695661
  ----------------------------------------------------------------------


  Total energy components:
  | Sum of eigenvalues            :        -165.85611933 Ha       -4513.17463489 eV
  | XC energy correction          :         -37.20737206 Ha       -1012.46410732 eV
  | XC potential correction       :          47.55626651 Ha        1294.07185351 eV
  | Free-atom electrostatic energy:        -143.35891384 Ha       -3900.99452593 eV
  | Hartree energy correction     :          -7.30672323 Ha        -198.82605532 eV
  | van der Waals energy corr.    :          -0.00150531 Ha          -0.04096154 eV
  | Entropy correction            :           0.00000000 Ha           0.00000000 eV
  | ---------------------------
  | Total energy                  :        -306.17436726 Ha       -8331.42843149 eV
  | Total energy, T -> 0          :        -306.17436726 Ha       -8331.42843149 eV  <-- do not rely on this value for anything but (periodic) metals
  | Electronic free energy        :        -306.17436726 Ha       -8331.42843149 eV

  Derived energy quantities:
  | Kinetic energy                :         305.22554785 Ha        8305.60974185 eV
  | Electrostatic energy          :        -574.19103774 Ha      -15624.53310448 eV
  | Energy correction for multipole
  | error in Hartree potential    :          -0.00635073 Ha          -0.17281212 eV
  | Sum of eigenvalues per atom                           :        -376.09788624 eV
  | Total energy (T->0) per atom                          :        -694.28570262 eV  <-- do not rely on this value for anything but (periodic) metals
  | Electronic free energy per atom                       :        -694.28570262 eV

  atomic forces [eV/Ang]:
  -----------------------
  atom #    1
   Hellmann-Feynman + Multipole  : -.709067E+01 -.110350E+02 0.345395E+01
   Pulay + GGA                   : 0.570311E+01 0.145963E+02 -.560010E+01
   Van der Waals               : -.151895E-02 0.136144E-02 -.513247E-02
   ----------------------------------------------------------------
   Total forces(   1)            : -.138908E+01 0.356259E+01 -.215129E+01
  atom #    2
   Hellmann-Feynman + Multipole  : 0.222900E+01 -.360686E+01 0.151377E+01
   Pulay + GGA                   : -.309046E-01 0.939774E-01 -.498696E-01
   Van der Waals               : -.792652E-03 0.458252E-02 0.159130E-02
   ----------------------------------------------------------------
   Total forces(   2)            : 0.219730E+01 -.350830E+01 0.146549E+01
  atom #    3
   Hellmann-Feynman + Multipole  : -.192314E+01 -.365548E+00 -.316296E+00
   Pulay + GGA                   : 0.674198E-01 0.209250E-01 0.188753E-01
   Van der Waals               : -.733416E-03 0.299226E-02 -.395044E-03
   ----------------------------------------------------------------
   Total forces(   3)            : -.185646E+01 -.341630E+00 -.297815E+00
  atom #    4
   Hellmann-Feynman + Multipole  : 0.836813E+01 -.501631E+01 -.156124E+02
   Pulay + GGA                   : -.870353E+01 0.361060E+01 0.152519E+02
   Van der Waals               : 0.141453E-02 0.507498E-03 0.389818E-02
   ----------------------------------------------------------------
   Total forces(   4)            : -.333984E+00 -.140520E+01 -.356614E+00
  atom #    5
   Hellmann-Feynman + Multipole  : -.462861E+00 0.407128E+00 0.855970E+00
   Pulay + GGA                   : 0.404558E-01 0.928390E-01 0.114169E+00
   Van der Waals               : 0.197313E-02 0.180292E-02 -.221898E-02
   ----------------------------------------------------------------
   Total forces(   5)            : -.420432E+00 0.501770E+00 0.967921E+00
  atom #    6
   Hellmann-Feynman + Multipole  : 0.691274E+00 0.840823E+00 0.243051E+00
   Pulay + GGA                   : -.112470E+00 -.588011E-01 0.639821E-01
   Van der Waals               : 0.931558E-03 0.900431E-03 -.126080E-02
   ----------------------------------------------------------------
   Total forces(   6)            : 0.579735E+00 0.782922E+00 0.305772E+00
  atom #    7
   Hellmann-Feynman + Multipole  : -.628887E+01 0.720276E+00 -.103319E+02
   Pulay + GGA                   : 0.916595E+01 -.332589E+00 0.118605E+02
   Van der Waals               : 0.183076E-03 0.309130E-02 0.398194E-02
   ----------------------------------------------------------------
   Total forces(   7)            : 0.287727E+01 0.390778E+00 0.153259E+01
  atom #    8
   Hellmann-Feynman + Multipole  : -.145894E+00 -.104738E+01 -.125698E+01
   Pulay + GGA                   : 0.339226E-01 0.964180E-01 0.100584E+00
   Van der Waals               : -.188819E-02 0.244863E-02 0.146775E-02
   ----------------------------------------------------------------
   Total forces(   8)            : -.113859E+00 -.948517E+00 -.115493E+01
  atom #    9
   Hellmann-Feynman + Multipole  : -.163960E+01 0.101603E+01 -.316746E+00
   Pulay + GGA                   : 0.125057E+00 -.531075E-01 0.201479E-01
   Van der Waals               : -.222457E-02 0.279205E-03 0.315688E-03
   ----------------------------------------------------------------
   Total forces(   9)            : -.151677E+01 0.963201E+00 -.296282E+00
  atom #   10
   Hellmann-Feynman + Multipole  : -.146069E+02 -.503743E+01 0.649744E+00
   Pulay + GGA                   : 0.157708E+02 0.636108E+01 -.117596E+01
   Van der Waals               : 0.220715E-02 -.951009E-02 -.751580E-03
   ----------------------------------------------------------------
   Total forces(  10)            : 0.116611E+01 0.131414E+01 -.526969E+00
  atom #   11
   Hellmann-Feynman + Multipole  : -.649644E+00 0.170095E+00 -.184357E+00
   Pulay + GGA                   : 0.140554E+00 -.703551E-01 0.449271E-01
   Van der Waals               : 0.227789E-03 -.698718E-02 -.149865E-02
   ----------------------------------------------------------------
   Total forces(  11)            : -.508862E+00 0.927529E-01 -.140928E+00
  atom #   12
   Hellmann-Feynman + Multipole  : -.734364E+00 -.151870E+01 0.710987E+00
   Pulay + GGA                   : 0.572468E-01 0.115098E+00 -.591057E-01
   Van der Waals               : 0.220539E-03 -.146893E-02 0.265905E-05
   ----------------------------------------------------------------
   Total forces(  12)            : -.676897E+00 -.140507E+01 0.651884E+00
  Timings for vdw_correction_hirshfeld (Tkatchenko-Scheffler 2009):
  | CPU time:        3.019 s, Wall clock time:        3.021 s.
  Removing unitary transformations (pure translations, rotations) from forces on atoms.
  Atomic forces before filtering:
  | Net force on center of mass :  0.406943E-02 -.558117E-03 -.116259E-02 eV/A
  | Net torque on center of mass:  0.748899E-02 0.587018E-02 -.135042E-01 eV
  Atomic forces after filtering:
  | Net force on center of mass :  -.892031E-16 0.356812E-15 0.892031E-16 eV/A
  | Net torque on center of mass:  0.755268E-15 -.113290E-14 -.226580E-14 eV
 
  Energy and forces in a compact form:
  | Total energy uncorrected      :         -0.833142843148638E+04 eV
  | Total energy corrected        :         -0.833142843148638E+04 eV  <-- do not rely on this value for anything but (periodic) metals
  | Electronic free energy        :         -0.833142843148638E+04 eV
  Total atomic forces (unitary forces cleaned) [eV/Ang]:
  |   1         -0.138886749759988E+01          0.356230803362168E+01         -0.215108513961021E+01
  |   2          0.219735927123347E+01         -0.350879124295893E+01          0.146541199742399E+01
  |   3         -0.185632358066659E+01         -0.341641584188234E+00         -0.297445038811071E+00
  |   4         -0.334228180971715E+00         -0.140518080567830E+01         -0.356472893460537E+00
  |   5         -0.420997131227614E+00          0.501958193408458E+00          0.967980898203773E+00
  |   6          0.579553674908595E+00          0.782779012349124E+00          0.305819453541001E+00
  |   7          0.287726571209403E+01          0.391144917896732E+00          0.153317914301450E+01
  |   8         -0.114207919416953E+00         -0.947986585811389E+00         -0.115443813982223E+01
  |   9         -0.151664273724136E+01          0.963812000332808E+00         -0.295405181034590E+00
  |  10          0.116505677938739E+01          0.131396249879534E+01         -0.527537239493661E+00
  |  11         -0.509883682297767E+00          0.928652291917784E-01         -0.141239923060421E+00
  |  12         -0.678084708201604E+00         -0.140522966695906E+01          0.651232063109454E+00
 
  ------------------------------------ 
  Start decomposition of the XC Energy 
  ------------------------------------ 
  Hartree-Fock part   :          0.000000000 Ha              0.000000000 eV
  ------------------------------------ 
  X Energy            :        -35.906231413 Ha           -977.058268932 eV
  C Energy GGA        :         -1.301140645 Ha            -35.405838390 eV
  Total XC Energy     :        -37.207372059 Ha          -1012.464107322 eV
  LDA X and C from self-consistent density 
  X Energy LDA        :        -32.339591133 Ha           -880.005048904 eV
  C Energy LDA        :         -2.634760769 Ha            -71.695488355 eV
  ------------------------------------ 
  End decomposition of the XC Energy 
  ------------------------------------ 
  Performing Hirshfeld analysis of fragment charges and moments.
  ----------------------------------------------------------------------
  | Atom     1: O
  |   Hirshfeld charge        :     -0.33268279
  |   Free atom volume        :     23.95238533
  |   Hirshfeld volume        :     23.46414632
  |   Hirshfeld dipole vector :      0.02759789       0.04706102       0.02419101
  |   Hirshfeld dipole moment :      0.05967905
  |   Hirshfeld second moments:      0.01340170      -0.02836424       0.01751899
  |                                 -0.02836424      -0.02831463      -0.03641952
  |                                  0.01751899      -0.03641952      -0.06786053
  ----------------------------------------------------------------------
  | Atom     2: H
  |   Hirshfeld charge        :      0.11376989
  |   Free atom volume        :     10.44207651
  |   Hirshfeld volume        :      7.61179639
  |   Hirshfeld dipole vector :     -0.05979968       0.08584094      -0.03162377
  |   Hirshfeld dipole moment :      0.10929196
  |   Hirshfeld second moments:      0.10555274       0.00416241       0.00716417
  |                                  0.00416241       0.06275742      -0.00780983
  |                                  0.00716417      -0.00780983       0.07671871
  ----------------------------------------------------------------------
  | Atom     3: H
  |   Hirshfeld charge        :      0.05900782
  |   Free atom volume        :     10.44207651
  |   Hirshfeld volume        :      8.36375100
  |   Hirshfeld dipole vector :      0.04608259       0.00724618       0.01482784
  |   Hirshfeld dipole moment :      0.04894872
  |   Hirshfeld second moments:      0.02600787      -0.02717882      -0.00076699
  |                                 -0.02717882       0.07686803      -0.00438204
  |                                 -0.00076699      -0.00438204       0.06074727
  ----------------------------------------------------------------------
  | Atom     4: O
  |   Hirshfeld charge        :     -0.28300102
  |   Free atom volume        :     23.95238533
  |   Hirshfeld volume        :     21.76322319
  |   Hirshfeld dipole vector :     -0.03192328       0.01997815       0.01729087
  |   Hirshfeld dipole moment :      0.04143907
  |   Hirshfeld second moments:      0.02952834       0.05729638      -0.00857161
  |                                  0.05729638       0.03482117       0.02762764
  |                                 -0.00857161       0.02762764       0.00194994
  ----------------------------------------------------------------------
  | Atom     5: H
  |   Hirshfeld charge        :      0.13034949
  |   Free atom volume        :     10.44207651
  |   Hirshfeld volume        :      6.61391776
  |   Hirshfeld dipole vector :      0.03535345       0.09755619       0.06031385
  |   Hirshfeld dipole moment :      0.12002015
  |   Hirshfeld second moments:      0.11590988       0.01776233      -0.00720278
  |                                  0.01776233       0.10129483       0.00414397
  |                                 -0.00720278       0.00414397       0.09909891
  ----------------------------------------------------------------------
  | Atom     6: H
  |   Hirshfeld charge        :      0.14348153
  |   Free atom volume        :     10.44207651
  |   Hirshfeld volume        :      6.46656448
  |   Hirshfeld dipole vector :     -0.10410537      -0.06345977       0.02112386
  |   Hirshfeld dipole moment :      0.12373879
  |   Hirshfeld second moments:      0.10289944       0.01256070       0.00028961
  |                                  0.01256070       0.11883574       0.01373587
  |                                  0.00028961       0.01373587       0.10695357
  ----------------------------------------------------------------------
  | Atom     7: O
  |   Hirshfeld charge        :     -0.17952635
  |   Free atom volume        :     23.95238533
  |   Hirshfeld volume        :     20.38798182
  |   Hirshfeld dipole vector :     -0.01722546      -0.02820085       0.02672318
  |   Hirshfeld dipole moment :      0.04249862
  |   Hirshfeld second moments:      0.07412673      -0.02655640       0.00615938
  |                                 -0.02655640       0.08211958       0.03799372
  |                                  0.00615938       0.03799372       0.05173534
  ----------------------------------------------------------------------
  | Atom     8: H
  |   Hirshfeld charge        :      0.16672183
  |   Free atom volume        :     10.44207651
  |   Hirshfeld volume        :      5.98061639
  |   Hirshfeld dipole vector :      0.00285481       0.07045554       0.09324464
  |   Hirshfeld dipole moment :      0.11690465
  |   Hirshfeld second moments:      0.13061706      -0.00807252       0.00434850
  |                                 -0.00807252       0.12629603       0.00176188
  |                                  0.00434850       0.00176188       0.11622239
  ----------------------------------------------------------------------
  | Atom     9: H
  |   Hirshfeld charge        :      0.17683002
  |   Free atom volume        :     10.44207651
  |   Hirshfeld volume        :      5.65902790
  |   Hirshfeld dipole vector :      0.09144324      -0.07889028       0.01150502
  |   Hirshfeld dipole moment :      0.12131738
  |   Hirshfeld second moments:      0.12735492       0.00188405       0.00071374
  |                                  0.00188405       0.13238672       0.01565877
  |                                  0.00071374       0.01565877       0.13477736
  ----------------------------------------------------------------------
  | Atom    10: O
  |   Hirshfeld charge        :     -0.28077468
  |   Free atom volume        :     23.95238533
  |   Hirshfeld volume        :     21.83543902
  |   Hirshfeld dipole vector :      0.04469734       0.01343231      -0.00763645
  |   Hirshfeld dipole moment :      0.04729265
  |   Hirshfeld second moments:      0.01686009      -0.01415185       0.02113218
  |                                 -0.01415185       0.04995880      -0.05108738
  |                                  0.02113218      -0.05108738      -0.01571422
  ----------------------------------------------------------------------
  | Atom    11: H
  |   Hirshfeld charge        :      0.13673301
  |   Free atom volume        :     10.44207651
  |   Hirshfeld volume        :      6.46517008
  |   Hirshfeld dipole vector :      0.10026109      -0.04784763       0.04115292
  |   Hirshfeld dipole moment :      0.11847044
  |   Hirshfeld second moments:      0.10487044       0.00915864       0.00228461
  |                                  0.00915864       0.11913091      -0.01575518
  |                                  0.00228461      -0.01575518       0.10526879
  ----------------------------------------------------------------------
  | Atom    12: H
  |   Hirshfeld charge        :      0.14910574
  |   Free atom volume        :     10.44207651
  |   Hirshfeld volume        :      6.13529489
  |   Hirshfeld dipole vector :      0.03623330       0.10615428      -0.05431131
  |   Hirshfeld dipole moment :      0.12462465
  |   Hirshfeld second moments:      0.12674887      -0.01047216       0.01077354
  |                                 -0.01047216       0.11657253      -0.00891753
  |                                  0.01077354      -0.00891753       0.10695661
  ----------------------------------------------------------------------


------------------------------------------------------------------------------
  Final output of selected total energy values:

  The following output summarizes some interesting total energy values
  at the end of a run (AFTER all relaxation, molecular dynamics, etc.).

  | Total energy of the DFT / Hartree-Fock s.c.f. calculation      :          -8331.428431486 eV
  | Final zero-broadening corrected energy (caution - metals only) :          -8331.428431486 eV
  | For reference only, the value of 1 Hartree used in FHI-aims is :             27.211384500 eV

  Before relying on these values, please be sure to understand exactly which
  total energy value is referred to by a given number. Different objects may
  all carry the same name 'total energy'. Definitions:

  Total energy of the DFT / Hartree-Fock s.c.f. calculation:
  | Note that this energy does not include ANY quantities calculated after the
  | s.c.f. cycle, in particular not ANY RPA, MP2, etc. many-body perturbation terms.

  Final zero-broadening corrected energy:
  | For metallic systems only, a broadening of the occupation numbers at the Fermi
  | level can be extrapolated back to zero broadening by an electron-gas inspired
  | formula. For all systems that are not real metals, this value can be
  | meaningless and should be avoided.

------------------------------------------------------------------------------

------------------------------------------------------------
          Leaving FHI-aims.
          Date     :  20150727, Time     :  120621.325

          Computational steps:
          | Number of self-consistency cycles          :           15

          Detailed time accounting                     :  max(cpu_time)    wall_clock(cpu1)
          | Total time                                 :       21.396 s          21.424 s
          | Preparation time                           :        0.172 s           0.545 s
          | Grid partitioning                          :        0.123 s           0.123 s
          | Preloading free-atom quantities on grid    :        0.014 s           0.013 s
          | Free-atom superposition energy             :        0.046 s           0.046 s
          | Total time for integrations                :        8.901 s           8.899 s
          | Total time for solution of K.-S. equations :        0.578 s           0.578 s
          | Total time for density & force components  :        6.923 s           6.917 s
          | Total time for mixing                      :        0.149 s           0.151 s
          | Total time for Hartree multipole update    :        0.061 s           0.064 s
          | Total time for Hartree multipole sum       :        3.830 s           3.835 s
          | Total time for total energy evaluation     :        0.008 s           0.021 s
          | Total time for scaled ZORA corrections     :        0.000 s           0.000 s
          | Total time for TS (2009) vdW correction    :        0.038 s           0.040 s

          Have a nice day.
------------------------------------------------------------
