begin 
comment This RuNNer input has been created automatically by fhiaims2runner 
comment relativistic  atomic zora scalar 
atom    -7.659119727    0.122834137   -2.882135845   O   -0.370203460    0.000000000    0.014377145    0.050479803   -0.015924217 
atom    -8.629834630    1.842130327   -3.614707366   H    0.070028930    0.000000000    0.035102597   -0.056013212    0.023812331 
atom    -5.797341910    0.623934903   -2.791712414   H    0.102486280    0.000000000   -0.040194583   -0.009527140   -0.002736815 
atom   -10.002626720    4.142526981   -4.400795953   O   -0.170175170    0.000000000    0.004963304    0.018388737    0.050416429 
atom    -9.126058011    5.647751131   -3.730037398   H    0.188499310    0.000000000   -0.008412950   -0.011898548   -0.007927564 
atom   -10.258514637    4.400493597   -6.113587703   H    0.179387760    0.000000000   -0.005835514    0.008570360   -0.047640164 
energy   -153.09136099 
charge      0.00000000 
end 
