  MPI-parallelism will be employed.
------------------------------------------------------------
          Invoking FHI-aims ...
          Version 081213
          Compiled on 2013/08/29 at 17:41:06 on host generoso.

          When using FHI-aims, please cite the following reference:

          Volker Blum, Ralf Gehrke, Felix Hanke, Paula Havu,
          Ville Havu, Xinguo Ren, Karsten Reuter, and Matthias Scheffler,
          'Ab Initio Molecular Simulations with Numeric Atom-Centered Orbitals: FHI-aims',
          Computer Physics Communications 180, 2175-2196 (2009)

          For any questions about FHI-aims, please visit the aimsclub website
          with its forums and wiki. Contributions to both the forums and the
          wiki are warmly encouraged - they are for you, and everyone is welcome there.

------------------------------------------------------------

  Date     :  20150727, Time     :  123755.870
  Time zero on CPU 1             :   0.459920000000000E-01  s.
  Internal wall clock time zero  :           207232675.870  s.

  Using        8 parallel tasks.
  Task        0 on host gen60 reporting.
  Task        1 on host gen60 reporting.
  Task        2 on host gen60 reporting.
  Task        3 on host gen60 reporting.
  Task        4 on host gen60 reporting.
  Task        5 on host gen60 reporting.
  Task        6 on host gen60 reporting.
  Task        7 on host gen60 reporting.

  Performing system and environment tests:
  | Environment variable OMP_NUM_THREADS correctly set to 1.
  | Checking for scalapack...
  | No scalapack compiled in.

  Obtaining array dimensions for all initial allocations:
  
  -----------------------------------------------------------------------
  Parsing control.in (first pass over file, find array dimensions only).
  The contents of control.in will be repeated verbatim below
  unless switched off by setting 'verbatim_writeout .false.' .
  in the first line of control.in .
  -----------------------------------------------------------------------
  
  #########################################################################################
  #
  #  Volker Blum, FHI 2008 : Test run input file control.in
  #
  #########################################################################################
  #
  #  Physical model
  #
    xc                 rpbe
    spin               none
    relativistic       atomic_zora scalar
    charge             0.
   vdw_correction_hirshfeld
  #
  #  SCF convergence
  #
    occupation_type    gaussian 0.01
    mixer              pulay
      n_max_pulay        10
      charge_mix_param   0.1
    sc_accuracy_rho    5E-5
    sc_accuracy_eev    5E-3
    sc_accuracy_etot   5E-6
    sc_iter_limit      3000
  #
  #  Eigenvalue solver
  #
    KS_method          lapack
      empty_states       8
      basis_threshold    0.e-5
  #
  #  Efficiency
  #
  #   all previous settings are now default, except stratmann still
  #   undecided. Continue to handle stratmann with care, if at all.
  #
  #  partition_type stratmann
    partition_type rho_r2
  #  hartree_partition_type stratmann
  #
  #  Oprions for large clusters (100's of atoms: memory saving / better scaling)
  #
  # for periodic systems:
  #
    density_update_method orbital
    packed_matrix_format none
  #  k_grid 6 6 6
  #  output k_eigenvalue 1
  #  distributed_spline_storage .true.
  #
  #  Relaxation
  #
  #  relax_geometry   bfgs 5.e-3
    sc_accuracy_forces 5.E-4
    final_forces_cleaned .true.
  #
  #  Output options
  #
  #  output mulliken
    output Hirshfeld
  #  output dipole
  
  #harmonic_length_scale 0.001
  
  ################################################################################
  #
  #  FHI-aims code project
  #  VB, Fritz-Haber Institut, 2007
  #
  #  Suggested "safe" defaults for H atom (to be pasted into control.in file)
  #  Basis constructed for a non-relativistic H2 molecule using the
  #  PW-LDA functional.
  #
  ################################################################################
    species        H
  #     global species definitions
      nucleus             1
      cut_pot             4.0  2.0  1.0
      cut_free_atom       finite 8.0
      logarithmic         0.00010000 100.00  1.0123
      basis_dep_cutoff    1d-4  # 1d-4 is safe default - please check 5d-4 if you wish!
      radial_base         24 7.0
      radial_multiplier   2
      angular_grids       specified
        division   0.2783  110
        division   0.3822  194
        division   0.5626  302
  #      division   0.5922  434
  #      division   0.6227  590
  #      division   0.7206  770
        outer_grid  302
      l_hartree           4
  ################################################################################
  #
  #  Definition of "minimal" basis
  #
  ################################################################################
  #     valence basis states
      valence      1  s   1.
  #     ion occupancy
      ion_occ      1  s   0.5
  ################################################################################
  #
  #  Suggested additional basis functions. For production calculations,
  #  uncomment them one after another (the most important basis functions are
  #  listed first).
  #
  ################################################################################
  #  "First tier" - improvements: -1014.90 meV to -62.69 meV
       hydro 2 s 2.1
       hydro 2 p 3.5
  #  "Second tier" - improvements: -12.89 meV to -1.83 meV
       hydro 1 s 0.85
       hydro 2 p 3.7
       hydro 2 s 1.2
       hydro 3 d 7
  #  "Third tier" - improvements: -0.25 meV to -0.12 meV
  #     hydro 4 f 11.2
  #     hydro 3 p 4.8
  #     hydro 4 d 9
  #     hydro 3 s 3.2
  
  ################################################################################
  #
  #  FHI-aims code project
  #  VB, Fritz-Haber Institut, 2007
  #
  #  Suggested "safe" defaults for O atom (to be pasted into control.in file)
  #  All values have been tested for a non-relativistic, non-spinpolarized O2
  #  molecule using the PW-LDA functional. Validity for PBE is expected.
  #
  #  Constructed for dimers: 1.0 A, 1.208 A, 1.5 A, 2.0 A, 3.0 A
  #
  ################################################################################
    species        O
  #     global species definitions
      nucleus             8
      mass                15.9994
      l_hartree           4
      cut_pot             4.0  2.0  1.0
      cut_free_atom       finite 8.0
      basis_dep_cutoff    1d-4  # 1d-4 is safe default - please check 5d-4 if you wish!
      logarithmic         0.00010000 100.00  1.0123
      radial_base         36 7.0
      radial_multiplier   2
       angular_grids specified
        division   0.4087  110
        division   0.5181  194
        division   0.6184  302
  #      division   0.7315  434
  #      division   0.7934  590
  #      division   0.9656  770
  #      division   1.4041  974
  #      outer_grid 974
        outer_grid 302
  ################################################################################
  #
  #  Definition of "minimal" basis
  #
  ################################################################################
  #     valence basis states
      valence      2  s   2.
      valence      2  p   4.
  #     ion occupancy
      ion_occ      2  s   1.
      ion_occ      2  p   3.
  ################################################################################
  #
  #  Suggested additional basis functions. For production calculations,
  #  uncomment them one after another (the most important basis functions are
  #  listed first).
  #
  ################################################################################
  #  "First tier" - improvements: -699.05 meV to -159.38 meV
       hydro 2 p 1.8
       hydro 3 d 7.6
       hydro 3 s 6.4
  #  "Second tier" - improvements: -49.91 meV to -5.39 meV
       hydro 4 f 11.6
       hydro 3 p 6.2
       hydro 3 d 5.6
       hydro 5 g 17.6
       hydro 1 s 0.75
  #  "Third tier" - improvements: -2.83 meV to -0.50 meV
  #     ionic 2 p auto
  #     hydro 4 f 10.8
  #     hydro 4 d 4.7
  #     hydro 2 s 6.8
  #  "Fourth tier" - improvements: -0.40 meV to -0.12 meV
  #     hydro 3 p 5
  #     hydro 3 s 3.3
  #     hydro 5 g 15.6
  #     hydro 4 f 17.6
  #     hydro 4 d 14
  # Further basis functions - -0.08 meV and below
  #     hydro 3 s 2.1
  #     hydro 4 d 11.6
  #     hydro 3 p 16
  #     hydro 2 s 17.2
  
  
  -----------------------------------------------------------------------
  Completed first pass over input file control.in .
  -----------------------------------------------------------------------
  
  
  -----------------------------------------------------------------------
  Parsing geometry.in (first pass over file, find array dimensions only).
  The contents of geometry.in will be repeated verbatim below
  unless switched off by setting 'verbatim_writeout .false.' .
  in the first line of geometry.in .
  -----------------------------------------------------------------------
  
  atom      -4.053030000      0.065001000     -1.525160000  O
  atom      -4.566710000      0.974813000     -1.912820000  H
  atom      -3.067820000      0.330172000     -1.477310000  H
  atom      -1.645860000      0.870179000     -1.502250000  O
  atom      -1.568890000      1.501730000     -0.721051000  H
  atom      -0.824432000      0.282220000     -1.377720000  H
  
  -----------------------------------------------------------------------
  Completed first pass over input file geometry.in .
  -----------------------------------------------------------------------
  
 
  Basic array size parameters: 
  | Number of species                 :        2
  | Number of atoms                   :        6
  | Max. basis fn. angular momentum   :        4
  | Max. atomic/ionic basis occupied n:        2
  | Max. number of basis fn. types    :        2
  | Max. radial fns per species/type  :        8
  | Max. logarithmic grid size        :     1301
  | Max. radial integration grid size :       73
  | Max. angular integration grid size:      302
  | Max. angular grid division number :        8
  | Radial grid for Hartree potential :     1301
  | Number of spin channels           :        1

------------------------------------------------------------
          Reading file control.in.
------------------------------------------------------------
  XC: Using RPBE gradient-corrected functionals.
  Spin treatment: No spin polarisation.
  Scalar relativistic treatment of kinetic energy: on-site free-atom approximation to ZORA.
  Charge =   0.000000E+00: Neutral system requested explicitly.
  Using non-empirical van der Waals correction (Hirshfeld partitioning):
  Occupation type: Gaussian broadening, width =   0.100000E-01 eV.
  Using pulay charge density mixing.
  Pulay mixing - number of memorized iterations:   10
  Charge density mixing - mixing parameter:     0.1000
  Convergence accuracy of self-consistent charge density: 0.5000E-04
  Convergence accuracy of sum of eigenvalues: 0.5000E-02
  Convergence accuracy of total energy: 0.5000E-05
  Maximum number of s.-c. iterations  :  3000
  Kohn-Sham eigenvalues and eigenfunctions calculated by lapack diagonalisation (D&C).
  Number of empty states per atom:        8
  Threshold for basis singularities: 0.0000E+00
  Partition function in integrals calculations: rho / r^2
 Using packed matrix format           0
  Convergence accuracy of forces: 0.5000E-03
  Cleaning forces before final output.
  Hirshfeld charge analysis will be performed.
 
  Reading configuration options for species H                   .
  | Found nuclear charge :   1.0000
  | Found cutoff potl. onset [A], width [A], scale factor :    4.00000    2.00000    1.00000
  | Found cutoff specification for free atom: Cutoff potential begins at    8.00000 A.
  | Found logarithmic grid data [bohr] : 0.1000E-03 0.1000E+03 0.1012E+01
  | Threshold for basis-dependent cutoff potential is   0.100000E-03
  | Found data for basic radial integration grid :    24 points, outermost radius =    7.000 A
  | Found multiplier for basic radial grid :   2
  | Found angular grid specification: user-specified.
  | Specified grid contains     4 separate shells.
  | Check grid settings after all constraints further below.
  | Found l_max for Hartree potential  :   4
  | Found free-atom valence shell :  1 s   1.000
  | No ionic wave fns used. Skipping ion_occ.
  | Found hydrogenic basis function :  2 s   2.100
  | Found hydrogenic basis function :  2 p   3.500
  | Found hydrogenic basis function :  1 s   0.850
  | Found hydrogenic basis function :  2 p   3.700
  | Found hydrogenic basis function :  2 s   1.200
  | Found hydrogenic basis function :  3 d   7.000
  Species H                   : Missing cutoff potential type.
  Defaulting to exp(1/x)/(1-x)^2 type cutoff potential.
  Species H : On-site basis accuracy parameter (for Gram-Schmidt orthonormalisation) not specified.
  Using default value basis_acc =  0.1000000E-03.
  Species H                   : Using default innermost maximum threshold i_radial=  2 for radial functions.
  Species H                   : Basic radial grid will be enhanced according to radial_multiplier =   2, to contain    49 grid points.
 
  Reading configuration options for species O                   .
  | Found nuclear charge :   8.0000
  | Found atomic mass :    15.9994000000000      amu
  | Found l_max for Hartree potential  :   4
  | Found cutoff potl. onset [A], width [A], scale factor :    4.00000    2.00000    1.00000
  | Found cutoff specification for free atom: Cutoff potential begins at    8.00000 A.
  | Threshold for basis-dependent cutoff potential is   0.100000E-03
  | Found logarithmic grid data [bohr] : 0.1000E-03 0.1000E+03 0.1012E+01
  | Found data for basic radial integration grid :    36 points, outermost radius =    7.000 A
  | Found multiplier for basic radial grid :   2
  | Found angular grid specification: user-specified.
  | Specified grid contains     4 separate shells.
  | Check grid settings after all constraints further below.
  | Found free-atom valence shell :  2 s   2.000
  | Found free-atom valence shell :  2 p   4.000
  | No ionic wave fns used. Skipping ion_occ.
  | No ionic wave fns used. Skipping ion_occ.
  | Found hydrogenic basis function :  2 p   1.800
  | Found hydrogenic basis function :  3 d   7.600
  | Found hydrogenic basis function :  3 s   6.400
  | Found hydrogenic basis function :  4 f  11.600
  | Found hydrogenic basis function :  3 p   6.200
  | Found hydrogenic basis function :  3 d   5.600
  | Found hydrogenic basis function :  5 g  17.600
  | Found hydrogenic basis function :  1 s   0.750
  Species O                   : Missing cutoff potential type.
  Defaulting to exp(1/x)/(1-x)^2 type cutoff potential.
  Species O : On-site basis accuracy parameter (for Gram-Schmidt orthonormalisation) not specified.
  Using default value basis_acc =  0.1000000E-03.
  Species O                   : Using default innermost maximum threshold i_radial=  2 for radial functions.
  Species O                   : Basic radial grid will be enhanced according to radial_multiplier =   2, to contain    73 grid points.
 
  Finished reading input file 'control.in'. Consistency checks are next.
 
  Target number of points in a grid batch is not set. Defaulting to  100
  Method for grid partitioning is not set. Defaulting to parallel hash+maxmin partitioning.
  Batch size limit is not set. Defaulting to    200
  By default, will store active basis functions for each batch.
  If in need of memory, prune_basis_once .false. can be used to disable this option.
  communication_type for Hartree potential was not specified.
  Defaulting to calc_hartree .
  Pulay mixer: Number of initial linear mixing iterations not set.
  Defaulting to    0 iterations.
  Work space size for distributed Hartree potential not set.
  Defaulting to   0.200000E+03 MB.
  Algorithm-dependent basis array size parameters:
  | n_max_pulay                         :       10
  Geometry relaxation not requested: no relaxation will be performed.
  Handling of forces: Unphysical translation and rotation will be removed from forces.
  No accuracy limit for integral partition fn. given. Defaulting to 0.1000E-14.
  No threshold value for u(r) in integrations given. Defaulting to 0.1000E-05.
  No accuracy for occupation numbers given. Defaulting to 0.1000E-07.
  No threshold value for occupation numbers given. Defaulting to 0.0000E+00.
  No accuracy for fermi level given. Defaulting to 0.1000E-19.
  Maximum # of iterations to find E_F not set. Defaulting to  200.
  Will not use alltoall communication since running on < 1024 CPUs.
  Partitioning for Hartree potential was not defined. Using partition_type for integrals.
  | Reporting present value of keyword multip_moments_threshold  :       0.10000000E-09
  | This value may affect high angular momentum components of the Hartree potential in periodic systems.
  No q(lm)/r^(l+1) cutoff set for long-range Hartree potential.
  | Using default value of  0.100000E-09 .
  | Verify using the multipole_threshold keyword.
  Defaulting to new monopole extrapolation.
  Density update method: Loop over occupied states selected for charge density update.
------------------------------------------------------------


------------------------------------------------------------
          Reading geometry description geometry.in.
------------------------------------------------------------
  Input structure read successfully.
  The structure contains        6 atoms,  and a total of         20.000 electrons.

  Input geometry:
  | No unit cell requested.
  | Atomic structure:
  |       Atom                x [A]            y [A]            z [A]
  |    1: Species O             -4.053030         0.065001        -1.525160
  |    2: Species H             -4.566710         0.974813        -1.912820
  |    3: Species H             -3.067820         0.330172        -1.477310
  |    4: Species O             -1.645860         0.870179        -1.502250
  |    5: Species H             -1.568890         1.501730        -0.721051
  |    6: Species H             -0.824432         0.282220        -1.377720
  |

  | The smallest distance between any two atoms is         1.00749835 AA.
  |
  | The first atom of this pair is atom number                      4 .
  | The second atom of this pair is atom number                     5 .

  Structure-dependent array size parameters: 
  | Maximum number of distinct radial functions  :       18
  | Maximum number of basis functions            :      138
  | Number of Kohn-Sham states (occupied + empty):       34
------------------------------------------------------------

------------------------------------------------------------
          Preparing all fixed parts of the calculation.
------------------------------------------------------------
  Determining machine precision:
    2.225073858507201E-308
  Setting up grids for atomic and cluster calculations.

  Creating wave function, potential, and density for free atoms.

  Species: H

  List of occupied orbitals and eigenvalues:
    n    l              occ      energy [Ha]    energy [eV]
    1    0           1.0000        -0.241408        -6.5691


  Species: O

  List of occupied orbitals and eigenvalues:
    n    l              occ      energy [Ha]    energy [eV]
    1    0           2.0000       -18.944147      -515.4965
    2    0           2.0000        -0.883529       -24.0421
    2    1           4.0000        -0.330176        -8.9845

  Creating fixed part of basis set: Ionic, confined, hydrogenic.
 
  H                    hydrogenic:
 
  List of hydrogenic basis orbitals: 
    n    l      effective z      eigenvalue [eV]  inner max. [A]     outer max. [A]     outer radius [A]   
    2    0         2.100000       -14.9965           0.193241           1.317192           5.372934
    2    1         3.500000       -41.6672           0.602363           0.602363           4.056010
    1    0         0.850000        -9.8292           0.624864           0.624864           5.372934
    2    1         3.700000       -46.5653           0.573616           0.573616           3.909951
    2    0         1.200000        -4.5995           0.334977           2.228160           5.505921
    3    2         7.000000       -74.0753           0.680692           0.680692           3.769152
 
 
  O                    hydrogenic:
 
  List of hydrogenic basis orbitals: 
    n    l      effective z      eigenvalue [eV]  inner max. [A]     outer max. [A]     outer radius [A]   
    2    1         1.800000       -11.0118           1.178546           1.178546           5.432516
    3    2         7.600000       -87.3182           0.624117           0.624117           3.541422
    3    0         6.400000       -61.9209           0.061166           1.081887           4.306510
    4    3        11.600000      -114.4238           0.731621           0.731621           3.584982
    3    1         6.200000       -58.1113           0.255677           1.030255           4.306510
    3    2         5.600000       -47.4081           0.847222           0.847222           4.413102
    5    4        17.600000      -168.5799           0.749730           0.749730           3.372413
    1    0         0.750000        -7.6499           0.705275           0.705275           5.366508
 

  Adding cutoff potential to free-atom effective potential.
  Creating atomic-like basis functions for current effective potential.

  Species H                   :

  List of atomic basis orbitals and eigenvalues:
    n    l      energy [Ha]    energy [eV]    outer radius [A]
    1    0        -0.241374        -6.5681       5.372934


  Species O                   :

  List of atomic basis orbitals and eigenvalues:
    n    l      energy [Ha]    energy [eV]    outer radius [A]
    1    0       -18.944147      -515.4965       1.415745
    2    0        -0.883529       -24.0421       5.048305
    2    1        -0.330173        -8.9845       5.301302

  Assembling full basis from fixed parts.
  | Species H :   atomic orbital   1 s accepted.
  | Species H :    hydro orbital   2 s accepted.
  | Species H :    hydro orbital   1 s accepted.
  | Species H :    hydro orbital   2 s accepted.
  | Species H :    hydro orbital   2 p accepted.
  | Species H :    hydro orbital   2 p accepted.
  | Species H :    hydro orbital   3 d accepted.
  | Species O :   atomic orbital   1 s accepted.
  | Species O :    hydro orbital   3 s accepted.
  | Species O :   atomic orbital   2 s accepted.
  | Species O :    hydro orbital   1 s accepted.
  | Species O :    hydro orbital   3 p accepted.
  | Species O :   atomic orbital   2 p accepted.
  | Species O :    hydro orbital   2 p accepted.
  | Species O :    hydro orbital   3 d accepted.
  | Species O :    hydro orbital   3 d accepted.
  | Species O :    hydro orbital   4 f accepted.
  | Species O :    hydro orbital   5 g accepted.
 
  Basis size parameters after reduction:
  | Total number of radial functions:       18
  | Total number of basis functions :      138
 
  Testing on-site integration grid accuracy.
  |  Species  Function  <phi|h_atom|phi> (log., in eV)  <phi|h_atom|phi> (rad., in eV)
           1        1                 -6.5683835025                 -6.5684759159
           1        2                 13.3711789951                 13.3708738703
           1        3                 23.6590910787                 23.6532055418
           1        4                 16.2963827186                 16.1870710655 ***
           1        5                 28.7627214838                 28.7627215090
           1        6                 59.5965249172                 59.5965950857
           1        7                 60.2220506392                 60.2220503827
           2        8               -515.4964576505               -515.4964530710
           2        9                 15.3030791347                 15.3030722972
           2       10                -21.7296094581                -21.7296135470
           2       11                 14.2969371730                 14.2969701621
           2       12                 21.0679693190                 21.0679697493
           2       13                 -2.3833606469                 -2.3833613176
           2       14                 13.7067136422                 13.7066766629
           2       15                 45.8013116808                 45.8013116965
           2       16                 52.2309815402                 52.2309831494
           2       17                 85.4120732416                 85.4120732763
           2       18                142.1019167745                142.1019167817
 * Note: Onsite integrals marked "***" above are less accurate than
 * onsite_accuracy_threshold =    0.03000 eV. Usually, this is harmless.
 * When in doubt, tighten the "radial" and/or "radial_multiplier" flags to check.

  Preparing densities etc. for the partition functions (integrals / Hartree potential).

  Preparations completed.
  max(cpu_time)          :      0.172 s.
  Wall clock time (cpu1) :      0.471 s.
------------------------------------------------------------

------------------------------------------------------------
          Begin self-consistency loop: Initialization.

          Date     :  20150727, Time     :  123756.345
------------------------------------------------------------

  Initializing index lists of integration centers etc. from given atomic structure:
  | Number of centers in hartree potential         :         6
  | Number of centers in hartree multipole         :         6
  | Number of centers in electron density summation:         6
  | Number of centers in basis integrals           :         6
  | Number of centers in integrals                 :         6
  Partitioning the integration grid into batches with parallel hashing+maxmin method.
  | Number of batches:     1109
  | Maximal batch size:     170
  | Minimal batch size:      50
  | Average batch size:      70.950
  | Standard deviation of batch sizes:      20.575

  Integration load balanced across     8 MPI tasks.
  Work distribution over tasks is as follows:
  Task     0 has       9804 integration points.
  Task     1 has       9886 integration points.
  Task     2 has       9876 integration points.
  Task     3 has       9789 integration points.
  Task     4 has       9914 integration points.
  Task     5 has       9824 integration points.
  Task     6 has       9796 integration points.
  Task     7 has       9795 integration points.
  Initializing partition tables, free-atom densities, potentials, etc. across the integration grid (initialize_grid_storage).
  | Net number of integration points:    78684
  | of which are non-zero points    :    78233
  Obtaining max. number of non-zero basis functions in each batch (get_n_compute_maxes).
  | Maximal number of non-zero basis functions:      138 in task     0
  | Maximal number of non-zero basis functions:      138 in task     1
  | Maximal number of non-zero basis functions:      138 in task     2
  | Maximal number of non-zero basis functions:      138 in task     3
  | Maximal number of non-zero basis functions:      138 in task     4
  | Maximal number of non-zero basis functions:      138 in task     5
  | Maximal number of non-zero basis functions:      138 in task     6
  | Maximal number of non-zero basis functions:      138 in task     7
  Integrating Hamiltonian matrix: batch-based integration.
  Time summed over all CPUs for integration: real work        1.149 s, elapsed        1.190 s
  Integrating overlap matrix.
  Time summed over all CPUs for integration: real work        0.575 s, elapsed        0.595 s

  Updating Kohn-Sham eigenvalues, eigenvectors, occupation numbers, and Fermi level.
  Solving generalized eigenproblem
  Updating Kohn-Sham eigenvalues and eigenfunctions.
  Transforming overlap matrix and checking for singularities.
  Overlap matrix is nonsingular:
  | Lowest eigenvalue:  0.322166E-03
  Solving real generalised eigenvalue problem by standard LAPACK (fast)
  Determining occupation numbers for Kohn-Sham eigenstates.
  | Chemical potential (Fermi level) in eV                 : -.52834756E+01
  | Error in electron count due to remaining E_F inaccuracy: 0.00000000E+00
  | Maximum occupation number of highest empty state:  0.00E+00

  Writing Kohn-Sham eigenvalues.

  State    Occupation    Eigenvalue [Ha]    Eigenvalue [eV]
      1       2.00000         -19.042411         -518.17036
      2       2.00000         -19.019446         -517.54546
      3       2.00000          -1.086706          -29.57077
      4       2.00000          -1.041652          -28.34479
      5       2.00000          -0.604764          -16.45647
      6       2.00000          -0.588810          -16.02234
      7       2.00000          -0.516222          -14.04713
      8       2.00000          -0.471508          -12.83037
      9       2.00000          -0.431543          -11.74288
     10       2.00000          -0.409321          -11.13819
     11       0.00000          -0.087944           -2.39307
     12       0.00000          -0.059351           -1.61503
     13       0.00000          -0.012989           -0.35344
     14       0.00000           0.040945            1.11417
     15       0.00000           0.078915            2.14739
     16       0.00000           0.086391            2.35082
     17       0.00000           0.099940            2.71951
     18       0.00000           0.103254            2.80967
     19       0.00000           0.136563            3.71606
     20       0.00000           0.155525            4.23205
     21       0.00000           0.169919            4.62373
     22       0.00000           0.216329            5.88662
     23       0.00000           0.246463            6.70660
     24       0.00000           0.288348            7.84635
     25       0.00000           0.344433            9.37251
     26       0.00000           0.356612            9.70390
     27       0.00000           0.363601            9.89410
     28       0.00000           0.397017           10.80337
     29       0.00000           0.409884           11.15350
     30       0.00000           0.436925           11.88933
     31       0.00000           0.452086           12.30189
     32       0.00000           0.498331           13.56028
     33       0.00000           0.583620           15.88110
     34       0.00000           0.683802           18.60719

  Highest occupied state (VBM) at    -11.13819006 eV
  | Occupation number:      2.00000000

  Lowest unoccupied state (CBM) at    -2.39306968 eV
  | Occupation number:      0.00000000

  Overall HOMO-LUMO gap:      8.74512037 eV.
  Calculating total energy contributions from superposition of free atom densities.

  Total energy components:
  | Sum of eigenvalues            :         -86.42476448 Ha       -2351.73749670 eV
  | XC energy correction          :         -18.19388210 Ha        -495.08072124 eV
  | XC potential correction       :          23.24564578 Ha         632.54620534 eV
  | Free-atom electrostatic energy:         -71.84115674 Ha       -1954.89733892 eV
  | Hartree energy correction     :           0.00000000 Ha           0.00000000 eV
  | van der Waals energy corr.    :           0.00000000 Ha           0.00000000 eV
  | Entropy correction            :           0.00000000 Ha           0.00000000 eV
  | ---------------------------
  | Total energy                  :        -153.21415753 Ha       -4169.16935152 eV
  | Total energy, T -> 0          :        -153.21415753 Ha       -4169.16935152 eV  <-- do not rely on this value for anything but (periodic) metals
  | Electronic free energy        :        -153.21415753 Ha       -4169.16935152 eV

  Derived energy quantities:
  | Kinetic energy                :         151.62277931 Ha        4125.86574675 eV
  | Electrostatic energy          :        -286.64305475 Ha       -7799.95437703 eV
  | Energy correction for multipole
  | error in Hartree potential    :           0.00000000 Ha           0.00000000 eV
  | Sum of eigenvalues per atom                           :        -391.95624945 eV
  | Total energy (T->0) per atom                          :        -694.86155859 eV  <-- do not rely on this value for anything but (periodic) metals
  | Electronic free energy per atom                       :        -694.86155859 eV
  Initialize hartree_potential_storage
  Max. number of atoms included in rho_multipole:            6

  End scf initialization - timings             :  max(cpu_time)    wall_clock(cpu1)
  | Time for scf. initialization               :        0.356 s           0.355 s
  | Boundary condition initialization          :        0.000 s           0.000 s
  | Integration                                :        0.224 s           0.224 s
  | Solution of K.-S. eqns.                    :        0.028 s           0.028 s
  | Grid partitioning                          :        0.050 s           0.050 s
  | Preloading free-atom quantities on grid    :        0.013 s           0.013 s
  | Free-atom superposition energy             :        0.016 s           0.016 s
  | Total energy evaluation                    :        0.001 s           0.000 s
------------------------------------------------------------

------------------------------------------------------------
          Begin self-consistency iteration #    1

  Date     :  20150727, Time     :  123756.700
------------------------------------------------------------
  Evaluating new KS density.
  Integration grid: deviation in total charge (<rho> - N_e) =   7.105427E-15
  Pulay mixing of updated and previous charge densities.

  Evaluating partitioned Hartree potential by multipole expansion.
  | Analytical far-field extrapolation by fixed multipoles:
  | Hartree multipole sum: apparent total charge =  -0.932867E-06
  Summing up the Hartree potential.
  Time summed over all CPUs for potential: real work        0.431 s, elapsed        0.435 s
  | RMS charge density error from multipole expansion :   0.939480E-03

  Integrating Hamiltonian matrix: batch-based integration.
  Time summed over all CPUs for integration: real work        1.144 s, elapsed        1.187 s

  Updating Kohn-Sham eigenvalues, eigenvectors, occupation numbers, and Fermi level.
  Solving generalized eigenproblem
  Updating Kohn-Sham eigenvalues and eigenfunctions.
  Solving real generalised eigenvalue problem by standard LAPACK (fast)
  Determining occupation numbers for Kohn-Sham eigenstates.
  | Chemical potential (Fermi level) in eV                 : -.48898321E+01
  | Error in electron count due to remaining E_F inaccuracy: 0.00000000E+00
  | Maximum occupation number of highest empty state:  0.00E+00

  Writing Kohn-Sham eigenvalues.

  State    Occupation    Eigenvalue [Ha]    Eigenvalue [eV]
      1       2.00000         -18.978909         -516.44239
      2       2.00000         -18.935877         -515.27144
      3       2.00000          -1.056544          -28.75002
      4       2.00000          -0.997352          -27.13932
      5       2.00000          -0.579681          -15.77391
      6       2.00000          -0.554642          -15.09257
      7       2.00000          -0.482525          -13.13018
      8       2.00000          -0.431657          -11.74599
      9       2.00000          -0.396293          -10.78368
     10       2.00000          -0.363324           -9.88655
     11       0.00000          -0.080494           -2.19035
     12       0.00000          -0.050317           -1.36921
     13       0.00000          -0.008533           -0.23219
     14       0.00000           0.049040            1.33445
     15       0.00000           0.086657            2.35805
     16       0.00000           0.094353            2.56747
     17       0.00000           0.106965            2.91067
     18       0.00000           0.108128            2.94230
     19       0.00000           0.148181            4.03220
     20       0.00000           0.168188            4.57664
     21       0.00000           0.185998            5.06127
     22       0.00000           0.223284            6.07586
     23       0.00000           0.254363            6.92157
     24       0.00000           0.294053            8.00160
     25       0.00000           0.354693            9.65170
     26       0.00000           0.365506            9.94593
     27       0.00000           0.371085           10.09773
     28       0.00000           0.402626           10.95602
     29       0.00000           0.417339           11.35637
     30       0.00000           0.444821           12.10419
     31       0.00000           0.463646           12.61645
     32       0.00000           0.507257           13.80316
     33       0.00000           0.594224           16.16966
     34       0.00000           0.695984           18.93868

  Highest occupied state (VBM) at     -9.88654986 eV
  | Occupation number:      2.00000000

  Lowest unoccupied state (CBM) at    -2.19034732 eV
  | Occupation number:      0.00000000

  Overall HOMO-LUMO gap:      7.69620254 eV.

  Total energy components:
  | Sum of eigenvalues            :         -85.55360846 Ha       -2328.03213522 eV
  | XC energy correction          :         -18.28653259 Ha        -497.60186951 eV
  | XC potential correction       :          23.36716512 Ha         635.85291481 eV
  | Free-atom electrostatic energy:         -71.84115674 Ha       -1954.89733892 eV
  | Hartree energy correction     :          -0.84313917 Ha         -22.94298403 eV
  | van der Waals energy corr.    :           0.00000000 Ha           0.00000000 eV
  | Entropy correction            :           0.00000000 Ha           0.00000000 eV
  | ---------------------------
  | Total energy                  :        -153.15727183 Ha       -4167.62141286 eV
  | Total energy, T -> 0          :        -153.15727183 Ha       -4167.62141286 eV  <-- do not rely on this value for anything but (periodic) metals
  | Electronic free energy        :        -153.15727183 Ha       -4167.62141286 eV

  Derived energy quantities:
  | Kinetic energy                :         152.16458096 Ha        4140.60891965 eV
  | Electrostatic energy          :        -287.03532020 Ha       -7810.62846301 eV
  | Energy correction for multipole
  | error in Hartree potential    :          -0.00014194 Ha          -0.00386229 eV
  | Sum of eigenvalues per atom                           :        -388.00535587 eV
  | Total energy (T->0) per atom                          :        -694.60356881 eV  <-- do not rely on this value for anything but (periodic) metals
  | Electronic free energy per atom                       :        -694.60356881 eV

  Self-consistency convergence accuracy:
  | Change of charge density      : 0.4048E+00
  | Change of sum of eigenvalues  : 0.2371E+02 eV
  | Change of total energy        : 0.1548E+01 eV

  End self-consistency iteration #     1       :  max(cpu_time)    wall_clock(cpu1)
  | Time for this iteration                    :        0.310 s           0.311 s
  | Charge density update                      :        0.096 s           0.096 s
  | Density mixing                             :        0.001 s           0.001 s
  | Hartree multipole update                   :        0.002 s           0.003 s
  | Hartree multipole summation                :        0.055 s           0.055 s
  | Integration                                :        0.149 s           0.148 s
  | Solution of K.-S. eqns.                    :        0.007 s           0.007 s
  | Total energy evaluation                    :        0.000 s           0.001 s
------------------------------------------------------------

------------------------------------------------------------
          Begin self-consistency iteration #    2

  Date     :  20150727, Time     :  123757.011
------------------------------------------------------------
  Evaluating new KS density.
  Integration grid: deviation in total charge (<rho> - N_e) =   3.552714E-15
  Pulay mixing of updated and previous charge densities.

  Evaluating partitioned Hartree potential by multipole expansion.
  | Analytical far-field extrapolation by fixed multipoles:
  | Hartree multipole sum: apparent total charge =  -0.273605E-05
  Summing up the Hartree potential.
  Time summed over all CPUs for potential: real work        0.431 s, elapsed        0.434 s
  | RMS charge density error from multipole expansion :   0.363516E-02

  Integrating Hamiltonian matrix: batch-based integration.
  Time summed over all CPUs for integration: real work        1.144 s, elapsed        1.179 s

  Updating Kohn-Sham eigenvalues, eigenvectors, occupation numbers, and Fermi level.
  Solving generalized eigenproblem
  Updating Kohn-Sham eigenvalues and eigenfunctions.
  Solving real generalised eigenvalue problem by standard LAPACK (fast)
  Determining occupation numbers for Kohn-Sham eigenstates.
  | Chemical potential (Fermi level) in eV                 : -.39395336E+01
  | Error in electron count due to remaining E_F inaccuracy: 0.00000000E+00
  | Maximum occupation number of highest empty state:  0.00E+00

  Highest occupied state (VBM) at     -7.08250873 eV
  | Occupation number:      2.00000000

  Lowest unoccupied state (CBM) at    -1.79969820 eV
  | Occupation number:      0.00000000

  Overall HOMO-LUMO gap:      5.28281053 eV.

  Total energy components:
  | Sum of eigenvalues            :         -83.62409011 Ha       -2275.52726951 eV
  | XC energy correction          :         -18.50057221 Ha        -503.42618387 eV
  | XC potential correction       :          23.64764674 Ha         643.48520785 eV
  | Free-atom electrostatic energy:         -71.84115674 Ha       -1954.89733892 eV
  | Hartree energy correction     :          -2.77643600 Ha         -75.55066762 eV
  | van der Waals energy corr.    :           0.00000000 Ha           0.00000000 eV
  | Entropy correction            :           0.00000000 Ha           0.00000000 eV
  | ---------------------------
  | Total energy                  :        -153.09460833 Ha       -4165.91625207 eV
  | Total energy, T -> 0          :        -153.09460833 Ha       -4165.91625207 eV  <-- do not rely on this value for anything but (periodic) metals
  | Electronic free energy        :        -153.09460833 Ha       -4165.91625207 eV

  Derived energy quantities:
  | Kinetic energy                :         153.17530766 Ha        4168.11219274 eV
  | Electrostatic energy          :        -287.76934378 Ha       -7830.60226094 eV
  | Energy correction for multipole
  | error in Hartree potential    :          -0.00082464 Ha          -0.02243953 eV
  | Sum of eigenvalues per atom                           :        -379.25454492 eV
  | Total energy (T->0) per atom                          :        -694.31937534 eV  <-- do not rely on this value for anything but (periodic) metals
  | Electronic free energy per atom                       :        -694.31937534 eV

  Self-consistency convergence accuracy:
  | Change of charge density      : 0.3040E+00
  | Change of sum of eigenvalues  : 0.5250E+02 eV
  | Change of total energy        : 0.1705E+01 eV

  End self-consistency iteration #     2       :  max(cpu_time)    wall_clock(cpu1)
  | Time for this iteration                    :        0.309 s           0.308 s
  | Charge density update                      :        0.095 s           0.094 s
  | Density mixing                             :        0.002 s           0.002 s
  | Hartree multipole update                   :        0.002 s           0.002 s
  | Hartree multipole summation                :        0.055 s           0.055 s
  | Integration                                :        0.148 s           0.148 s
  | Solution of K.-S. eqns.                    :        0.006 s           0.007 s
  | Total energy evaluation                    :        0.001 s           0.000 s
------------------------------------------------------------

------------------------------------------------------------
          Begin self-consistency iteration #    3

  Date     :  20150727, Time     :  123757.319
------------------------------------------------------------
  Evaluating new KS density.
  Integration grid: deviation in total charge (<rho> - N_e) =   3.552714E-15
  Pulay mixing of updated and previous charge densities.

  Evaluating partitioned Hartree potential by multipole expansion.
  | Analytical far-field extrapolation by fixed multipoles:
  | Hartree multipole sum: apparent total charge =  -0.316472E-05
  Summing up the Hartree potential.
  Time summed over all CPUs for potential: real work        0.431 s, elapsed        0.434 s
  | RMS charge density error from multipole expansion :   0.780543E-02

  Integrating Hamiltonian matrix: batch-based integration.
  Time summed over all CPUs for integration: real work        1.143 s, elapsed        1.179 s

  Updating Kohn-Sham eigenvalues, eigenvectors, occupation numbers, and Fermi level.
  Solving generalized eigenproblem
  Updating Kohn-Sham eigenvalues and eigenfunctions.
  Solving real generalised eigenvalue problem by standard LAPACK (fast)
  Determining occupation numbers for Kohn-Sham eigenstates.
  | Chemical potential (Fermi level) in eV                 : -.37004147E+01
  | Error in electron count due to remaining E_F inaccuracy: 0.00000000E+00
  | Maximum occupation number of highest empty state:  0.00E+00

  Highest occupied state (VBM) at     -6.86480654 eV
  | Occupation number:      2.00000000

  Lowest unoccupied state (CBM) at    -1.75728595 eV
  | Occupation number:      0.00000000

  Overall HOMO-LUMO gap:      5.10752059 eV.

  Total energy components:
  | Sum of eigenvalues            :         -83.72380495 Ha       -2278.24064834 eV
  | XC energy correction          :         -18.48939800 Ha        -503.12211809 eV
  | XC potential correction       :          23.63116269 Ha         643.03665401 eV
  | Free-atom electrostatic energy:         -71.84115674 Ha       -1954.89733892 eV
  | Hartree energy correction     :          -2.66869534 Ha         -72.61889503 eV
  | van der Waals energy corr.    :           0.00000000 Ha           0.00000000 eV
  | Entropy correction            :           0.00000000 Ha           0.00000000 eV
  | ---------------------------
  | Total energy                  :        -153.09189234 Ha       -4165.84234637 eV
  | Total energy, T -> 0          :        -153.09189234 Ha       -4165.84234637 eV  <-- do not rely on this value for anything but (periodic) metals
  | Electronic free energy        :        -153.09189234 Ha       -4165.84234637 eV

  Derived energy quantities:
  | Kinetic energy                :         152.33813843 Ha        4145.33165894 eV
  | Electrostatic energy          :        -286.94063278 Ha       -7808.05188723 eV
  | Energy correction for multipole
  | error in Hartree potential    :          -0.00303838 Ha          -0.08267854 eV
  | Sum of eigenvalues per atom                           :        -379.70677472 eV
  | Total energy (T->0) per atom                          :        -694.30705773 eV  <-- do not rely on this value for anything but (periodic) metals
  | Electronic free energy per atom                       :        -694.30705773 eV

  Self-consistency convergence accuracy:
  | Change of charge density      : 0.1609E+00
  | Change of sum of eigenvalues  : -.2713E+01 eV
  | Change of total energy        : 0.7391E-01 eV

  End self-consistency iteration #     3       :  max(cpu_time)    wall_clock(cpu1)
  | Time for this iteration                    :        0.310 s           0.310 s
  | Charge density update                      :        0.095 s           0.096 s
  | Density mixing                             :        0.003 s           0.002 s
  | Hartree multipole update                   :        0.002 s           0.003 s
  | Hartree multipole summation                :        0.055 s           0.055 s
  | Integration                                :        0.148 s           0.147 s
  | Solution of K.-S. eqns.                    :        0.007 s           0.007 s
  | Total energy evaluation                    :        0.000 s           0.000 s
------------------------------------------------------------

------------------------------------------------------------
          Begin self-consistency iteration #    4

  Date     :  20150727, Time     :  123757.630
------------------------------------------------------------
  Evaluating new KS density.
  Integration grid: deviation in total charge (<rho> - N_e) =   7.105427E-15
  Pulay mixing of updated and previous charge densities.

  Evaluating partitioned Hartree potential by multipole expansion.
  | Analytical far-field extrapolation by fixed multipoles:
  | Hartree multipole sum: apparent total charge =  -0.389248E-05
  Summing up the Hartree potential.
  Time summed over all CPUs for potential: real work        0.431 s, elapsed        0.434 s
  | RMS charge density error from multipole expansion :   0.999842E-02

  Integrating Hamiltonian matrix: batch-based integration.
  Time summed over all CPUs for integration: real work        1.143 s, elapsed        1.179 s

  Updating Kohn-Sham eigenvalues, eigenvectors, occupation numbers, and Fermi level.
  Solving generalized eigenproblem
  Updating Kohn-Sham eigenvalues and eigenfunctions.
  Solving real generalised eigenvalue problem by standard LAPACK (fast)
  Determining occupation numbers for Kohn-Sham eigenstates.
  | Chemical potential (Fermi level) in eV                 : -.32886336E+01
  | Error in electron count due to remaining E_F inaccuracy: 0.00000000E+00
  | Maximum occupation number of highest empty state:  0.00E+00

  Highest occupied state (VBM) at     -5.82817458 eV
  | Occupation number:      2.00000000

  Lowest unoccupied state (CBM) at    -1.61431763 eV
  | Occupation number:      0.00000000

  Overall HOMO-LUMO gap:      4.21385695 eV.

  Total energy components:
  | Sum of eigenvalues            :         -83.09377131 Ha       -2261.09656070 eV
  | XC energy correction          :         -18.56719283 Ha        -505.23902309 eV
  | XC potential correction       :          23.73271957 Ha         645.80015738 eV
  | Free-atom electrostatic energy:         -71.84115674 Ha       -1954.89733892 eV
  | Hartree energy correction     :          -3.31749194 Ha         -90.27354880 eV
  | van der Waals energy corr.    :           0.00000000 Ha           0.00000000 eV
  | Entropy correction            :           0.00000000 Ha           0.00000000 eV
  | ---------------------------
  | Total energy                  :        -153.08689325 Ha       -4165.70631412 eV
  | Total energy, T -> 0          :        -153.08689325 Ha       -4165.70631412 eV  <-- do not rely on this value for anything but (periodic) metals
  | Electronic free energy        :        -153.08689325 Ha       -4165.70631412 eV

  Derived energy quantities:
  | Kinetic energy                :         152.42187457 Ha        4147.61023507 eV
  | Electrostatic energy          :        -286.94157499 Ha       -7808.07752610 eV
  | Energy correction for multipole
  | error in Hartree potential    :          -0.00396773 Ha          -0.10796731 eV
  | Sum of eigenvalues per atom                           :        -376.84942678 eV
  | Total energy (T->0) per atom                          :        -694.28438569 eV  <-- do not rely on this value for anything but (periodic) metals
  | Electronic free energy per atom                       :        -694.28438569 eV

  Self-consistency convergence accuracy:
  | Change of charge density      : 0.8809E-01
  | Change of sum of eigenvalues  : 0.1714E+02 eV
  | Change of total energy        : 0.1360E+00 eV

  End self-consistency iteration #     4       :  max(cpu_time)    wall_clock(cpu1)
  | Time for this iteration                    :        0.310 s           0.309 s
  | Charge density update                      :        0.095 s           0.094 s
  | Density mixing                             :        0.003 s           0.003 s
  | Hartree multipole update                   :        0.002 s           0.003 s
  | Hartree multipole summation                :        0.055 s           0.054 s
  | Integration                                :        0.148 s           0.148 s
  | Solution of K.-S. eqns.                    :        0.007 s           0.007 s
  | Total energy evaluation                    :        0.000 s           0.000 s
------------------------------------------------------------

------------------------------------------------------------
          Begin self-consistency iteration #    5

  Date     :  20150727, Time     :  123757.939
------------------------------------------------------------
  Evaluating new KS density.
  Integration grid: deviation in total charge (<rho> - N_e) =   1.776357E-14
  Pulay mixing of updated and previous charge densities.

  Evaluating partitioned Hartree potential by multipole expansion.
  | Analytical far-field extrapolation by fixed multipoles:
  | Hartree multipole sum: apparent total charge =  -0.391443E-05
  Summing up the Hartree potential.
  Time summed over all CPUs for potential: real work        0.431 s, elapsed        0.434 s
  | RMS charge density error from multipole expansion :   0.102832E-01

  Integrating Hamiltonian matrix: batch-based integration.
  Time summed over all CPUs for integration: real work        1.140 s, elapsed        1.177 s

  Updating Kohn-Sham eigenvalues, eigenvectors, occupation numbers, and Fermi level.
  Solving generalized eigenproblem
  Updating Kohn-Sham eigenvalues and eigenfunctions.
  Solving real generalised eigenvalue problem by standard LAPACK (fast)
  Determining occupation numbers for Kohn-Sham eigenstates.
  | Chemical potential (Fermi level) in eV                 : -.32786761E+01
  | Error in electron count due to remaining E_F inaccuracy: 0.00000000E+00
  | Maximum occupation number of highest empty state:  0.00E+00

  Highest occupied state (VBM) at     -5.72099413 eV
  | Occupation number:      2.00000000

  Lowest unoccupied state (CBM) at    -1.60882704 eV
  | Occupation number:      0.00000000

  Overall HOMO-LUMO gap:      4.11216709 eV.

  Total energy components:
  | Sum of eigenvalues            :         -83.06395956 Ha       -2260.28534174 eV
  | XC energy correction          :         -18.57231760 Ha        -505.37847520 eV
  | XC potential correction       :          23.73922925 Ha         645.97729490 eV
  | Free-atom electrostatic energy:         -71.84115674 Ha       -1954.89733892 eV
  | Hartree energy correction     :          -3.34862380 Ha         -91.12068975 eV
  | van der Waals energy corr.    :           0.00000000 Ha           0.00000000 eV
  | Entropy correction            :           0.00000000 Ha           0.00000000 eV
  | ---------------------------
  | Total energy                  :        -153.08682845 Ha       -4165.70455071 eV
  | Total energy, T -> 0          :        -153.08682845 Ha       -4165.70455071 eV  <-- do not rely on this value for anything but (periodic) metals
  | Electronic free energy        :        -153.08682845 Ha       -4165.70455071 eV

  Derived energy quantities:
  | Kinetic energy                :         152.44403797 Ha        4148.21333200 eV
  | Electrostatic energy          :        -286.95854882 Ha       -7808.53940750 eV
  | Energy correction for multipole
  | error in Hartree potential    :          -0.00404311 Ha          -0.11001850 eV
  | Sum of eigenvalues per atom                           :        -376.71422362 eV
  | Total energy (T->0) per atom                          :        -694.28409179 eV  <-- do not rely on this value for anything but (periodic) metals
  | Electronic free energy per atom                       :        -694.28409179 eV

  Self-consistency convergence accuracy:
  | Change of charge density      : 0.1726E-01
  | Change of sum of eigenvalues  : 0.8112E+00 eV
  | Change of total energy        : 0.1763E-02 eV

  End self-consistency iteration #     5       :  max(cpu_time)    wall_clock(cpu1)
  | Time for this iteration                    :        0.309 s           0.310 s
  | Charge density update                      :        0.094 s           0.094 s
  | Density mixing                             :        0.004 s           0.004 s
  | Hartree multipole update                   :        0.002 s           0.002 s
  | Hartree multipole summation                :        0.055 s           0.055 s
  | Integration                                :        0.147 s           0.148 s
  | Solution of K.-S. eqns.                    :        0.007 s           0.006 s
  | Total energy evaluation                    :        0.000 s           0.001 s
------------------------------------------------------------

------------------------------------------------------------
          Begin self-consistency iteration #    6

  Date     :  20150727, Time     :  123758.249
------------------------------------------------------------
  Evaluating new KS density.
  Integration grid: deviation in total charge (<rho> - N_e) =   3.552714E-15
  Pulay mixing of updated and previous charge densities.

  Evaluating partitioned Hartree potential by multipole expansion.
  | Analytical far-field extrapolation by fixed multipoles:
  | Hartree multipole sum: apparent total charge =  -0.396221E-05
  Summing up the Hartree potential.
  Time summed over all CPUs for potential: real work        0.431 s, elapsed        0.434 s
  | RMS charge density error from multipole expansion :   0.105617E-01

  Integrating Hamiltonian matrix: batch-based integration.
  Time summed over all CPUs for integration: real work        1.142 s, elapsed        1.178 s

  Updating Kohn-Sham eigenvalues, eigenvectors, occupation numbers, and Fermi level.
  Solving generalized eigenproblem
  Updating Kohn-Sham eigenvalues and eigenfunctions.
  Solving real generalised eigenvalue problem by standard LAPACK (fast)
  Determining occupation numbers for Kohn-Sham eigenstates.
  | Chemical potential (Fermi level) in eV                 : -.32511364E+01
  | Error in electron count due to remaining E_F inaccuracy: 0.00000000E+00
  | Maximum occupation number of highest empty state:  0.00E+00

  Highest occupied state (VBM) at     -5.64401784 eV
  | Occupation number:      2.00000000

  Lowest unoccupied state (CBM) at    -1.59205242 eV
  | Occupation number:      0.00000000

  Overall HOMO-LUMO gap:      4.05196542 eV.

  Total energy components:
  | Sum of eigenvalues            :         -83.02042066 Ha       -2259.10058795 eV
  | XC energy correction          :         -18.57859504 Ha        -505.54929318 eV
  | XC potential correction       :          23.74731702 Ha         646.19737436 eV
  | Free-atom electrostatic energy:         -71.84115674 Ha       -1954.89733892 eV
  | Hartree energy correction     :          -3.39404646 Ha         -92.35670322 eV
  | van der Waals energy corr.    :           0.00000000 Ha           0.00000000 eV
  | Entropy correction            :           0.00000000 Ha           0.00000000 eV
  | ---------------------------
  | Total energy                  :        -153.08690188 Ha       -4165.70654892 eV
  | Total energy, T -> 0          :        -153.08690188 Ha       -4165.70654892 eV  <-- do not rely on this value for anything but (periodic) metals
  | Electronic free energy        :        -153.08690188 Ha       -4165.70654892 eV

  Derived energy quantities:
  | Kinetic energy                :         152.45604068 Ha        4148.53994237 eV
  | Electrostatic energy          :        -286.96434752 Ha       -7808.69719810 eV
  | Energy correction for multipole
  | error in Hartree potential    :          -0.00413164 Ha          -0.11242775 eV
  | Sum of eigenvalues per atom                           :        -376.51676466 eV
  | Total energy (T->0) per atom                          :        -694.28442482 eV  <-- do not rely on this value for anything but (periodic) metals
  | Electronic free energy per atom                       :        -694.28442482 eV

  Self-consistency convergence accuracy:
  | Change of charge density      : 0.6777E-02
  | Change of sum of eigenvalues  : 0.1185E+01 eV
  | Change of total energy        : -.1998E-02 eV

  End self-consistency iteration #     6       :  max(cpu_time)    wall_clock(cpu1)
  | Time for this iteration                    :        0.310 s           0.310 s
  | Charge density update                      :        0.094 s           0.094 s
  | Density mixing                             :        0.004 s           0.004 s
  | Hartree multipole update                   :        0.002 s           0.002 s
  | Hartree multipole summation                :        0.055 s           0.054 s
  | Integration                                :        0.148 s           0.148 s
  | Solution of K.-S. eqns.                    :        0.006 s           0.007 s
  | Total energy evaluation                    :        0.000 s           0.000 s
------------------------------------------------------------

------------------------------------------------------------
          Begin self-consistency iteration #    7

  Date     :  20150727, Time     :  123758.559
------------------------------------------------------------
  Evaluating new KS density.
  Integration grid: deviation in total charge (<rho> - N_e) =   2.131628E-14
  Pulay mixing of updated and previous charge densities.

  Evaluating partitioned Hartree potential by multipole expansion.
  | Analytical far-field extrapolation by fixed multipoles:
  | Hartree multipole sum: apparent total charge =  -0.386695E-05
  Summing up the Hartree potential.
  Time summed over all CPUs for potential: real work        0.431 s, elapsed        0.434 s
  | RMS charge density error from multipole expansion :   0.104555E-01

  Integrating Hamiltonian matrix: batch-based integration.
  Time summed over all CPUs for integration: real work        1.141 s, elapsed        1.181 s

  Updating Kohn-Sham eigenvalues, eigenvectors, occupation numbers, and Fermi level.
  Solving generalized eigenproblem
  Updating Kohn-Sham eigenvalues and eigenfunctions.
  Solving real generalised eigenvalue problem by standard LAPACK (fast)
  Determining occupation numbers for Kohn-Sham eigenstates.
  | Chemical potential (Fermi level) in eV                 : -.33043825E+01
  | Error in electron count due to remaining E_F inaccuracy: 0.00000000E+00
  | Maximum occupation number of highest empty state:  0.00E+00

  Highest occupied state (VBM) at     -5.79654167 eV
  | Occupation number:      2.00000000

  Lowest unoccupied state (CBM) at    -1.60839757 eV
  | Occupation number:      0.00000000

  Overall HOMO-LUMO gap:      4.18814411 eV.

  Total energy components:
  | Sum of eigenvalues            :         -83.09391984 Ha       -2261.10060237 eV
  | XC energy correction          :         -18.57015448 Ha        -505.31961375 eV
  | XC potential correction       :          23.73609910 Ha         645.89211915 eV
  | Free-atom electrostatic energy:         -71.84115674 Ha       -1954.89733892 eV
  | Hartree energy correction     :          -3.31767889 Ha         -90.27863599 eV
  | van der Waals energy corr.    :           0.00000000 Ha           0.00000000 eV
  | Entropy correction            :           0.00000000 Ha           0.00000000 eV
  | ---------------------------
  | Total energy                  :        -153.08681085 Ha       -4165.70407189 eV
  | Total energy, T -> 0          :        -153.08681085 Ha       -4165.70407189 eV  <-- do not rely on this value for anything but (periodic) metals
  | Electronic free energy        :        -153.08681085 Ha       -4165.70407189 eV

  Derived energy quantities:
  | Kinetic energy                :         152.47335815 Ha        4149.01117471 eV
  | Electrostatic energy          :        -286.99001452 Ha       -7809.39563285 eV
  | Energy correction for multipole
  | error in Hartree potential    :          -0.00401575 Ha          -0.10927412 eV
  | Sum of eigenvalues per atom                           :        -376.85010040 eV
  | Total energy (T->0) per atom                          :        -694.28401198 eV  <-- do not rely on this value for anything but (periodic) metals
  | Electronic free energy per atom                       :        -694.28401198 eV

  Self-consistency convergence accuracy:
  | Change of charge density      : 0.9362E-02
  | Change of sum of eigenvalues  : -.2000E+01 eV
  | Change of total energy        : 0.2477E-02 eV

  End self-consistency iteration #     7       :  max(cpu_time)    wall_clock(cpu1)
  | Time for this iteration                    :        0.311 s           0.311 s
  | Charge density update                      :        0.094 s           0.094 s
  | Density mixing                             :        0.005 s           0.005 s
  | Hartree multipole update                   :        0.002 s           0.002 s
  | Hartree multipole summation                :        0.055 s           0.055 s
  | Integration                                :        0.148 s           0.148 s
  | Solution of K.-S. eqns.                    :        0.007 s           0.007 s
  | Total energy evaluation                    :        0.000 s           0.000 s
------------------------------------------------------------

------------------------------------------------------------
          Begin self-consistency iteration #    8

  Date     :  20150727, Time     :  123758.871
------------------------------------------------------------
  Evaluating new KS density.
  Integration grid: deviation in total charge (<rho> - N_e) =   3.552714E-15
  Pulay mixing of updated and previous charge densities.

  Evaluating partitioned Hartree potential by multipole expansion.
  | Analytical far-field extrapolation by fixed multipoles:
  | Hartree multipole sum: apparent total charge =  -0.386360E-05
  Summing up the Hartree potential.
  Time summed over all CPUs for potential: real work        0.431 s, elapsed        0.434 s
  | RMS charge density error from multipole expansion :   0.104674E-01

  Integrating Hamiltonian matrix: batch-based integration.
  Time summed over all CPUs for integration: real work        1.143 s, elapsed        1.188 s

  Updating Kohn-Sham eigenvalues, eigenvectors, occupation numbers, and Fermi level.
  Solving generalized eigenproblem
  Updating Kohn-Sham eigenvalues and eigenfunctions.
  Solving real generalised eigenvalue problem by standard LAPACK (fast)
  Determining occupation numbers for Kohn-Sham eigenstates.
  | Chemical potential (Fermi level) in eV                 : -.33048952E+01
  | Error in electron count due to remaining E_F inaccuracy: 0.00000000E+00
  | Maximum occupation number of highest empty state:  0.00E+00

  Highest occupied state (VBM) at     -5.79394347 eV
  | Occupation number:      2.00000000

  Lowest unoccupied state (CBM) at    -1.61002232 eV
  | Occupation number:      0.00000000

  Overall HOMO-LUMO gap:      4.18392116 eV.

  Total energy components:
  | Sum of eigenvalues            :         -83.09507712 Ha       -2261.13209348 eV
  | XC energy correction          :         -18.56998213 Ha        -505.31492395 eV
  | XC potential correction       :          23.73585944 Ha         645.88559775 eV
  | Free-atom electrostatic energy:         -71.84115674 Ha       -1954.89733892 eV
  | Hartree energy correction     :          -3.31645342 Ha         -90.24528923 eV
  | van der Waals energy corr.    :           0.00000000 Ha           0.00000000 eV
  | Entropy correction            :           0.00000000 Ha           0.00000000 eV
  | ---------------------------
  | Total energy                  :        -153.08680996 Ha       -4165.70404783 eV
  | Total energy, T -> 0          :        -153.08680996 Ha       -4165.70404783 eV  <-- do not rely on this value for anything but (periodic) metals
  | Electronic free energy        :        -153.08680996 Ha       -4165.70404783 eV

  Derived energy quantities:
  | Kinetic energy                :         152.47367936 Ha        4149.01991527 eV
  | Electrostatic energy          :        -286.99050720 Ha       -7809.40903915 eV
  | Energy correction for multipole
  | error in Hartree potential    :          -0.00402261 Ha          -0.10946079 eV
  | Sum of eigenvalues per atom                           :        -376.85534891 eV
  | Total energy (T->0) per atom                          :        -694.28400797 eV  <-- do not rely on this value for anything but (periodic) metals
  | Electronic free energy per atom                       :        -694.28400797 eV

  Self-consistency convergence accuracy:
  | Change of charge density      : 0.9861E-03
  | Change of sum of eigenvalues  : -.3149E-01 eV
  | Change of total energy        : 0.2406E-04 eV

  End self-consistency iteration #     8       :  max(cpu_time)    wall_clock(cpu1)
  | Time for this iteration                    :        0.313 s           0.312 s
  | Charge density update                      :        0.095 s           0.094 s
  | Density mixing                             :        0.005 s           0.005 s
  | Hartree multipole update                   :        0.002 s           0.002 s
  | Hartree multipole summation                :        0.055 s           0.055 s
  | Integration                                :        0.149 s           0.149 s
  | Solution of K.-S. eqns.                    :        0.007 s           0.007 s
  | Total energy evaluation                    :        0.000 s           0.000 s
------------------------------------------------------------

------------------------------------------------------------
          Begin self-consistency iteration #    9

  Date     :  20150727, Time     :  123759.183
------------------------------------------------------------
  Evaluating new KS density.
  Integration grid: deviation in total charge (<rho> - N_e) =   0.000000E+00
  Pulay mixing of updated and previous charge densities.

  Evaluating partitioned Hartree potential by multipole expansion.
  | Analytical far-field extrapolation by fixed multipoles:
  | Hartree multipole sum: apparent total charge =  -0.386202E-05
  Summing up the Hartree potential.
  Time summed over all CPUs for potential: real work        0.431 s, elapsed        0.434 s
  | RMS charge density error from multipole expansion :   0.104737E-01

  Integrating Hamiltonian matrix: batch-based integration.
  Time summed over all CPUs for integration: real work        1.143 s, elapsed        1.181 s

  Updating Kohn-Sham eigenvalues, eigenvectors, occupation numbers, and Fermi level.
  Solving generalized eigenproblem
  Updating Kohn-Sham eigenvalues and eigenfunctions.
  Solving real generalised eigenvalue problem by standard LAPACK (fast)
  Determining occupation numbers for Kohn-Sham eigenstates.
  | Chemical potential (Fermi level) in eV                 : -.33045767E+01
  | Error in electron count due to remaining E_F inaccuracy: 0.00000000E+00
  | Maximum occupation number of highest empty state:  0.00E+00

  Highest occupied state (VBM) at     -5.79479666 eV
  | Occupation number:      2.00000000

  Lowest unoccupied state (CBM) at    -1.61022966 eV
  | Occupation number:      0.00000000

  Overall HOMO-LUMO gap:      4.18456701 eV.

  Total energy components:
  | Sum of eigenvalues            :         -83.09414037 Ha       -2261.10660322 eV
  | XC energy correction          :         -18.57007093 Ha        -505.31734035 eV
  | XC potential correction       :          23.73596609 Ha         645.88849974 eV
  | Free-atom electrostatic energy:         -71.84115674 Ha       -1954.89733892 eV
  | Hartree energy correction     :          -3.31740770 Ha         -90.27125648 eV
  | van der Waals energy corr.    :           0.00000000 Ha           0.00000000 eV
  | Entropy correction            :           0.00000000 Ha           0.00000000 eV
  | ---------------------------
  | Total energy                  :        -153.08680965 Ha       -4165.70403924 eV
  | Total energy, T -> 0          :        -153.08680965 Ha       -4165.70403924 eV  <-- do not rely on this value for anything but (periodic) metals
  | Electronic free energy        :        -153.08680965 Ha       -4165.70403924 eV

  Derived energy quantities:
  | Kinetic energy                :         152.47637127 Ha        4149.09316575 eV
  | Electrostatic energy          :        -286.99310998 Ha       -7809.47986464 eV
  | Energy correction for multipole
  | error in Hartree potential    :          -0.00402324 Ha          -0.10947803 eV
  | Sum of eigenvalues per atom                           :        -376.85110054 eV
  | Total energy (T->0) per atom                          :        -694.28400654 eV  <-- do not rely on this value for anything but (periodic) metals
  | Electronic free energy per atom                       :        -694.28400654 eV

  Self-consistency convergence accuracy:
  | Change of charge density      : 0.5495E-03
  | Change of sum of eigenvalues  : 0.2549E-01 eV
  | Change of total energy        : 0.8594E-05 eV

  End self-consistency iteration #     9       :  max(cpu_time)    wall_clock(cpu1)
  | Time for this iteration                    :        0.312 s           0.311 s
  | Charge density update                      :        0.094 s           0.093 s
  | Density mixing                             :        0.006 s           0.006 s
  | Hartree multipole update                   :        0.002 s           0.002 s
  | Hartree multipole summation                :        0.055 s           0.055 s
  | Integration                                :        0.148 s           0.148 s
  | Solution of K.-S. eqns.                    :        0.007 s           0.007 s
  | Total energy evaluation                    :        0.000 s           0.000 s
------------------------------------------------------------

------------------------------------------------------------
          Begin self-consistency iteration #   10

  Date     :  20150727, Time     :  123759.496
------------------------------------------------------------
  Evaluating new KS density.
  Integration grid: deviation in total charge (<rho> - N_e) =   3.552714E-15
  Pulay mixing of updated and previous charge densities.

  Evaluating partitioned Hartree potential by multipole expansion.
  | Analytical far-field extrapolation by fixed multipoles:
  | Hartree multipole sum: apparent total charge =  -0.386068E-05
  Summing up the Hartree potential.
  Time summed over all CPUs for potential: real work        0.431 s, elapsed        0.434 s
  | RMS charge density error from multipole expansion :   0.104759E-01

  Integrating Hamiltonian matrix: batch-based integration.
  Time summed over all CPUs for integration: real work        1.140 s, elapsed        1.183 s

  Updating Kohn-Sham eigenvalues, eigenvectors, occupation numbers, and Fermi level.
  Solving generalized eigenproblem
  Updating Kohn-Sham eigenvalues and eigenfunctions.
  Solving real generalised eigenvalue problem by standard LAPACK (fast)
  Determining occupation numbers for Kohn-Sham eigenstates.
  | Chemical potential (Fermi level) in eV                 : -.33050510E+01
  | Error in electron count due to remaining E_F inaccuracy: 0.00000000E+00
  | Maximum occupation number of highest empty state:  0.00E+00

  Highest occupied state (VBM) at     -5.79598893 eV
  | Occupation number:      2.00000000

  Lowest unoccupied state (CBM) at    -1.61030804 eV
  | Occupation number:      0.00000000

  Overall HOMO-LUMO gap:      4.18568089 eV.

  Total energy components:
  | Sum of eigenvalues            :         -83.09479043 Ha       -2261.12429244 eV
  | XC energy correction          :         -18.57000200 Ha        -505.31546458 eV
  | XC potential correction       :          23.73587139 Ha         645.88592275 eV
  | Free-atom electrostatic energy:         -71.84115674 Ha       -1954.89733892 eV
  | Hartree energy correction     :          -3.31673172 Ha         -90.25286216 eV
  | van der Waals energy corr.    :           0.00000000 Ha           0.00000000 eV
  | Entropy correction            :           0.00000000 Ha           0.00000000 eV
  | ---------------------------
  | Total energy                  :        -153.08680951 Ha       -4165.70403535 eV
  | Total energy, T -> 0          :        -153.08680951 Ha       -4165.70403535 eV  <-- do not rely on this value for anything but (periodic) metals
  | Electronic free energy        :        -153.08680951 Ha       -4165.70403535 eV

  Derived energy quantities:
  | Kinetic energy                :         152.47658893 Ha        4149.09908874 eV
  | Electrostatic energy          :        -286.99339644 Ha       -7809.48765950 eV
  | Energy correction for multipole
  | error in Hartree potential    :          -0.00402487 Ha          -0.10952229 eV
  | Sum of eigenvalues per atom                           :        -376.85404874 eV
  | Total energy (T->0) per atom                          :        -694.28400589 eV  <-- do not rely on this value for anything but (periodic) metals
  | Electronic free energy per atom                       :        -694.28400589 eV

  Self-consistency convergence accuracy:
  | Change of charge density      : 0.1864E-03
  | Change of sum of eigenvalues  : -.1769E-01 eV
  | Change of total energy        : 0.3884E-05 eV

  End self-consistency iteration #    10       :  max(cpu_time)    wall_clock(cpu1)
  | Time for this iteration                    :        0.313 s           0.313 s
  | Charge density update                      :        0.095 s           0.094 s
  | Density mixing                             :        0.006 s           0.006 s
  | Hartree multipole update                   :        0.002 s           0.002 s
  | Hartree multipole summation                :        0.055 s           0.055 s
  | Integration                                :        0.148 s           0.148 s
  | Solution of K.-S. eqns.                    :        0.006 s           0.007 s
  | Total energy evaluation                    :        0.000 s           0.000 s
------------------------------------------------------------

------------------------------------------------------------
          Begin self-consistency iteration #   11

  Date     :  20150727, Time     :  123759.809
------------------------------------------------------------
  Evaluating new KS density.
  Integration grid: deviation in total charge (<rho> - N_e) =  -3.552714E-15
  Pulay mixing of updated and previous charge densities.

  Evaluating partitioned Hartree potential by multipole expansion.
  | Analytical far-field extrapolation by fixed multipoles:
  | Hartree multipole sum: apparent total charge =  -0.386083E-05
  Summing up the Hartree potential.
  Time summed over all CPUs for potential: real work        0.431 s, elapsed        0.434 s
  | RMS charge density error from multipole expansion :   0.104757E-01

  Integrating Hamiltonian matrix: batch-based integration.
  Time summed over all CPUs for integration: real work        1.137 s, elapsed        1.182 s

  Updating Kohn-Sham eigenvalues, eigenvectors, occupation numbers, and Fermi level.
  Solving generalized eigenproblem
  Updating Kohn-Sham eigenvalues and eigenfunctions.
  Solving real generalised eigenvalue problem by standard LAPACK (fast)
  Determining occupation numbers for Kohn-Sham eigenstates.
  | Chemical potential (Fermi level) in eV                 : -.33049477E+01
  | Error in electron count due to remaining E_F inaccuracy: 0.00000000E+00
  | Maximum occupation number of highest empty state:  0.00E+00

  Highest occupied state (VBM) at     -5.79564648 eV
  | Occupation number:      2.00000000

  Lowest unoccupied state (CBM) at    -1.61028367 eV
  | Occupation number:      0.00000000

  Overall HOMO-LUMO gap:      4.18536281 eV.

[...]
      6       2.00000          -0.441354          -12.00985
      7       2.00000          -0.373946          -10.17558
      8       2.00000          -0.313809           -8.53919
      9       2.00000          -0.271157           -7.37856
     10       2.00000          -0.212989           -5.79573
     11       0.00000          -0.059176           -1.61025
     12       0.00000          -0.006788           -0.18471
     13       0.00000           0.008648            0.23533
     14       0.00000           0.076586            2.08401
     15       0.00000           0.118835            3.23367
     16       0.00000           0.131646            3.58226
     17       0.00000           0.133557            3.63426
     18       0.00000           0.142015            3.86443
     19       0.00000           0.188629            5.13285
     20       0.00000           0.213320            5.80473
     21       0.00000           0.248382            6.75881
     22       0.00000           0.268519            7.30677
     23       0.00000           0.286978            7.80906
     24       0.00000           0.324725            8.83620
     25       0.00000           0.392964           10.69310
     26       0.00000           0.401894           10.93608
     27       0.00000           0.417499           11.36072
     28       0.00000           0.430591           11.71698
     29       0.00000           0.455970           12.40758
     30       0.00000           0.484982           13.19704
     31       0.00000           0.523244           14.23819
     32       0.00000           0.554423           15.08662
     33       0.00000           0.641819           17.46477
     34       0.00000           0.751137           20.43949

  Highest occupied state (VBM) at     -5.79572805 eV
  | Occupation number:      2.00000000

  Lowest unoccupied state (CBM) at    -1.61025364 eV
  | Occupation number:      0.00000000

  Overall HOMO-LUMO gap:      4.18547442 eV.

  Self-consistency cycle converged.

  End self-consistency iteration #    14       :  max(cpu_time)    wall_clock(cpu1)
  | Time for this iteration                    :        0.771 s           0.771 s
  | Charge density & force component update    :        0.451 s           0.450 s
  | Density mixing                             :        0.007 s           0.006 s
  | Hartree multipole update                   :        0.002 s           0.003 s
  | Hartree multipole summation                :        0.143 s           0.142 s
  | Integration                                :        0.151 s           0.152 s
  | Solution of K.-S. eqns.                    :        0.007 s           0.013 s
  | Total energy evaluation                    :        0.003 s           0.003 s
------------------------------------------------------------
  Obtaining max. number of non-zero basis functions in each batch .
  Evaluating KS electron density on previously omitted grid points.
  Evaluating non-empirical van der Waals correction (Tkatchenko/Scheffler 2009).
  Performing Hirshfeld analysis of fragment charges and moments.
  ----------------------------------------------------------------------
  | Atom     1: O
  |   Hirshfeld charge        :     -0.35448262
  |   Free atom volume        :     23.95238533
  |   Hirshfeld volume        :     24.01816699
  |   Hirshfeld dipole vector :      0.04192676       0.05372147      -0.01796543
  |   Hirshfeld dipole moment :      0.07047416
  |   Hirshfeld second moments:      0.00249509      -0.03538274       0.02938880
  |                                 -0.03538274      -0.03745522      -0.02922264
  |                                  0.02938880      -0.02922264      -0.09815962
  ----------------------------------------------------------------------
  | Atom     2: H
  |   Hirshfeld charge        :      0.12174350
  |   Free atom volume        :     10.44207651
  |   Hirshfeld volume        :      7.19362117
  |   Hirshfeld dipole vector :     -0.05856041       0.09790871      -0.04348802
  |   Hirshfeld dipole moment :      0.12209277
  |   Hirshfeld second moments:      0.11136527       0.00196669       0.00613235
  |                                  0.00196669       0.08373693      -0.00132430
  |                                  0.00613235      -0.00132430       0.07688332
  ----------------------------------------------------------------------
  | Atom     3: H
  |   Hirshfeld charge        :      0.05989865
  |   Free atom volume        :     10.44207651
  |   Hirshfeld volume        :      8.33601732
  |   Hirshfeld dipole vector :      0.04892463       0.00773731       0.00534837
  |   Hirshfeld dipole moment :      0.04982058
  |   Hirshfeld second moments:      0.02162778      -0.02950281       0.00641959
  |                                 -0.02950281       0.08155235      -0.00429726
  |                                  0.00641959      -0.00429726       0.05992788
  ----------------------------------------------------------------------
  | Atom     4: O
  |   Hirshfeld charge        :     -0.18078716
  |   Free atom volume        :     23.95238533
  |   Hirshfeld volume        :     20.28019872
  |   Hirshfeld dipole vector :     -0.01491110      -0.02394282       0.02712108
  |   Hirshfeld dipole moment :      0.03912995
  |   Hirshfeld second moments:      0.07622818      -0.02660214       0.00723188
  |                                 -0.02660214       0.08472310       0.03851045
  |                                  0.00723188       0.03851045       0.05272429
  ----------------------------------------------------------------------
  | Atom     5: H
  |   Hirshfeld charge        :      0.17509051
  |   Free atom volume        :     10.44207651
  |   Hirshfeld volume        :      5.74699240
  |   Hirshfeld dipole vector :      0.00359079       0.07584859       0.09397474
  |   Hirshfeld dipole moment :      0.12081868
  |   Hirshfeld second moments:      0.13456892      -0.01153479       0.00605740
  |                                 -0.01153479       0.13456925       0.00144099
  |                                  0.00605740       0.00144099       0.11958087
  ----------------------------------------------------------------------
  | Atom     6: H
  |   Hirshfeld charge        :      0.17857559
  |   Free atom volume        :     10.44207651
  |   Hirshfeld volume        :      5.55068377
  |   Hirshfeld dipole vector :      0.09292060      -0.07768509       0.01190609
  |   Hirshfeld dipole moment :      0.12170031
  |   Hirshfeld second moments:      0.12891070       0.00256762       0.00079236
  |                                  0.00256762       0.13469498       0.01539348
  |                                  0.00079236       0.01539348       0.13712480
  ----------------------------------------------------------------------


  Total energy components:
  | Sum of eigenvalues            :         -83.09462157 Ha       -2261.11969753 eV
  | XC energy correction          :         -18.57002217 Ha        -505.31601340 eV
  | XC potential correction       :          23.73589782 Ha         645.88664216 eV
  | Free-atom electrostatic energy:         -71.84115674 Ha       -1954.89733892 eV
  | Hartree energy correction     :          -3.31690685 Ha         -90.25762754 eV
  | van der Waals energy corr.    :          -0.00029831 Ha          -0.00811747 eV
  | Entropy correction            :           0.00000000 Ha           0.00000000 eV
  | ---------------------------
  | Total energy                  :        -153.08710781 Ha       -4165.71215270 eV
  | Total energy, T -> 0          :        -153.08710781 Ha       -4165.71215270 eV  <-- do not rely on this value for anything but (periodic) metals
  | Electronic free energy        :        -153.08710781 Ha       -4165.71215270 eV

  Derived energy quantities:
  | Kinetic energy                :         152.47663306 Ha        4149.10028943 eV
  | Electrostatic energy          :        -286.99342039 Ha       -7809.48831126 eV
  | Energy correction for multipole
  | error in Hartree potential    :          -0.00402539 Ha          -0.10953648 eV
  | Sum of eigenvalues per atom                           :        -376.85328292 eV
  | Total energy (T->0) per atom                          :        -694.28535878 eV  <-- do not rely on this value for anything but (periodic) metals
  | Electronic free energy per atom                       :        -694.28535878 eV

  atomic forces [eV/Ang]:
  -----------------------
  atom #    1
   Hellmann-Feynman + Multipole  : -.691594E+01 -.112714E+02 0.273980E+01
   Pulay + GGA                   : 0.525867E+01 0.147037E+02 -.405522E+01
   Van der Waals               : -.268468E-02 -.197104E-02 -.898146E-03
   ----------------------------------------------------------------
   Total forces(   1)            : -.165996E+01 0.343033E+01 -.131632E+01
  atom #    2
   Hellmann-Feynman + Multipole  : 0.221553E+01 -.367432E+01 0.153776E+01
   Pulay + GGA                   : -.330491E-01 0.111469E+00 -.340225E-01
   Van der Waals               : -.163971E-02 0.345331E-03 0.204810E-03
   ----------------------------------------------------------------
   Total forces(   2)            : 0.218084E+01 -.356250E+01 0.150394E+01
  atom #    3
   Hellmann-Feynman + Multipole  : -.171033E+01 -.284445E+00 -.301188E+00
   Pulay + GGA                   : 0.662935E-01 0.155486E-01 0.303603E-01
   Van der Waals               : -.974394E-03 -.188404E-03 -.133534E-03
   ----------------------------------------------------------------
   Total forces(   3)            : -.164501E+01 -.269084E+00 -.270961E+00
  atom #    4
   Hellmann-Feynman + Multipole  : -.608319E+01 0.947709E+00 -.104015E+02
   Pulay + GGA                   : 0.886856E+01 -.644724E+00 0.119520E+02
   Van der Waals               : 0.507212E-02 0.225233E-03 0.565347E-03
   ----------------------------------------------------------------
   Total forces(   4)            : 0.279043E+01 0.303211E+00 0.155114E+01
  atom #    5
   Hellmann-Feynman + Multipole  : -.174470E+00 -.961057E+00 -.125812E+01
   Pulay + GGA                   : 0.360838E-01 0.864041E-01 0.102031E+00
   Van der Waals               : 0.140453E-02 0.162965E-02 0.413066E-03
   ----------------------------------------------------------------
   Total forces(   5)            : -.136982E+00 -.873023E+00 -.115568E+01
  atom #    6
   Hellmann-Feynman + Multipole  : -.165194E+01 0.103232E+01 -.337268E+00
   Pulay + GGA                   : 0.123385E+00 -.581691E-01 0.235719E-01
   Van der Waals               : -.117786E-02 -.407677E-04 -.151543E-03
   ----------------------------------------------------------------
   Total forces(   6)            : -.152973E+01 0.974108E+00 -.313848E+00
  Timings for vdw_correction_hirshfeld (Tkatchenko-Scheffler 2009):
  | CPU time:        0.771 s, Wall clock time:        0.771 s.
  Removing unitary transformations (pure translations, rotations) from forces on atoms.
  Atomic forces before filtering:
  | Net force on center of mass :  -.406531E-03 0.304231E-02 -.172301E-02 eV/A
  | Net torque on center of mass:  0.146266E-02 -.853476E-02 0.795769E-03 eV
  Atomic forces after filtering:
  | Net force on center of mass :  -.178406E-15 0.892031E-15 -.133805E-15 eV/A
  | Net torque on center of mass:  0.113290E-14 0.660859E-15 -.151054E-14 eV
 
  Energy and forces in a compact form:
  | Total energy uncorrected      :         -0.416571215270077E+04 eV
  | Total energy corrected        :         -0.416571215270077E+04 eV  <-- do not rely on this value for anything but (periodic) metals
  | Electronic free energy        :         -0.416571215270077E+04 eV
  Total atomic forces (unitary forces cleaned) [eV/Ang]:
  |   1         -0.166002718108554E+01          0.342993308311026E+01         -0.131475951162105E+01
  |   2          0.218061583648752E+01         -0.356304438915839E+01          0.150536936842975E+01
  |   3         -0.164502125701261E+01         -0.269571169914326E+00         -0.270200073228117E+00
  |   4          0.279046931593146E+01          0.302551257710230E+00          0.155067536814002E+01
  |   5         -0.136353923465001E+00         -0.873289067714599E+00         -0.115652368038111E+01
  |   6         -0.152968279085583E+01          0.973420285966824E+00         -0.314561471339490E+00
 
  ------------------------------------ 
  Start decomposition of the XC Energy 
  ------------------------------------ 
  Hartree-Fock part   :          0.000000000 Ha              0.000000000 eV
  ------------------------------------ 
  X Energy            :        -17.919289937 Ha           -487.608688432 eV
  C Energy GGA        :         -0.650732232 Ha            -17.707324969 eV
  Total XC Energy     :        -18.570022169 Ha           -505.316013401 eV
  LDA X and C from self-consistent density 
  X Energy LDA        :        -16.140856162 Ha           -439.215043190 eV
  C Energy LDA        :         -1.316017097 Ha            -35.810647243 eV
  ------------------------------------ 
  End decomposition of the XC Energy 
  ------------------------------------ 
  Performing Hirshfeld analysis of fragment charges and moments.
  ----------------------------------------------------------------------
  | Atom     1: O
  |   Hirshfeld charge        :     -0.35448262
  |   Free atom volume        :     23.95238533
  |   Hirshfeld volume        :     24.01816699
  |   Hirshfeld dipole vector :      0.04192676       0.05372147      -0.01796543
  |   Hirshfeld dipole moment :      0.07047416
  |   Hirshfeld second moments:      0.00249509      -0.03538274       0.02938880
  |                                 -0.03538274      -0.03745522      -0.02922264
  |                                  0.02938880      -0.02922264      -0.09815962
  ----------------------------------------------------------------------
  | Atom     2: H
  |   Hirshfeld charge        :      0.12174350
  |   Free atom volume        :     10.44207651
  |   Hirshfeld volume        :      7.19362117
  |   Hirshfeld dipole vector :     -0.05856041       0.09790871      -0.04348802
  |   Hirshfeld dipole moment :      0.12209277
  |   Hirshfeld second moments:      0.11136527       0.00196669       0.00613235
  |                                  0.00196669       0.08373693      -0.00132430
  |                                  0.00613235      -0.00132430       0.07688332
  ----------------------------------------------------------------------
  | Atom     3: H
  |   Hirshfeld charge        :      0.05989865
  |   Free atom volume        :     10.44207651
  |   Hirshfeld volume        :      8.33601732
  |   Hirshfeld dipole vector :      0.04892463       0.00773731       0.00534837
  |   Hirshfeld dipole moment :      0.04982058
  |   Hirshfeld second moments:      0.02162778      -0.02950281       0.00641959
  |                                 -0.02950281       0.08155235      -0.00429726
  |                                  0.00641959      -0.00429726       0.05992788
  ----------------------------------------------------------------------
  | Atom     4: O
  |   Hirshfeld charge        :     -0.18078716
  |   Free atom volume        :     23.95238533
  |   Hirshfeld volume        :     20.28019872
  |   Hirshfeld dipole vector :     -0.01491110      -0.02394282       0.02712108
  |   Hirshfeld dipole moment :      0.03912995
  |   Hirshfeld second moments:      0.07622818      -0.02660214       0.00723188
  |                                 -0.02660214       0.08472310       0.03851045
  |                                  0.00723188       0.03851045       0.05272429
  ----------------------------------------------------------------------
  | Atom     5: H
  |   Hirshfeld charge        :      0.17509051
  |   Free atom volume        :     10.44207651
  |   Hirshfeld volume        :      5.74699240
  |   Hirshfeld dipole vector :      0.00359079       0.07584859       0.09397474
  |   Hirshfeld dipole moment :      0.12081868
  |   Hirshfeld second moments:      0.13456892      -0.01153479       0.00605740
  |                                 -0.01153479       0.13456925       0.00144099
  |                                  0.00605740       0.00144099       0.11958087
  ----------------------------------------------------------------------
  | Atom     6: H
  |   Hirshfeld charge        :      0.17857559
  |   Free atom volume        :     10.44207651
  |   Hirshfeld volume        :      5.55068377
  |   Hirshfeld dipole vector :      0.09292060      -0.07768509       0.01190609
  |   Hirshfeld dipole moment :      0.12170031
  |   Hirshfeld second moments:      0.12891070       0.00256762       0.00079236
  |                                  0.00256762       0.13469498       0.01539348
  |                                  0.00079236       0.01539348       0.13712480
  ----------------------------------------------------------------------


------------------------------------------------------------------------------
  Final output of selected total energy values:

  The following output summarizes some interesting total energy values
  at the end of a run (AFTER all relaxation, molecular dynamics, etc.).

  | Total energy of the DFT / Hartree-Fock s.c.f. calculation      :          -4165.712152701 eV
  | Final zero-broadening corrected energy (caution - metals only) :          -4165.712152701 eV
  | For reference only, the value of 1 Hartree used in FHI-aims is :             27.211384500 eV

  Before relying on these values, please be sure to understand exactly which
  total energy value is referred to by a given number. Different objects may
  all carry the same name 'total energy'. Definitions:

  Total energy of the DFT / Hartree-Fock s.c.f. calculation:
  | Note that this energy does not include ANY quantities calculated after the
  | s.c.f. cycle, in particular not ANY RPA, MP2, etc. many-body perturbation terms.

  Final zero-broadening corrected energy:
  | For metallic systems only, a broadening of the occupation numbers at the Fermi
  | level can be extrapolated back to zero broadening by an electron-gas inspired
  | formula. For all systems that are not real metals, this value can be
  | meaningless and should be avoided.

------------------------------------------------------------------------------

------------------------------------------------------------
          Leaving FHI-aims.
          Date     :  20150727, Time     :  123801.655

          Computational steps:
          | Number of self-consistency cycles          :           14

          Detailed time accounting                     :  max(cpu_time)    wall_clock(cpu1)
          | Total time                                 :        5.777 s           5.785 s
          | Preparation time                           :        0.172 s           0.471 s
          | Grid partitioning                          :        0.050 s           0.050 s
          | Preloading free-atom quantities on grid    :        0.013 s           0.013 s
          | Free-atom superposition energy             :        0.016 s           0.016 s
          | Total time for integrations                :        2.301 s           2.301 s
          | Total time for solution of K.-S. equations :        0.121 s           0.129 s
          | Total time for density & force components  :        1.685 s           1.680 s
          | Total time for mixing                      :        0.065 s           0.063 s
          | Total time for Hartree multipole update    :        0.029 s           0.034 s
          | Total time for Hartree multipole sum       :        0.945 s           0.942 s
          | Total time for total energy evaluation     :        0.005 s           0.006 s
          | Total time for scaled ZORA corrections     :        0.000 s           0.000 s
          | Total time for TS (2009) vdW correction    :        0.019 s           0.018 s

          Have a nice day.
------------------------------------------------------------
