  MPI-parallelism will be employed.
------------------------------------------------------------
          Invoking FHI-aims ...
          Version 081213
          Compiled on 2013/08/29 at 17:41:06 on host generoso.

          When using FHI-aims, please cite the following reference:

          Volker Blum, Ralf Gehrke, Felix Hanke, Paula Havu,
          Ville Havu, Xinguo Ren, Karsten Reuter, and Matthias Scheffler,
          'Ab Initio Molecular Simulations with Numeric Atom-Centered Orbitals: FHI-aims',
          Computer Physics Communications 180, 2175-2196 (2009)

          For any questions about FHI-aims, please visit the aimsclub website
          with its forums and wiki. Contributions to both the forums and the
          wiki are warmly encouraged - they are for you, and everyone is welcome there.

------------------------------------------------------------

  Date     :  20150727, Time     :  123110.431
  Time zero on CPU 1             :   0.409920000000000E-01  s.
  Internal wall clock time zero  :           207232270.431  s.

  Using        8 parallel tasks.
  Task        0 on host gen60 reporting.
  Task        1 on host gen60 reporting.
  Task        2 on host gen60 reporting.
  Task        3 on host gen60 reporting.
  Task        4 on host gen60 reporting.
  Task        5 on host gen60 reporting.
  Task        6 on host gen60 reporting.
  Task        7 on host gen60 reporting.

  Performing system and environment tests:
  | Environment variable OMP_NUM_THREADS correctly set to 1.
  | Checking for scalapack...
  | No scalapack compiled in.

  Obtaining array dimensions for all initial allocations:
  
  -----------------------------------------------------------------------
  Parsing control.in (first pass over file, find array dimensions only).
  The contents of control.in will be repeated verbatim below
  unless switched off by setting 'verbatim_writeout .false.' .
  in the first line of control.in .
  -----------------------------------------------------------------------
  
  #########################################################################################
  #
  #  Volker Blum, FHI 2008 : Test run input file control.in
  #
  #########################################################################################
  #
  #  Physical model
  #
    xc                 rpbe
    spin               none
    relativistic       atomic_zora scalar
    charge             0.
   vdw_correction_hirshfeld
  #
  #  SCF convergence
  #
    occupation_type    gaussian 0.01
    mixer              pulay
      n_max_pulay        10
      charge_mix_param   0.1
    sc_accuracy_rho    5E-5
    sc_accuracy_eev    5E-3
    sc_accuracy_etot   5E-6
    sc_iter_limit      3000
  #
  #  Eigenvalue solver
  #
    KS_method          lapack
      empty_states       8
      basis_threshold    0.e-5
  #
  #  Efficiency
  #
  #   all previous settings are now default, except stratmann still
  #   undecided. Continue to handle stratmann with care, if at all.
  #
  #  partition_type stratmann
    partition_type rho_r2
  #  hartree_partition_type stratmann
  #
  #  Oprions for large clusters (100's of atoms: memory saving / better scaling)
  #
  # for periodic systems:
  #
    density_update_method orbital
    packed_matrix_format none
  #  k_grid 6 6 6
  #  output k_eigenvalue 1
  #  distributed_spline_storage .true.
  #
  #  Relaxation
  #
  #  relax_geometry   bfgs 5.e-3
    sc_accuracy_forces 5.E-4
    final_forces_cleaned .true.
  #
  #  Output options
  #
  #  output mulliken
    output Hirshfeld
  #  output dipole
  
  #harmonic_length_scale 0.001
  
  ################################################################################
  #
  #  FHI-aims code project
  #  VB, Fritz-Haber Institut, 2007
  #
  #  Suggested "safe" defaults for H atom (to be pasted into control.in file)
  #  Basis constructed for a non-relativistic H2 molecule using the
  #  PW-LDA functional.
  #
  ################################################################################
    species        H
  #     global species definitions
      nucleus             1
      cut_pot             4.0  2.0  1.0
      cut_free_atom       finite 8.0
      logarithmic         0.00010000 100.00  1.0123
      basis_dep_cutoff    1d-4  # 1d-4 is safe default - please check 5d-4 if you wish!
      radial_base         24 7.0
      radial_multiplier   2
      angular_grids       specified
        division   0.2783  110
        division   0.3822  194
        division   0.5626  302
  #      division   0.5922  434
  #      division   0.6227  590
  #      division   0.7206  770
        outer_grid  302
      l_hartree           4
  ################################################################################
  #
  #  Definition of "minimal" basis
  #
  ################################################################################
  #     valence basis states
      valence      1  s   1.
  #     ion occupancy
      ion_occ      1  s   0.5
  ################################################################################
  #
  #  Suggested additional basis functions. For production calculations,
  #  uncomment them one after another (the most important basis functions are
  #  listed first).
  #
  ################################################################################
  #  "First tier" - improvements: -1014.90 meV to -62.69 meV
       hydro 2 s 2.1
       hydro 2 p 3.5
  #  "Second tier" - improvements: -12.89 meV to -1.83 meV
       hydro 1 s 0.85
       hydro 2 p 3.7
       hydro 2 s 1.2
       hydro 3 d 7
  #  "Third tier" - improvements: -0.25 meV to -0.12 meV
  #     hydro 4 f 11.2
  #     hydro 3 p 4.8
  #     hydro 4 d 9
  #     hydro 3 s 3.2
  
  ################################################################################
  #
  #  FHI-aims code project
  #  VB, Fritz-Haber Institut, 2007
  #
  #  Suggested "safe" defaults for O atom (to be pasted into control.in file)
  #  All values have been tested for a non-relativistic, non-spinpolarized O2
  #  molecule using the PW-LDA functional. Validity for PBE is expected.
  #
  #  Constructed for dimers: 1.0 A, 1.208 A, 1.5 A, 2.0 A, 3.0 A
  #
  ################################################################################
    species        O
  #     global species definitions
      nucleus             8
      mass                15.9994
      l_hartree           4
      cut_pot             4.0  2.0  1.0
      cut_free_atom       finite 8.0
      basis_dep_cutoff    1d-4  # 1d-4 is safe default - please check 5d-4 if you wish!
      logarithmic         0.00010000 100.00  1.0123
      radial_base         36 7.0
      radial_multiplier   2
       angular_grids specified
        division   0.4087  110
        division   0.5181  194
        division   0.6184  302
  #      division   0.7315  434
  #      division   0.7934  590
  #      division   0.9656  770
  #      division   1.4041  974
  #      outer_grid 974
        outer_grid 302
  ################################################################################
  #
  #  Definition of "minimal" basis
  #
  ################################################################################
  #     valence basis states
      valence      2  s   2.
      valence      2  p   4.
  #     ion occupancy
      ion_occ      2  s   1.
      ion_occ      2  p   3.
  ################################################################################
  #
  #  Suggested additional basis functions. For production calculations,
  #  uncomment them one after another (the most important basis functions are
  #  listed first).
  #
  ################################################################################
  #  "First tier" - improvements: -699.05 meV to -159.38 meV
       hydro 2 p 1.8
       hydro 3 d 7.6
       hydro 3 s 6.4
  #  "Second tier" - improvements: -49.91 meV to -5.39 meV
       hydro 4 f 11.6
       hydro 3 p 6.2
       hydro 3 d 5.6
       hydro 5 g 17.6
       hydro 1 s 0.75
  #  "Third tier" - improvements: -2.83 meV to -0.50 meV
  #     ionic 2 p auto
  #     hydro 4 f 10.8
  #     hydro 4 d 4.7
  #     hydro 2 s 6.8
  #  "Fourth tier" - improvements: -0.40 meV to -0.12 meV
  #     hydro 3 p 5
  #     hydro 3 s 3.3
  #     hydro 5 g 15.6
  #     hydro 4 f 17.6
  #     hydro 4 d 14
  # Further basis functions - -0.08 meV and below
  #     hydro 3 s 2.1
  #     hydro 4 d 11.6
  #     hydro 3 p 16
  #     hydro 2 s 17.2
  
  
  -----------------------------------------------------------------------
  Completed first pass over input file control.in .
  -----------------------------------------------------------------------
  
  
  -----------------------------------------------------------------------
  Parsing geometry.in (first pass over file, find array dimensions only).
  The contents of geometry.in will be repeated verbatim below
  unless switched off by setting 'verbatim_writeout .false.' .
  in the first line of geometry.in .
  -----------------------------------------------------------------------
  
  atom      -4.053030000      0.065001000     -1.525160000  O
  atom      -4.566710000      0.974813000     -1.912820000  H
  atom      -3.067820000      0.330172000     -1.477310000  H
  atom      -5.293160000      2.192130000     -2.328800000  O
  atom      -4.829300000      2.988660000     -1.973850000  H
  atom      -5.428570000      2.328640000     -3.235170000  H
  
  -----------------------------------------------------------------------
  Completed first pass over input file geometry.in .
  -----------------------------------------------------------------------
  
 
  Basic array size parameters: 
  | Number of species                 :        2
  | Number of atoms                   :        6
  | Max. basis fn. angular momentum   :        4
  | Max. atomic/ionic basis occupied n:        2
  | Max. number of basis fn. types    :        2
  | Max. radial fns per species/type  :        8
  | Max. logarithmic grid size        :     1301
  | Max. radial integration grid size :       73
  | Max. angular integration grid size:      302
  | Max. angular grid division number :        8
  | Radial grid for Hartree potential :     1301
  | Number of spin channels           :        1

------------------------------------------------------------
          Reading file control.in.
------------------------------------------------------------
  XC: Using RPBE gradient-corrected functionals.
  Spin treatment: No spin polarisation.
  Scalar relativistic treatment of kinetic energy: on-site free-atom approximation to ZORA.
  Charge =   0.000000E+00: Neutral system requested explicitly.
  Using non-empirical van der Waals correction (Hirshfeld partitioning):
  Occupation type: Gaussian broadening, width =   0.100000E-01 eV.
  Using pulay charge density mixing.
  Pulay mixing - number of memorized iterations:   10
  Charge density mixing - mixing parameter:     0.1000
  Convergence accuracy of self-consistent charge density: 0.5000E-04
  Convergence accuracy of sum of eigenvalues: 0.5000E-02
  Convergence accuracy of total energy: 0.5000E-05
  Maximum number of s.-c. iterations  :  3000
  Kohn-Sham eigenvalues and eigenfunctions calculated by lapack diagonalisation (D&C).
  Number of empty states per atom:        8
  Threshold for basis singularities: 0.0000E+00
  Partition function in integrals calculations: rho / r^2
 Using packed matrix format           0
  Convergence accuracy of forces: 0.5000E-03
  Cleaning forces before final output.
  Hirshfeld charge analysis will be performed.
 
  Reading configuration options for species H                   .
  | Found nuclear charge :   1.0000
  | Found cutoff potl. onset [A], width [A], scale factor :    4.00000    2.00000    1.00000
  | Found cutoff specification for free atom: Cutoff potential begins at    8.00000 A.
  | Found logarithmic grid data [bohr] : 0.1000E-03 0.1000E+03 0.1012E+01
  | Threshold for basis-dependent cutoff potential is   0.100000E-03
  | Found data for basic radial integration grid :    24 points, outermost radius =    7.000 A
  | Found multiplier for basic radial grid :   2
  | Found angular grid specification: user-specified.
  | Specified grid contains     4 separate shells.
  | Check grid settings after all constraints further below.
  | Found l_max for Hartree potential  :   4
  | Found free-atom valence shell :  1 s   1.000
  | No ionic wave fns used. Skipping ion_occ.
  | Found hydrogenic basis function :  2 s   2.100
  | Found hydrogenic basis function :  2 p   3.500
  | Found hydrogenic basis function :  1 s   0.850
  | Found hydrogenic basis function :  2 p   3.700
  | Found hydrogenic basis function :  2 s   1.200
  | Found hydrogenic basis function :  3 d   7.000
  Species H                   : Missing cutoff potential type.
  Defaulting to exp(1/x)/(1-x)^2 type cutoff potential.
  Species H : On-site basis accuracy parameter (for Gram-Schmidt orthonormalisation) not specified.
  Using default value basis_acc =  0.1000000E-03.
  Species H                   : Using default innermost maximum threshold i_radial=  2 for radial functions.
  Species H                   : Basic radial grid will be enhanced according to radial_multiplier =   2, to contain    49 grid points.
 
  Reading configuration options for species O                   .
  | Found nuclear charge :   8.0000
  | Found atomic mass :    15.9994000000000      amu
  | Found l_max for Hartree potential  :   4
  | Found cutoff potl. onset [A], width [A], scale factor :    4.00000    2.00000    1.00000
  | Found cutoff specification for free atom: Cutoff potential begins at    8.00000 A.
  | Threshold for basis-dependent cutoff potential is   0.100000E-03
  | Found logarithmic grid data [bohr] : 0.1000E-03 0.1000E+03 0.1012E+01
  | Found data for basic radial integration grid :    36 points, outermost radius =    7.000 A
  | Found multiplier for basic radial grid :   2
  | Found angular grid specification: user-specified.
  | Specified grid contains     4 separate shells.
  | Check grid settings after all constraints further below.
  | Found free-atom valence shell :  2 s   2.000
  | Found free-atom valence shell :  2 p   4.000
  | No ionic wave fns used. Skipping ion_occ.
  | No ionic wave fns used. Skipping ion_occ.
  | Found hydrogenic basis function :  2 p   1.800
  | Found hydrogenic basis function :  3 d   7.600
  | Found hydrogenic basis function :  3 s   6.400
  | Found hydrogenic basis function :  4 f  11.600
  | Found hydrogenic basis function :  3 p   6.200
  | Found hydrogenic basis function :  3 d   5.600
  | Found hydrogenic basis function :  5 g  17.600
  | Found hydrogenic basis function :  1 s   0.750
  Species O                   : Missing cutoff potential type.
  Defaulting to exp(1/x)/(1-x)^2 type cutoff potential.
  Species O : On-site basis accuracy parameter (for Gram-Schmidt orthonormalisation) not specified.
  Using default value basis_acc =  0.1000000E-03.
  Species O                   : Using default innermost maximum threshold i_radial=  2 for radial functions.
  Species O                   : Basic radial grid will be enhanced according to radial_multiplier =   2, to contain    73 grid points.
 
  Finished reading input file 'control.in'. Consistency checks are next.
 
  Target number of points in a grid batch is not set. Defaulting to  100
  Method for grid partitioning is not set. Defaulting to parallel hash+maxmin partitioning.
  Batch size limit is not set. Defaulting to    200
  By default, will store active basis functions for each batch.
  If in need of memory, prune_basis_once .false. can be used to disable this option.
  communication_type for Hartree potential was not specified.
  Defaulting to calc_hartree .
  Pulay mixer: Number of initial linear mixing iterations not set.
  Defaulting to    0 iterations.
  Work space size for distributed Hartree potential not set.
  Defaulting to   0.200000E+03 MB.
  Algorithm-dependent basis array size parameters:
  | n_max_pulay                         :       10
  Geometry relaxation not requested: no relaxation will be performed.
  Handling of forces: Unphysical translation and rotation will be removed from forces.
  No accuracy limit for integral partition fn. given. Defaulting to 0.1000E-14.
  No threshold value for u(r) in integrations given. Defaulting to 0.1000E-05.
  No accuracy for occupation numbers given. Defaulting to 0.1000E-07.
  No threshold value for occupation numbers given. Defaulting to 0.0000E+00.
  No accuracy for fermi level given. Defaulting to 0.1000E-19.
  Maximum # of iterations to find E_F not set. Defaulting to  200.
  Will not use alltoall communication since running on < 1024 CPUs.
  Partitioning for Hartree potential was not defined. Using partition_type for integrals.
  | Reporting present value of keyword multip_moments_threshold  :       0.10000000E-09
  | This value may affect high angular momentum components of the Hartree potential in periodic systems.
  No q(lm)/r^(l+1) cutoff set for long-range Hartree potential.
  | Using default value of  0.100000E-09 .
  | Verify using the multipole_threshold keyword.
  Defaulting to new monopole extrapolation.
  Density update method: Loop over occupied states selected for charge density update.
------------------------------------------------------------


------------------------------------------------------------
          Reading geometry description geometry.in.
------------------------------------------------------------
  Input structure read successfully.
  The structure contains        6 atoms,  and a total of         20.000 electrons.

  Input geometry:
  | No unit cell requested.
  | Atomic structure:
  |       Atom                x [A]            y [A]            z [A]
  |    1: Species O             -4.053030         0.065001        -1.525160
  |    2: Species H             -4.566710         0.974813        -1.912820
  |    3: Species H             -3.067820         0.330172        -1.477310
  |    4: Species O             -5.293160         2.192130        -2.328800
  |    5: Species H             -4.829300         2.988660        -1.973850
  |    6: Species H             -5.428570         2.328640        -3.235170
  |

  | The smallest distance between any two atoms is         0.92654057 AA.
  |
  | The first atom of this pair is atom number                      4 .
  | The second atom of this pair is atom number                     6 .

  Structure-dependent array size parameters: 
  | Maximum number of distinct radial functions  :       18
  | Maximum number of basis functions            :      138
  | Number of Kohn-Sham states (occupied + empty):       34
------------------------------------------------------------

------------------------------------------------------------
          Preparing all fixed parts of the calculation.
------------------------------------------------------------
  Determining machine precision:
    2.225073858507201E-308
  Setting up grids for atomic and cluster calculations.

  Creating wave function, potential, and density for free atoms.

  Species: H

  List of occupied orbitals and eigenvalues:
    n    l              occ      energy [Ha]    energy [eV]
    1    0           1.0000        -0.241408        -6.5691


  Species: O

  List of occupied orbitals and eigenvalues:
    n    l              occ      energy [Ha]    energy [eV]
    1    0           2.0000       -18.944147      -515.4965
    2    0           2.0000        -0.883529       -24.0421
    2    1           4.0000        -0.330176        -8.9845

  Creating fixed part of basis set: Ionic, confined, hydrogenic.
 
  H                    hydrogenic:
 
  List of hydrogenic basis orbitals: 
    n    l      effective z      eigenvalue [eV]  inner max. [A]     outer max. [A]     outer radius [A]   
    2    0         2.100000       -14.9965           0.193241           1.317192           5.372934
    2    1         3.500000       -41.6672           0.602363           0.602363           4.056010
    1    0         0.850000        -9.8292           0.624864           0.624864           5.372934
    2    1         3.700000       -46.5653           0.573616           0.573616           3.909951
    2    0         1.200000        -4.5995           0.334977           2.228160           5.505921
    3    2         7.000000       -74.0753           0.680692           0.680692           3.769152
 
 
  O                    hydrogenic:
 
  List of hydrogenic basis orbitals: 
    n    l      effective z      eigenvalue [eV]  inner max. [A]     outer max. [A]     outer radius [A]   
    2    1         1.800000       -11.0118           1.178546           1.178546           5.432516
    3    2         7.600000       -87.3182           0.624117           0.624117           3.541422
    3    0         6.400000       -61.9209           0.061166           1.081887           4.306510
    4    3        11.600000      -114.4238           0.731621           0.731621           3.584982
    3    1         6.200000       -58.1113           0.255677           1.030255           4.306510
    3    2         5.600000       -47.4081           0.847222           0.847222           4.413102
    5    4        17.600000      -168.5799           0.749730           0.749730           3.372413
    1    0         0.750000        -7.6499           0.705275           0.705275           5.366508
 

  Adding cutoff potential to free-atom effective potential.
  Creating atomic-like basis functions for current effective potential.

  Species H                   :

  List of atomic basis orbitals and eigenvalues:
    n    l      energy [Ha]    energy [eV]    outer radius [A]
    1    0        -0.241374        -6.5681       5.372934


  Species O                   :

  List of atomic basis orbitals and eigenvalues:
    n    l      energy [Ha]    energy [eV]    outer radius [A]
    1    0       -18.944147      -515.4965       1.415745
    2    0        -0.883529       -24.0421       5.048305
    2    1        -0.330173        -8.9845       5.301302

  Assembling full basis from fixed parts.
  | Species H :   atomic orbital   1 s accepted.
  | Species H :    hydro orbital   2 s accepted.
  | Species H :    hydro orbital   1 s accepted.
  | Species H :    hydro orbital   2 s accepted.
  | Species H :    hydro orbital   2 p accepted.
  | Species H :    hydro orbital   2 p accepted.
  | Species H :    hydro orbital   3 d accepted.
  | Species O :   atomic orbital   1 s accepted.
  | Species O :    hydro orbital   3 s accepted.
  | Species O :   atomic orbital   2 s accepted.
  | Species O :    hydro orbital   1 s accepted.
  | Species O :    hydro orbital   3 p accepted.
  | Species O :   atomic orbital   2 p accepted.
  | Species O :    hydro orbital   2 p accepted.
  | Species O :    hydro orbital   3 d accepted.
  | Species O :    hydro orbital   3 d accepted.
  | Species O :    hydro orbital   4 f accepted.
  | Species O :    hydro orbital   5 g accepted.
 
  Basis size parameters after reduction:
  | Total number of radial functions:       18
  | Total number of basis functions :      138
 
  Testing on-site integration grid accuracy.
  |  Species  Function  <phi|h_atom|phi> (log., in eV)  <phi|h_atom|phi> (rad., in eV)
           1        1                 -6.5683835025                 -6.5684759159
           1        2                 13.3711789951                 13.3708738703
           1        3                 23.6590910787                 23.6532055418
           1        4                 16.2963827186                 16.1870710655 ***
           1        5                 28.7627214838                 28.7627215090
           1        6                 59.5965249172                 59.5965950857
           1        7                 60.2220506392                 60.2220503827
           2        8               -515.4964576505               -515.4964530710
           2        9                 15.3030791347                 15.3030722972
           2       10                -21.7296094581                -21.7296135470
           2       11                 14.2969371730                 14.2969701621
           2       12                 21.0679693190                 21.0679697493
           2       13                 -2.3833606469                 -2.3833613176
           2       14                 13.7067136422                 13.7066766629
           2       15                 45.8013116808                 45.8013116965
           2       16                 52.2309815402                 52.2309831494
           2       17                 85.4120732416                 85.4120732763
           2       18                142.1019167745                142.1019167817
 * Note: Onsite integrals marked "***" above are less accurate than
 * onsite_accuracy_threshold =    0.03000 eV. Usually, this is harmless.
 * When in doubt, tighten the "radial" and/or "radial_multiplier" flags to check.

  Preparing densities etc. for the partition functions (integrals / Hartree potential).

  Preparations completed.
  max(cpu_time)          :      0.171 s.
  Wall clock time (cpu1) :      0.448 s.
------------------------------------------------------------

------------------------------------------------------------
          Begin self-consistency loop: Initialization.

          Date     :  20150727, Time     :  123110.963
------------------------------------------------------------

  Initializing index lists of integration centers etc. from given atomic structure:
  | Number of centers in hartree potential         :         6
  | Number of centers in hartree multipole         :         6
  | Number of centers in electron density summation:         6
  | Number of centers in basis integrals           :         6
  | Number of centers in integrals                 :         6
  Partitioning the integration grid into batches with parallel hashing+maxmin method.
  | Number of batches:     1032
  | Maximal batch size:     199
  | Minimal batch size:      49
  | Average batch size:      76.244
  | Standard deviation of batch sizes:      24.158

  Integration load balanced across     8 MPI tasks.
  Work distribution over tasks is as follows:
  Task     0 has       9803 integration points.
  Task     1 has       9807 integration points.
  Task     2 has       9899 integration points.
  Task     3 has       9804 integration points.
  Task     4 has       9871 integration points.
  Task     5 has       9832 integration points.
  Task     6 has       9869 integration points.
  Task     7 has       9799 integration points.
  Initializing partition tables, free-atom densities, potentials, etc. across the integration grid (initialize_grid_storage).
  | Net number of integration points:    78684
  | of which are non-zero points    :    78240
  Obtaining max. number of non-zero basis functions in each batch (get_n_compute_maxes).
  | Maximal number of non-zero basis functions:      138 in task     0
  | Maximal number of non-zero basis functions:      138 in task     1
  | Maximal number of non-zero basis functions:      138 in task     2
  | Maximal number of non-zero basis functions:      138 in task     3
  | Maximal number of non-zero basis functions:      138 in task     4
  | Maximal number of non-zero basis functions:      138 in task     5
  | Maximal number of non-zero basis functions:      138 in task     6
  | Maximal number of non-zero basis functions:      138 in task     7
  Integrating Hamiltonian matrix: batch-based integration.
  Time summed over all CPUs for integration: real work        1.149 s, elapsed        1.181 s
  Integrating overlap matrix.
  Time summed over all CPUs for integration: real work        0.570 s, elapsed        0.582 s

  Updating Kohn-Sham eigenvalues, eigenvectors, occupation numbers, and Fermi level.
  Solving generalized eigenproblem
  Updating Kohn-Sham eigenvalues and eigenfunctions.
  Transforming overlap matrix and checking for singularities.
  Overlap matrix is nonsingular:
  | Lowest eigenvalue:  0.370820E-03
  Solving real generalised eigenvalue problem by standard LAPACK (fast)
  Determining occupation numbers for Kohn-Sham eigenstates.
  | Chemical potential (Fermi level) in eV                 : -.61389467E+01
  | Error in electron count due to remaining E_F inaccuracy: 0.00000000E+00
  | Maximum occupation number of highest empty state:  0.00E+00

  Writing Kohn-Sham eigenvalues.

  State    Occupation    Eigenvalue [Ha]    Eigenvalue [eV]
      1       2.00000         -19.064782         -518.77910
      2       2.00000         -19.019411         -517.54450
      3       2.00000          -1.121132          -30.50754
      4       2.00000          -1.043093          -28.38401
      5       2.00000          -0.650061          -17.68906
      6       2.00000          -0.596103          -16.22078
      7       2.00000          -0.524290          -14.26666
      8       2.00000          -0.481907          -13.11336
      9       2.00000          -0.440872          -11.99673
     10       2.00000          -0.409538          -11.14409
     11       0.00000          -0.079812           -2.17180
     12       0.00000          -0.040590           -1.10451
     13       0.00000          -0.005301           -0.14425
     14       0.00000           0.041009            1.11590
     15       0.00000           0.086935            2.36562
     16       0.00000           0.094192            2.56309
     17       0.00000           0.096358            2.62203
     18       0.00000           0.112512            3.06160
     19       0.00000           0.121724            3.31228
     20       0.00000           0.157688            4.29090
     21       0.00000           0.170194            4.63122
     22       0.00000           0.210980            5.74107
     23       0.00000           0.257806            7.01526
     24       0.00000           0.266312            7.24672
     25       0.00000           0.339500            9.23825
     26       0.00000           0.356055            9.68874
     27       0.00000           0.376451           10.24374
     28       0.00000           0.398216           10.83601
     29       0.00000           0.418126           11.37779
     30       0.00000           0.465091           12.65576
     31       0.00000           0.475248           12.93215
     32       0.00000           0.528307           14.37597
     33       0.00000           0.573090           15.59458
     34       0.00000           0.651941           17.74023

  Highest occupied state (VBM) at    -11.14409494 eV
  | Occupation number:      2.00000000

  Lowest unoccupied state (CBM) at    -2.17179756 eV
  | Occupation number:      0.00000000

  Overall HOMO-LUMO gap:      8.97229737 eV.
  Calculating total energy contributions from superposition of free atom densities.

  Total energy components:
  | Sum of eigenvalues            :         -86.70237627 Ha       -2359.29169774 eV
  | XC energy correction          :         -18.22123091 Ha        -495.82492043 eV
  | XC potential correction       :          23.28256430 Ha         633.55080937 eV
  | Free-atom electrostatic energy:         -71.58683353 Ha       -1947.97685224 eV
  | Hartree energy correction     :           0.00000000 Ha           0.00000000 eV
  | van der Waals energy corr.    :           0.00000000 Ha           0.00000000 eV
  | Entropy correction            :           0.00000000 Ha           0.00000000 eV
  | ---------------------------
  | Total energy                  :        -153.22787641 Ha       -4169.54266104 eV
  | Total energy, T -> 0          :        -153.22787641 Ha       -4169.54266104 eV  <-- do not rely on this value for anything but (periodic) metals
  | Electronic free energy        :        -153.22787641 Ha       -4169.54266104 eV

  Derived energy quantities:
  | Kinetic energy                :         151.65606704 Ha        4126.77155200 eV
  | Electrostatic energy          :        -286.66271253 Ha       -7800.48929260 eV
  | Energy correction for multipole
  | error in Hartree potential    :           0.00000000 Ha           0.00000000 eV
  | Sum of eigenvalues per atom                           :        -393.21528296 eV
  | Total energy (T->0) per atom                          :        -694.92377684 eV  <-- do not rely on this value for anything but (periodic) metals
  | Electronic free energy per atom                       :        -694.92377684 eV
  Initialize hartree_potential_storage
  Max. number of atoms included in rho_multipole:            6

  End scf initialization - timings             :  max(cpu_time)    wall_clock(cpu1)
  | Time for scf. initialization               :        0.357 s           0.357 s
  | Boundary condition initialization          :        0.000 s           0.000 s
  | Integration                                :        0.223 s           0.223 s
  | Solution of K.-S. eqns.                    :        0.028 s           0.028 s
  | Grid partitioning                          :        0.053 s           0.053 s
  | Preloading free-atom quantities on grid    :        0.013 s           0.013 s
  | Free-atom superposition energy             :        0.016 s           0.016 s
  | Total energy evaluation                    :        0.000 s           0.001 s
------------------------------------------------------------

------------------------------------------------------------
          Begin self-consistency iteration #    1

  Date     :  20150727, Time     :  123111.320
------------------------------------------------------------
  Evaluating new KS density.
  Integration grid: deviation in total charge (<rho> - N_e) =  -7.105427E-15
  Pulay mixing of updated and previous charge densities.

  Evaluating partitioned Hartree potential by multipole expansion.
  | Analytical far-field extrapolation by fixed multipoles:
  | Hartree multipole sum: apparent total charge =  -0.806181E-06
  Summing up the Hartree potential.
  Time summed over all CPUs for potential: real work        0.431 s, elapsed        0.434 s
  | RMS charge density error from multipole expansion :   0.101892E-02

  Integrating Hamiltonian matrix: batch-based integration.
  Time summed over all CPUs for integration: real work        1.152 s, elapsed        1.180 s

  Updating Kohn-Sham eigenvalues, eigenvectors, occupation numbers, and Fermi level.
  Solving generalized eigenproblem
  Updating Kohn-Sham eigenvalues and eigenfunctions.
  Solving real generalised eigenvalue problem by standard LAPACK (fast)
  Determining occupation numbers for Kohn-Sham eigenstates.
  | Chemical potential (Fermi level) in eV                 : -.57757700E+01
  | Error in electron count due to remaining E_F inaccuracy: 0.00000000E+00
  | Maximum occupation number of highest empty state:  0.00E+00

  Writing Kohn-Sham eigenvalues.

  State    Occupation    Eigenvalue [Ha]    Eigenvalue [eV]
      1       2.00000         -18.999456         -517.00149
      2       2.00000         -18.934554         -515.23544
      3       2.00000          -1.091537          -29.70222
      4       2.00000          -0.998042          -27.15812
      5       2.00000          -0.625013          -17.00747
      6       2.00000          -0.562839          -15.31563
      7       2.00000          -0.487923          -13.27706
      8       2.00000          -0.445257          -12.11607
      9       2.00000          -0.401969          -10.93814
     10       2.00000          -0.362933           -9.87590
     11       0.00000          -0.073883           -2.01047
     12       0.00000          -0.032135           -0.87443
     13       0.00000          -0.002072           -0.05639
     14       0.00000           0.049922            1.35845
     15       0.00000           0.094188            2.56298
     16       0.00000           0.106739            2.90451
     17       0.00000           0.107229            2.91784
     18       0.00000           0.119813            3.26027
     19       0.00000           0.133602            3.63550
     20       0.00000           0.167315            4.55287
     21       0.00000           0.178758            4.86425
     22       0.00000           0.218447            5.94426
     23       0.00000           0.264226            7.18996
     24       0.00000           0.274394            7.46664
     25       0.00000           0.348068            9.47142
     26       0.00000           0.363236            9.88414
     27       0.00000           0.382075           10.39680
     28       0.00000           0.408849           11.12534
     29       0.00000           0.425033           11.56574
     30       0.00000           0.473517           12.88506
     31       0.00000           0.488325           13.28800
     32       0.00000           0.536561           14.60057
     33       0.00000           0.584439           15.90339
     34       0.00000           0.662867           18.03752

  Highest occupied state (VBM) at     -9.87590145 eV
  | Occupation number:      2.00000000

  Lowest unoccupied state (CBM) at    -2.01046515 eV
  | Occupation number:      0.00000000

  Overall HOMO-LUMO gap:      7.86543630 eV.

  Total energy components:
  | Sum of eigenvalues            :         -85.81904628 Ha       -2335.25506569 eV
  | XC energy correction          :         -18.31741050 Ha        -498.44210010 eV
  | XC potential correction       :          23.40857797 Ha         636.97981574 eV
  | Free-atom electrostatic energy:         -71.58683353 Ha       -1947.97685224 eV
  | Hartree energy correction     :          -0.85401323 Ha         -23.23888228 eV
  | van der Waals energy corr.    :           0.00000000 Ha           0.00000000 eV
  | Entropy correction            :           0.00000000 Ha           0.00000000 eV
  | ---------------------------
  | Total energy                  :        -153.16872556 Ha       -4167.93308457 eV
  | Total energy, T -> 0          :        -153.16872556 Ha       -4167.93308457 eV  <-- do not rely on this value for anything but (periodic) metals
  | Electronic free energy        :        -153.16872556 Ha       -4167.93308457 eV

  Derived energy quantities:
  | Kinetic energy                :         152.22654728 Ha        4142.29510911 eV
  | Electrostatic energy          :        -287.07786234 Ha       -7811.78609358 eV
  | Energy correction for multipole
  | error in Hartree potential    :          -0.00010860 Ha          -0.00295511 eV
  | Sum of eigenvalues per atom                           :        -389.20917762 eV
  | Total energy (T->0) per atom                          :        -694.65551410 eV  <-- do not rely on this value for anything but (periodic) metals
  | Electronic free energy per atom                       :        -694.65551410 eV

  Self-consistency convergence accuracy:
  | Change of charge density      : 0.4167E+00
  | Change of sum of eigenvalues  : 0.2404E+02 eV
  | Change of total energy        : 0.1610E+01 eV

  End self-consistency iteration #     1       :  max(cpu_time)    wall_clock(cpu1)
  | Time for this iteration                    :        0.309 s           0.309 s
  | Charge density update                      :        0.095 s           0.095 s
  | Density mixing                             :        0.001 s           0.001 s
  | Hartree multipole update                   :        0.003 s           0.003 s
  | Hartree multipole summation                :        0.055 s           0.055 s
  | Integration                                :        0.148 s           0.148 s
  | Solution of K.-S. eqns.                    :        0.006 s           0.006 s
  | Total energy evaluation                    :        0.001 s           0.001 s
------------------------------------------------------------

------------------------------------------------------------
          Begin self-consistency iteration #    2

  Date     :  20150727, Time     :  123111.629
------------------------------------------------------------
  Evaluating new KS density.
  Integration grid: deviation in total charge (<rho> - N_e) =   1.065814E-14
  Pulay mixing of updated and previous charge densities.

  Evaluating partitioned Hartree potential by multipole expansion.
  | Analytical far-field extrapolation by fixed multipoles:
  | Hartree multipole sum: apparent total charge =  -0.234004E-05
  Summing up the Hartree potential.
  Time summed over all CPUs for potential: real work        0.431 s, elapsed        0.434 s
  | RMS charge density error from multipole expansion :   0.405200E-02

  Integrating Hamiltonian matrix: batch-based integration.
  Time summed over all CPUs for integration: real work        1.147 s, elapsed        1.180 s

  Updating Kohn-Sham eigenvalues, eigenvectors, occupation numbers, and Fermi level.
  Solving generalized eigenproblem
  Updating Kohn-Sham eigenvalues and eigenfunctions.
  Solving real generalised eigenvalue problem by standard LAPACK (fast)
  Determining occupation numbers for Kohn-Sham eigenstates.
  | Chemical potential (Fermi level) in eV                 : -.48528447E+01
  | Error in electron count due to remaining E_F inaccuracy: 0.00000000E+00
  | Maximum occupation number of highest empty state:  0.00E+00

  Highest occupied state (VBM) at     -6.90322084 eV
  | Occupation number:      2.00000000

  Lowest unoccupied state (CBM) at    -1.69022209 eV
  | Occupation number:      0.00000000

  Overall HOMO-LUMO gap:      5.21299875 eV.

  Total energy components:
  | Sum of eigenvalues            :         -83.75515772 Ha       -2279.09380066 eV
  | XC energy correction          :         -18.55215965 Ha        -504.82994947 eV
  | XC potential correction       :          23.71588817 Ha         645.34215170 eV
  | Free-atom electrostatic energy:         -71.58683353 Ha       -1947.97685224 eV
  | Hartree energy correction     :          -2.92142989 Ha         -79.49615211 eV
  | van der Waals energy corr.    :           0.00000000 Ha           0.00000000 eV
  | Entropy correction            :           0.00000000 Ha           0.00000000 eV
  | ---------------------------
  | Total energy                  :        -153.09969262 Ha       -4166.05460278 eV
  | Total energy, T -> 0          :        -153.09969262 Ha       -4166.05460278 eV  <-- do not rely on this value for anything but (periodic) metals
  | Electronic free energy        :        -153.09969262 Ha       -4166.05460278 eV

  Derived energy quantities:
  | Kinetic energy                :         153.35947422 Ha        4173.12361969 eV
  | Electrostatic energy          :        -287.90700719 Ha       -7834.34827300 eV
  | Energy correction for multipole
  | error in Hartree potential    :          -0.00070827 Ha          -0.01927306 eV
  | Sum of eigenvalues per atom                           :        -379.84896678 eV
  | Total energy (T->0) per atom                          :        -694.34243380 eV  <-- do not rely on this value for anything but (periodic) metals
  | Electronic free energy per atom                       :        -694.34243380 eV

  Self-consistency convergence accuracy:
  | Change of charge density      : 0.3145E+00
  | Change of sum of eigenvalues  : 0.5616E+02 eV
  | Change of total energy        : 0.1878E+01 eV

  End self-consistency iteration #     2       :  max(cpu_time)    wall_clock(cpu1)
  | Time for this iteration                    :        0.308 s           0.308 s
  | Charge density update                      :        0.094 s           0.093 s
  | Density mixing                             :        0.002 s           0.003 s
  | Hartree multipole update                   :        0.002 s           0.002 s
  | Hartree multipole summation                :        0.055 s           0.055 s
  | Integration                                :        0.148 s           0.148 s
  | Solution of K.-S. eqns.                    :        0.006 s           0.006 s
  | Total energy evaluation                    :        0.000 s           0.001 s
------------------------------------------------------------

------------------------------------------------------------
          Begin self-consistency iteration #    3

  Date     :  20150727, Time     :  123111.937
------------------------------------------------------------
  Evaluating new KS density.
  Integration grid: deviation in total charge (<rho> - N_e) =  -3.552714E-15
  Pulay mixing of updated and previous charge densities.

  Evaluating partitioned Hartree potential by multipole expansion.
  | Analytical far-field extrapolation by fixed multipoles:
  | Hartree multipole sum: apparent total charge =  -0.233598E-05
  Summing up the Hartree potential.
  Time summed over all CPUs for potential: real work        0.431 s, elapsed        0.434 s
  | RMS charge density error from multipole expansion :   0.831801E-02

  Integrating Hamiltonian matrix: batch-based integration.
  Time summed over all CPUs for integration: real work        1.150 s, elapsed        1.179 s

  Updating Kohn-Sham eigenvalues, eigenvectors, occupation numbers, and Fermi level.
  Solving generalized eigenproblem
  Updating Kohn-Sham eigenvalues and eigenfunctions.
  Solving real generalised eigenvalue problem by standard LAPACK (fast)
  Determining occupation numbers for Kohn-Sham eigenstates.
  | Chemical potential (Fermi level) in eV                 : -.46085393E+01
  | Error in electron count due to remaining E_F inaccuracy: 0.00000000E+00
  | Maximum occupation number of highest empty state:  0.00E+00

  Highest occupied state (VBM) at     -6.73153168 eV
  | Occupation number:      2.00000000

  Lowest unoccupied state (CBM) at    -1.65290861 eV
  | Occupation number:      0.00000000

  Overall HOMO-LUMO gap:      5.07862307 eV.

  Total energy components:
  | Sum of eigenvalues            :         -83.83201667 Ha       -2281.18523889 eV
  | XC energy correction          :         -18.54243022 Ha        -504.56519832 eV
  | XC potential correction       :          23.70140818 Ha         644.94813121 eV
  | Free-atom electrostatic energy:         -71.58683353 Ha       -1947.97685224 eV
  | Hartree energy correction     :          -2.83661418 Ha         -77.18819914 eV
  | van der Waals energy corr.    :           0.00000000 Ha           0.00000000 eV
  | Entropy correction            :           0.00000000 Ha           0.00000000 eV
  | ---------------------------
  | Total energy                  :        -153.09648641 Ha       -4165.96735739 eV
  | Total energy, T -> 0          :        -153.09648641 Ha       -4165.96735739 eV  <-- do not rely on this value for anything but (periodic) metals
  | Electronic free energy        :        -153.09648641 Ha       -4165.96735739 eV

  Derived energy quantities:
  | Kinetic energy                :         152.53038644 Ha        4150.56299336 eV
  | Electrostatic energy          :        -287.08444263 Ha       -7811.96515243 eV
  | Energy correction for multipole
  | error in Hartree potential    :          -0.00269726 Ha          -0.07339612 eV
  | Sum of eigenvalues per atom                           :        -380.19753981 eV
  | Total energy (T->0) per atom                          :        -694.32789290 eV  <-- do not rely on this value for anything but (periodic) metals
  | Electronic free energy per atom                       :        -694.32789290 eV

  Self-consistency convergence accuracy:
  | Change of charge density      : 0.1583E+00
  | Change of sum of eigenvalues  : -.2091E+01 eV
  | Change of total energy        : 0.8725E-01 eV

  End self-consistency iteration #     3       :  max(cpu_time)    wall_clock(cpu1)
  | Time for this iteration                    :        0.308 s           0.308 s
  | Charge density update                      :        0.093 s           0.093 s
  | Density mixing                             :        0.003 s           0.003 s
  | Hartree multipole update                   :        0.002 s           0.002 s
  | Hartree multipole summation                :        0.055 s           0.055 s
  | Integration                                :        0.148 s           0.148 s
  | Solution of K.-S. eqns.                    :        0.007 s           0.006 s
  | Total energy evaluation                    :        0.000 s           0.000 s
------------------------------------------------------------

------------------------------------------------------------
          Begin self-consistency iteration #    4

  Date     :  20150727, Time     :  123112.245
------------------------------------------------------------
  Evaluating new KS density.
  Integration grid: deviation in total charge (<rho> - N_e) =   1.776357E-14
  Pulay mixing of updated and previous charge densities.

  Evaluating partitioned Hartree potential by multipole expansion.
  | Analytical far-field extrapolation by fixed multipoles:
  | Hartree multipole sum: apparent total charge =  -0.272461E-05
  Summing up the Hartree potential.
  Time summed over all CPUs for potential: real work        0.431 s, elapsed        0.434 s
  | RMS charge density error from multipole expansion :   0.102743E-01

  Integrating Hamiltonian matrix: batch-based integration.
  Time summed over all CPUs for integration: real work        1.147 s, elapsed        1.176 s

  Updating Kohn-Sham eigenvalues, eigenvectors, occupation numbers, and Fermi level.
  Solving generalized eigenproblem
  Updating Kohn-Sham eigenvalues and eigenfunctions.
  Solving real generalised eigenvalue problem by standard LAPACK (fast)
  Determining occupation numbers for Kohn-Sham eigenstates.
  | Chemical potential (Fermi level) in eV                 : -.42964987E+01
  | Error in electron count due to remaining E_F inaccuracy: 0.00000000E+00
  | Maximum occupation number of highest empty state:  0.00E+00

  Highest occupied state (VBM) at     -5.85962296 eV
  | Occupation number:      2.00000000

  Lowest unoccupied state (CBM) at    -1.55767659 eV
  | Occupation number:      0.00000000

  Overall HOMO-LUMO gap:      4.30194637 eV.

  Total energy components:
  | Sum of eigenvalues            :         -83.29741976 Ha       -2266.63811704 eV
  | XC energy correction          :         -18.60946379 Ha        -506.38927448 eV
  | XC potential correction       :          23.78895034 Ha         647.33027466 eV
  | Free-atom electrostatic energy:         -71.58683353 Ha       -1947.97685224 eV
  | Hartree energy correction     :          -3.38690177 Ha         -92.16228644 eV
  | van der Waals energy corr.    :           0.00000000 Ha           0.00000000 eV
  | Entropy correction            :           0.00000000 Ha           0.00000000 eV
  | ---------------------------
  | Total energy                  :        -153.09166851 Ha       -4165.83625554 eV
  | Total energy, T -> 0          :        -153.09166851 Ha       -4165.83625554 eV  <-- do not rely on this value for anything but (periodic) metals
  | Electronic free energy        :        -153.09166851 Ha       -4165.83625554 eV

  Derived energy quantities:
  | Kinetic energy                :         152.60679908 Ha        4152.64228710 eV
  | Electrostatic energy          :        -287.08900380 Ha       -7812.08926816 eV
  | Energy correction for multipole
  | error in Hartree potential    :          -0.00341126 Ha          -0.09282500 eV
  | Sum of eigenvalues per atom                           :        -377.77301951 eV
  | Total energy (T->0) per atom                          :        -694.30604259 eV  <-- do not rely on this value for anything but (periodic) metals
  | Electronic free energy per atom                       :        -694.30604259 eV

  Self-consistency convergence accuracy:
  | Change of charge density      : 0.8762E-01
  | Change of sum of eigenvalues  : 0.1455E+02 eV
  | Change of total energy        : 0.1311E+00 eV

  End self-consistency iteration #     4       :  max(cpu_time)    wall_clock(cpu1)
  | Time for this iteration                    :        0.308 s           0.308 s
  | Charge density update                      :        0.093 s           0.093 s
  | Density mixing                             :        0.004 s           0.003 s
  | Hartree multipole update                   :        0.002 s           0.003 s
  | Hartree multipole summation                :        0.055 s           0.055 s
  | Integration                                :        0.147 s           0.147 s
  | Solution of K.-S. eqns.                    :        0.007 s           0.007 s
  | Total energy evaluation                    :        0.000 s           0.000 s
------------------------------------------------------------

------------------------------------------------------------
          Begin self-consistency iteration #    5

  Date     :  20150727, Time     :  123112.553
------------------------------------------------------------
  Evaluating new KS density.
  Integration grid: deviation in total charge (<rho> - N_e) =   1.776357E-14
  Pulay mixing of updated and previous charge densities.

  Evaluating partitioned Hartree potential by multipole expansion.
  | Analytical far-field extrapolation by fixed multipoles:
  | Hartree multipole sum: apparent total charge =  -0.279683E-05
  Summing up the Hartree potential.
  Time summed over all CPUs for potential: real work        0.431 s, elapsed        0.433 s
  | RMS charge density error from multipole expansion :   0.110573E-01

  Integrating Hamiltonian matrix: batch-based integration.
  Time summed over all CPUs for integration: real work        1.146 s, elapsed        1.173 s

  Updating Kohn-Sham eigenvalues, eigenvectors, occupation numbers, and Fermi level.
  Solving generalized eigenproblem
  Updating Kohn-Sham eigenvalues and eigenfunctions.
  Solving real generalised eigenvalue problem by standard LAPACK (fast)
  Determining occupation numbers for Kohn-Sham eigenstates.
  | Chemical potential (Fermi level) in eV                 : -.42376279E+01
  | Error in electron count due to remaining E_F inaccuracy: 0.00000000E+00
  | Maximum occupation number of highest empty state:  0.00E+00

  Highest occupied state (VBM) at     -5.52468456 eV
  | Occupation number:      2.00000000

  Lowest unoccupied state (CBM) at    -1.53341309 eV
  | Occupation number:      0.00000000

  Overall HOMO-LUMO gap:      3.99127148 eV.

  Total energy components:
  | Sum of eigenvalues            :         -83.16783900 Ha       -2263.11204510 eV
  | XC energy correction          :         -18.62774257 Ha        -506.88666533 eV
  | XC potential correction       :          23.81265106 Ha         647.97520398 eV
  | Free-atom electrostatic energy:         -71.58683353 Ha       -1947.97685224 eV
  | Hartree energy correction     :          -3.52163438 Ha         -95.82854721 eV
  | van der Waals energy corr.    :           0.00000000 Ha           0.00000000 eV
  | Entropy correction            :           0.00000000 Ha           0.00000000 eV
  | ---------------------------
  | Total energy                  :        -153.09139841 Ha       -4165.82890590 eV
  | Total energy, T -> 0          :        -153.09139841 Ha       -4165.82890590 eV  <-- do not rely on this value for anything but (periodic) metals
  | Electronic free energy        :        -153.09139841 Ha       -4165.82890590 eV

  Derived energy quantities:
  | Kinetic energy                :         152.62111548 Ha        4153.03185605 eV
  | Electrostatic energy          :        -287.08477133 Ha       -7811.97409663 eV
  | Energy correction for multipole
  | error in Hartree potential    :          -0.00366108 Ha          -0.09962294 eV
  | Sum of eigenvalues per atom                           :        -377.18534085 eV
  | Total energy (T->0) per atom                          :        -694.30481765 eV  <-- do not rely on this value for anything but (periodic) metals
  | Electronic free energy per atom                       :        -694.30481765 eV

  Self-consistency convergence accuracy:
  | Change of charge density      : 0.2916E-01
  | Change of sum of eigenvalues  : 0.3526E+01 eV
  | Change of total energy        : 0.7350E-02 eV

  End self-consistency iteration #     5       :  max(cpu_time)    wall_clock(cpu1)
  | Time for this iteration                    :        0.309 s           0.308 s
  | Charge density update                      :        0.094 s           0.094 s
  | Density mixing                             :        0.004 s           0.003 s
  | Hartree multipole update                   :        0.002 s           0.003 s
  | Hartree multipole summation                :        0.055 s           0.054 s
  | Integration                                :        0.147 s           0.147 s
  | Solution of K.-S. eqns.                    :        0.006 s           0.006 s
  | Total energy evaluation                    :        0.001 s           0.000 s
------------------------------------------------------------

------------------------------------------------------------
          Begin self-consistency iteration #    6

  Date     :  20150727, Time     :  123112.862
------------------------------------------------------------
  Evaluating new KS density.
  Integration grid: deviation in total charge (<rho> - N_e) =   3.552714E-15
  Pulay mixing of updated and previous charge densities.

  Evaluating partitioned Hartree potential by multipole expansion.
  | Analytical far-field extrapolation by fixed multipoles:
  | Hartree multipole sum: apparent total charge =  -0.280288E-05
  Summing up the Hartree potential.
  Time summed over all CPUs for potential: real work        0.431 s, elapsed        0.437 s
  | RMS charge density error from multipole expansion :   0.113191E-01

  Integrating Hamiltonian matrix: batch-based integration.
  Time summed over all CPUs for integration: real work        1.145 s, elapsed        1.172 s

  Updating Kohn-Sham eigenvalues, eigenvectors, occupation numbers, and Fermi level.
  Solving generalized eigenproblem
  Updating Kohn-Sham eigenvalues and eigenfunctions.
  Solving real generalised eigenvalue problem by standard LAPACK (fast)
  Determining occupation numbers for Kohn-Sham eigenstates.
  | Chemical potential (Fermi level) in eV                 : -.42133383E+01
  | Error in electron count due to remaining E_F inaccuracy: 0.00000000E+00
  | Maximum occupation number of highest empty state:  0.00E+00

  Highest occupied state (VBM) at     -5.45429800 eV
  | Occupation number:      2.00000000

  Lowest unoccupied state (CBM) at    -1.51740496 eV
  | Occupation number:      0.00000000

  Overall HOMO-LUMO gap:      3.93689304 eV.

  Total energy components:
  | Sum of eigenvalues            :         -83.12577594 Ha       -2261.96745084 eV
  | XC energy correction          :         -18.63370580 Ha        -507.04893312 eV
  | XC potential correction       :          23.82037005 Ha         648.18524831 eV
  | Free-atom electrostatic energy:         -71.58683353 Ha       -1947.97685224 eV
  | Hartree energy correction     :          -3.56553457 Ha         -97.02313211 eV
  | van der Waals energy corr.    :           0.00000000 Ha           0.00000000 eV
  | Entropy correction            :           0.00000000 Ha           0.00000000 eV
  | ---------------------------
  | Total energy                  :        -153.09147978 Ha       -4165.83112000 eV
  | Total energy, T -> 0          :        -153.09147978 Ha       -4165.83112000 eV  <-- do not rely on this value for anything but (periodic) metals
  | Electronic free energy        :        -153.09147978 Ha       -4165.83112000 eV

  Derived energy quantities:
  | Kinetic energy                :         152.62950155 Ha        4153.26005260 eV
  | Electrostatic energy          :        -287.08727553 Ha       -7812.04223948 eV
  | Energy correction for multipole
  | error in Hartree potential    :          -0.00373052 Ha          -0.10151263 eV
  | Sum of eigenvalues per atom                           :        -376.99457514 eV
  | Total energy (T->0) per atom                          :        -694.30518667 eV  <-- do not rely on this value for anything but (periodic) metals
  | Electronic free energy per atom                       :        -694.30518667 eV

  Self-consistency convergence accuracy:
  | Change of charge density      : 0.7531E-02
  | Change of sum of eigenvalues  : 0.1145E+01 eV
  | Change of total energy        : -.2214E-02 eV

  End self-consistency iteration #     6       :  max(cpu_time)    wall_clock(cpu1)
  | Time for this iteration                    :        0.309 s           0.309 s
  | Charge density update                      :        0.094 s           0.093 s
  | Density mixing                             :        0.004 s           0.005 s
  | Hartree multipole update                   :        0.002 s           0.002 s
  | Hartree multipole summation                :        0.055 s           0.055 s
  | Integration                                :        0.147 s           0.147 s
  | Solution of K.-S. eqns.                    :        0.007 s           0.007 s
  | Total energy evaluation                    :        0.000 s           0.000 s
------------------------------------------------------------

------------------------------------------------------------
          Begin self-consistency iteration #    7

  Date     :  20150727, Time     :  123113.171
------------------------------------------------------------
  Evaluating new KS density.
  Integration grid: deviation in total charge (<rho> - N_e) =   1.065814E-14
  Pulay mixing of updated and previous charge densities.

  Evaluating partitioned Hartree potential by multipole expansion.
  | Analytical far-field extrapolation by fixed multipoles:
  | Hartree multipole sum: apparent total charge =  -0.270287E-05
  Summing up the Hartree potential.
  Time summed over all CPUs for potential: real work        0.431 s, elapsed        0.433 s
  | RMS charge density error from multipole expansion :   0.111828E-01

  Integrating Hamiltonian matrix: batch-based integration.
  Time summed over all CPUs for integration: real work        1.146 s, elapsed        1.171 s

  Updating Kohn-Sham eigenvalues, eigenvectors, occupation numbers, and Fermi level.
  Solving generalized eigenproblem
  Updating Kohn-Sham eigenvalues and eigenfunctions.
  Solving real generalised eigenvalue problem by standard LAPACK (fast)
  Determining occupation numbers for Kohn-Sham eigenstates.
  | Chemical potential (Fermi level) in eV                 : -.42654932E+01
  | Error in electron count due to remaining E_F inaccuracy: 0.00000000E+00
  | Maximum occupation number of highest empty state:  0.00E+00

  Highest occupied state (VBM) at     -5.62735540 eV
  | Occupation number:      2.00000000

  Lowest unoccupied state (CBM) at    -1.53385096 eV
  | Occupation number:      0.00000000

  Overall HOMO-LUMO gap:      4.09350444 eV.

  Total energy components:
  | Sum of eigenvalues            :         -83.20821317 Ha       -2264.21068226 eV
  | XC energy correction          :         -18.62388560 Ha        -506.78171183 eV
  | XC potential correction       :          23.80733825 Ha         647.83063498 eV
  | Free-atom electrostatic energy:         -71.58683353 Ha       -1947.97685224 eV
  | Hartree energy correction     :          -3.47976826 Ha         -94.68931202 eV
  | van der Waals energy corr.    :           0.00000000 Ha           0.00000000 eV
  | Entropy correction            :           0.00000000 Ha           0.00000000 eV
  | ---------------------------
  | Total energy                  :        -153.09136231 Ha       -4165.82792337 eV
  | Total energy, T -> 0          :        -153.09136231 Ha       -4165.82792337 eV  <-- do not rely on this value for anything but (periodic) metals
  | Electronic free energy        :        -153.09136231 Ha       -4165.82792337 eV

  Derived energy quantities:
  | Kinetic energy                :         152.64561996 Ha        4153.69865686 eV
  | Electrostatic energy          :        -287.11309667 Ha       -7812.74486841 eV
  | Energy correction for multipole
  | error in Hartree potential    :          -0.00359223 Ha          -0.09774945 eV
  | Sum of eigenvalues per atom                           :        -377.36844704 eV
  | Total energy (T->0) per atom                          :        -694.30465390 eV  <-- do not rely on this value for anything but (periodic) metals
  | Electronic free energy per atom                       :        -694.30465390 eV

  Self-consistency convergence accuracy:
  | Change of charge density      : 0.1049E-01
  | Change of sum of eigenvalues  : -.2243E+01 eV
  | Change of total energy        : 0.3197E-02 eV

  End self-consistency iteration #     7       :  max(cpu_time)    wall_clock(cpu1)
  | Time for this iteration                    :        0.310 s           0.310 s
  | Charge density update                      :        0.093 s           0.094 s
  | Density mixing                             :        0.005 s           0.005 s
  | Hartree multipole update                   :        0.002 s           0.002 s
  | Hartree multipole summation                :        0.055 s           0.055 s
  | Integration                                :        0.147 s           0.147 s
  | Solution of K.-S. eqns.                    :        0.006 s           0.006 s
  | Total energy evaluation                    :        0.000 s           0.000 s
------------------------------------------------------------

------------------------------------------------------------
          Begin self-consistency iteration #    8

  Date     :  20150727, Time     :  123113.481
------------------------------------------------------------
  Evaluating new KS density.
  Integration grid: deviation in total charge (<rho> - N_e) =   0.000000E+00
  Pulay mixing of updated and previous charge densities.

  Evaluating partitioned Hartree potential by multipole expansion.
  | Analytical far-field extrapolation by fixed multipoles:
  | Hartree multipole sum: apparent total charge =  -0.270050E-05
  Summing up the Hartree potential.
  Time summed over all CPUs for potential: real work        0.431 s, elapsed        0.433 s
  | RMS charge density error from multipole expansion :   0.111918E-01

  Integrating Hamiltonian matrix: batch-based integration.
  Time summed over all CPUs for integration: real work        1.144 s, elapsed        1.170 s

  Updating Kohn-Sham eigenvalues, eigenvectors, occupation numbers, and Fermi level.
  Solving generalized eigenproblem
  Updating Kohn-Sham eigenvalues and eigenfunctions.
  Solving real generalised eigenvalue problem by standard LAPACK (fast)
  Determining occupation numbers for Kohn-Sham eigenstates.
  | Chemical potential (Fermi level) in eV                 : -.42655562E+01
  | Error in electron count due to remaining E_F inaccuracy: 0.00000000E+00
  | Maximum occupation number of highest empty state:  0.00E+00

  Highest occupied state (VBM) at     -5.62206264 eV
  | Occupation number:      2.00000000

  Lowest unoccupied state (CBM) at    -1.53462791 eV
  | Occupation number:      0.00000000

  Overall HOMO-LUMO gap:      4.08743473 eV.

  Total energy components:
  | Sum of eigenvalues            :         -83.20779888 Ha       -2264.19940881 eV
  | XC energy correction          :         -18.62394118 Ha        -506.78322430 eV
  | XC potential correction       :          23.80740292 Ha         647.83239488 eV
  | Free-atom electrostatic energy:         -71.58683353 Ha       -1947.97685224 eV
  | Hartree energy correction     :          -3.48019110 Ha         -94.70081826 eV
  | van der Waals energy corr.    :           0.00000000 Ha           0.00000000 eV
  | Entropy correction            :           0.00000000 Ha           0.00000000 eV
  | ---------------------------
  | Total energy                  :        -153.09136177 Ha       -4165.82790873 eV
  | Total energy, T -> 0          :        -153.09136177 Ha       -4165.82790873 eV  <-- do not rely on this value for anything but (periodic) metals
  | Electronic free energy        :        -153.09136177 Ha       -4165.82790873 eV

  Derived energy quantities:
  | Kinetic energy                :         152.64642696 Ha        4153.72061646 eV
  | Electrostatic energy          :        -287.11384755 Ha       -7812.76530089 eV
  | Energy correction for multipole
  | error in Hartree potential    :          -0.00359664 Ha          -0.09786943 eV
  | Sum of eigenvalues per atom                           :        -377.36656813 eV
  | Total energy (T->0) per atom                          :        -694.30465145 eV  <-- do not rely on this value for anything but (periodic) metals
  | Electronic free energy per atom                       :        -694.30465145 eV

  Self-consistency convergence accuracy:
  | Change of charge density      : 0.9851E-03
  | Change of sum of eigenvalues  : 0.1127E-01 eV
  | Change of total energy        : 0.1465E-04 eV

  End self-consistency iteration #     8       :  max(cpu_time)    wall_clock(cpu1)
  | Time for this iteration                    :        0.309 s           0.309 s
  | Charge density update                      :        0.093 s           0.093 s
  | Density mixing                             :        0.006 s           0.005 s
  | Hartree multipole update                   :        0.002 s           0.003 s
  | Hartree multipole summation                :        0.055 s           0.054 s
  | Integration                                :        0.146 s           0.147 s
  | Solution of K.-S. eqns.                    :        0.007 s           0.007 s
  | Total energy evaluation                    :        0.000 s           0.000 s
------------------------------------------------------------

------------------------------------------------------------
          Begin self-consistency iteration #    9

  Date     :  20150727, Time     :  123113.790
------------------------------------------------------------
  Evaluating new KS density.
  Integration grid: deviation in total charge (<rho> - N_e) =  -3.552714E-15
  Pulay mixing of updated and previous charge densities.

  Evaluating partitioned Hartree potential by multipole expansion.
  | Analytical far-field extrapolation by fixed multipoles:
  | Hartree multipole sum: apparent total charge =  -0.269416E-05
  Summing up the Hartree potential.
  Time summed over all CPUs for potential: real work        0.431 s, elapsed        0.433 s
  | RMS charge density error from multipole expansion :   0.111972E-01

  Integrating Hamiltonian matrix: batch-based integration.
  Time summed over all CPUs for integration: real work        1.145 s, elapsed        1.171 s

  Updating Kohn-Sham eigenvalues, eigenvectors, occupation numbers, and Fermi level.
  Solving generalized eigenproblem
  Updating Kohn-Sham eigenvalues and eigenfunctions.
  Solving real generalised eigenvalue problem by standard LAPACK (fast)
  Determining occupation numbers for Kohn-Sham eigenstates.
  | Chemical potential (Fermi level) in eV                 : -.42662780E+01
  | Error in electron count due to remaining E_F inaccuracy: 0.00000000E+00
  | Maximum occupation number of highest empty state:  0.00E+00

  Highest occupied state (VBM) at     -5.62698542 eV
  | Occupation number:      2.00000000

  Lowest unoccupied state (CBM) at    -1.53514793 eV
  | Occupation number:      0.00000000

  Overall HOMO-LUMO gap:      4.09183748 eV.

  Total energy components:
  | Sum of eigenvalues            :         -83.20909800 Ha       -2264.23475959 eV
  | XC energy correction          :         -18.62378132 Ha        -506.77887435 eV
  | XC potential correction       :          23.80717729 Ha         647.82625511 eV
  | Free-atom electrostatic energy:         -71.58683353 Ha       -1947.97685224 eV
  | Hartree energy correction     :          -3.47882560 Ha         -94.66366097 eV
  | van der Waals energy corr.    :           0.00000000 Ha           0.00000000 eV
  | Entropy correction            :           0.00000000 Ha           0.00000000 eV
  | ---------------------------
  | Total energy                  :        -153.09136116 Ha       -4165.82789205 eV
  | Total energy, T -> 0          :        -153.09136116 Ha       -4165.82789205 eV  <-- do not rely on this value for anything but (periodic) metals
  | Electronic free energy        :        -153.09136116 Ha       -4165.82789205 eV

  Derived energy quantities:
  | Kinetic energy                :         152.64954200 Ha        4153.80538118 eV
  | Electrostatic energy          :        -287.11712184 Ha       -7812.85439888 eV
  | Energy correction for multipole
  | error in Hartree potential    :          -0.00359430 Ha          -0.09780580 eV
  | Sum of eigenvalues per atom                           :        -377.37245993 eV
  | Total energy (T->0) per atom                          :        -694.30464867 eV  <-- do not rely on this value for anything but (periodic) metals
  | Electronic free energy per atom                       :        -694.30464867 eV

  Self-consistency convergence accuracy:
  | Change of charge density      : 0.7365E-03
  | Change of sum of eigenvalues  : -.3535E-01 eV
  | Change of total energy        : 0.1668E-04 eV

  End self-consistency iteration #     9       :  max(cpu_time)    wall_clock(cpu1)
  | Time for this iteration                    :        0.311 s           0.310 s
  | Charge density update                      :        0.094 s           0.094 s
  | Density mixing                             :        0.006 s           0.006 s
  | Hartree multipole update                   :        0.002 s           0.002 s
  | Hartree multipole summation                :        0.055 s           0.055 s
  | Integration                                :        0.147 s           0.146 s
  | Solution of K.-S. eqns.                    :        0.007 s           0.006 s
  | Total energy evaluation                    :        0.000 s           0.000 s
------------------------------------------------------------

------------------------------------------------------------
          Begin self-consistency iteration #   10

  Date     :  20150727, Time     :  123114.101
------------------------------------------------------------
  Evaluating new KS density.
  Integration grid: deviation in total charge (<rho> - N_e) =   7.105427E-15
  Pulay mixing of updated and previous charge densities.

  Evaluating partitioned Hartree potential by multipole expansion.
  | Analytical far-field extrapolation by fixed multipoles:
  | Hartree multipole sum: apparent total charge =  -0.269310E-05
  Summing up the Hartree potential.
  Time summed over all CPUs for potential: real work        0.431 s, elapsed        0.433 s
  | RMS charge density error from multipole expansion :   0.111991E-01

  Integrating Hamiltonian matrix: batch-based integration.
  Time summed over all CPUs for integration: real work        1.140 s, elapsed        1.166 s

  Updating Kohn-Sham eigenvalues, eigenvectors, occupation numbers, and Fermi level.
  Solving generalized eigenproblem
  Updating Kohn-Sham eigenvalues and eigenfunctions.
  Solving real generalised eigenvalue problem by standard LAPACK (fast)
  Determining occupation numbers for Kohn-Sham eigenstates.
  | Chemical potential (Fermi level) in eV                 : -.42665216E+01
  | Error in electron count due to remaining E_F inaccuracy: 0.00000000E+00
  | Maximum occupation number of highest empty state:  0.00E+00

  Highest occupied state (VBM) at     -5.62774124 eV
  | Occupation number:      2.00000000

  Lowest unoccupied state (CBM) at    -1.53524454 eV
  | Occupation number:      0.00000000

  Overall HOMO-LUMO gap:      4.09249669 eV.

  Total energy components:
  | Sum of eigenvalues            :         -83.20954523 Ha       -2264.24692927 eV
  | XC energy correction          :         -18.62372157 Ha        -506.77724850 eV
  | XC potential correction       :          23.80709589 Ha         647.82404023 eV
  | Free-atom electrostatic energy:         -71.58683353 Ha       -1947.97685224 eV
  | Hartree energy correction     :          -3.47835659 Ha         -94.65089852 eV
  | van der Waals energy corr.    :           0.00000000 Ha           0.00000000 eV
  | Entropy correction            :           0.00000000 Ha           0.00000000 eV
  | ---------------------------
  | Total energy                  :        -153.09136102 Ha       -4165.82788830 eV
  | Total energy, T -> 0          :        -153.09136102 Ha       -4165.82788830 eV  <-- do not rely on this value for anything but (periodic) metals
  | Electronic free energy        :        -153.09136102 Ha       -4165.82788830 eV

  Derived energy quantities:
  | Kinetic energy                :         152.64968095 Ha        4153.80916207 eV
  | Electrostatic energy          :        -287.11732040 Ha       -7812.85980188 eV
  | Energy correction for multipole
  | error in Hartree potential    :          -0.00359571 Ha          -0.09784438 eV
  | Sum of eigenvalues per atom                           :        -377.37448821 eV
  | Total energy (T->0) per atom                          :        -694.30464805 eV  <-- do not rely on this value for anything but (periodic) metals
  | Electronic free energy per atom                       :        -694.30464805 eV

  Self-consistency convergence accuracy:
  | Change of charge density      : 0.1725E-03
  | Change of sum of eigenvalues  : -.1217E-01 eV
  | Change of total energy        : 0.3747E-05 eV

  End self-consistency iteration #    10       :  max(cpu_time)    wall_clock(cpu1)
  | Time for this iteration                    :        0.310 s           0.310 s
  | Charge density update                      :        0.093 s           0.093 s
  | Density mixing                             :        0.006 s           0.007 s
  | Hartree multipole update                   :        0.002 s           0.002 s
  | Hartree multipole summation                :        0.055 s           0.055 s
  | Integration                                :        0.146 s           0.146 s
  | Solution of K.-S. eqns.                    :        0.007 s           0.006 s
  | Total energy evaluation                    :        0.000 s           0.000 s
------------------------------------------------------------

------------------------------------------------------------
          Begin self-consistency iteration #   11

  Date     :  20150727, Time     :  123114.411
------------------------------------------------------------
  Evaluating new KS density.
  Integration grid: deviation in total charge (<rho> - N_e) =   3.552714E-15
  Pulay mixing of updated and previous charge densities.

  Evaluating partitioned Hartree potential by multipole expansion.
  | Analytical far-field extrapolation by fixed multipoles:
  | Hartree multipole sum: apparent total charge =  -0.269316E-05
  Summing up the Hartree potential.
  Time summed over all CPUs for potential: real work        0.431 s, elapsed        0.433 s
  | RMS charge density error from multipole expansion :   0.111986E-01

  Integrating Hamiltonian matrix: batch-based integration.
  Time summed over all CPUs for integration: real work        1.141 s, elapsed        1.164 s

  Updating Kohn-Sham eigenvalues, eigenvectors, occupation numbers, and Fermi level.
  Solving generalized eigenproblem
  Updating Kohn-Sham eigenvalues and eigenfunctions.
  Solving real generalised eigenvalue problem by standard LAPACK (fast)
  Determining occupation numbers for Kohn-Sham eigenstates.
  | Chemical potential (Fermi level) in eV                 : -.42665065E+01
  | Error in electron count due to remaining E_F inaccuracy: 0.00000000E+00
  | Maximum occupation number of highest empty state:  0.00E+00

  Highest occupied state (VBM) at     -5.62763802 eV
  | Occupation number:      2.00000000

  Lowest unoccupied state (CBM) at    -1.53525023 eV
  | Occupation number:      0.00000000

  Overall HOMO-LUMO gap:      4.09238779 eV.

[...]
      6       2.00000          -0.450390          -12.25573
      7       2.00000          -0.365217           -9.93806
      8       2.00000          -0.331189           -9.01210
      9       2.00000          -0.262095           -7.13198
     10       2.00000          -0.206814           -5.62770
     11       0.00000          -0.056419           -1.53523
     12       0.00000           0.005848            0.15914
     13       0.00000           0.013040            0.35484
     14       0.00000           0.080299            2.18505
     15       0.00000           0.120158            3.26967
     16       0.00000           0.136728            3.72056
     17       0.00000           0.148177            4.03210
     18       0.00000           0.162899            4.43271
     19       0.00000           0.195000            5.30622
     20       0.00000           0.219836            5.98205
     21       0.00000           0.227968            6.20332
     22       0.00000           0.253881            6.90844
     23       0.00000           0.286749            7.80284
     24       0.00000           0.320873            8.73141
     25       0.00000           0.390157           10.61672
     26       0.00000           0.399489           10.87066
     27       0.00000           0.408276           11.10974
     28       0.00000           0.450407           12.25619
     29       0.00000           0.468175           12.73969
     30       0.00000           0.516385           14.05156
     31       0.00000           0.559249           15.21795
     32       0.00000           0.580319           15.79129
     33       0.00000           0.639896           17.41246
     34       0.00000           0.714269           19.43624

  Highest occupied state (VBM) at     -5.62770190 eV
  | Occupation number:      2.00000000

  Lowest unoccupied state (CBM) at    -1.53523019 eV
  | Occupation number:      0.00000000

  Overall HOMO-LUMO gap:      4.09247171 eV.

  Self-consistency cycle converged.

  End self-consistency iteration #    13       :  max(cpu_time)    wall_clock(cpu1)
  | Time for this iteration                    :        0.762 s           0.763 s
  | Charge density & force component update    :        0.456 s           0.457 s
  | Density mixing                             :        0.007 s           0.007 s
  | Hartree multipole update                   :        0.003 s           0.002 s
  | Hartree multipole summation                :        0.142 s           0.143 s
  | Integration                                :        0.146 s           0.146 s
  | Solution of K.-S. eqns.                    :        0.006 s           0.007 s
  | Total energy evaluation                    :        0.000 s           0.000 s
------------------------------------------------------------
  Obtaining max. number of non-zero basis functions in each batch .
  Evaluating KS electron density on previously omitted grid points.
  Evaluating non-empirical van der Waals correction (Tkatchenko/Scheffler 2009).
  Performing Hirshfeld analysis of fragment charges and moments.
  ----------------------------------------------------------------------
  | Atom     1: O
  |   Hirshfeld charge        :     -0.37020346
  |   Free atom volume        :     23.95238533
  |   Hirshfeld volume        :     24.17002669
  |   Hirshfeld dipole vector :      0.02372095       0.06234224      -0.01630045
  |   Hirshfeld dipole moment :      0.06866544
  |   Hirshfeld second moments:      0.02046718      -0.01747825       0.02636542
  |                                 -0.01747825      -0.06205253      -0.02193595
  |                                  0.02636542      -0.02193595      -0.10804178
  ----------------------------------------------------------------------
  | Atom     2: H
  |   Hirshfeld charge        :      0.07002893
  |   Free atom volume        :     10.44207651
  |   Hirshfeld volume        :      8.23691937
  |   Hirshfeld dipole vector :     -0.02276535       0.03848254      -0.01823401
  |   Hirshfeld dipole moment :      0.04828712
  |   Hirshfeld second moments:      0.07759492       0.03123873      -0.00040468
  |                                  0.03123873       0.03132464       0.01596122
  |                                 -0.00040468       0.01596122       0.06101867
  ----------------------------------------------------------------------
  | Atom     3: H
  |   Hirshfeld charge        :      0.10248628
  |   Free atom volume        :     10.44207651
  |   Hirshfeld volume        :      7.34177385
  |   Hirshfeld dipole vector :      0.11967802       0.02988877       0.00778623
  |   Hirshfeld dipole moment :      0.12359932
  |   Hirshfeld second moments:      0.09496666      -0.01162737       0.00744584
  |                                 -0.01162737       0.09190416      -0.00945516
  |                                  0.00744584      -0.00945516       0.07126113
  ----------------------------------------------------------------------
  | Atom     4: O
  |   Hirshfeld charge        :     -0.17017517
  |   Free atom volume        :     23.95238533
  |   Hirshfeld volume        :     19.71661244
  |   Hirshfeld dipole vector :      0.02725791      -0.00668720      -0.01559866
  |   Hirshfeld dipole moment :      0.03210967
  |   Hirshfeld second moments:      0.05481194       0.01963059       0.02863360
  |                                  0.01963059       0.09960971       0.01358407
  |                                  0.02863360       0.01358407       0.11524514
  ----------------------------------------------------------------------
  | Atom     5: H
  |   Hirshfeld charge        :      0.18849931
  |   Free atom volume        :     10.44207651
  |   Hirshfeld volume        :      5.49170183
  |   Hirshfeld dipole vector :      0.05947780       0.09526015       0.04763144
  |   Hirshfeld dipole moment :      0.12198713
  |   Hirshfeld second moments:      0.12669100      -0.00118067       0.00353622
  |                                 -0.00118067       0.13120005      -0.00138341
  |                                  0.00353622      -0.00138341       0.15277480
  ----------------------------------------------------------------------
  | Atom     6: H
  |   Hirshfeld charge        :      0.17938776
  |   Free atom volume        :     10.44207651
  |   Hirshfeld volume        :      5.45743576
  |   Hirshfeld dipole vector :     -0.01899718       0.00982068      -0.12091648
  |   Hirshfeld dipole moment :      0.12279305
  |   Hirshfeld second moments:      0.13216628       0.01049727       0.00768480
  |                                  0.01049727       0.14643890       0.00520637
  |                                  0.00768480       0.00520637       0.13320632
  ----------------------------------------------------------------------


  Total energy components:
  | Sum of eigenvalues            :         -83.20950435 Ha       -2264.24581697 eV
  | XC energy correction          :         -18.62372700 Ha        -506.77739622 eV
  | XC potential correction       :          23.80710295 Ha         647.82423226 eV
  | Free-atom electrostatic energy:         -71.58683353 Ha       -1947.97685224 eV
  | Hartree energy correction     :          -3.47839907 Ha         -94.65205452 eV
  | van der Waals energy corr.    :          -0.00033097 Ha          -0.00900603 eV
  | Entropy correction            :           0.00000000 Ha           0.00000000 eV
  | ---------------------------
  | Total energy                  :        -153.09169196 Ha       -4165.83689372 eV
  | Total energy, T -> 0          :        -153.09169196 Ha       -4165.83689372 eV  <-- do not rely on this value for anything but (periodic) metals
  | Electronic free energy        :        -153.09169196 Ha       -4165.83689372 eV

  Derived energy quantities:
  | Kinetic energy                :         152.64975094 Ha        4153.81106658 eV
  | Electrostatic energy          :        -287.11738493 Ha       -7812.86155805 eV
  | Energy correction for multipole
  | error in Hartree potential    :          -0.00359592 Ha          -0.09785010 eV
  | Sum of eigenvalues per atom                           :        -377.37430283 eV
  | Total energy (T->0) per atom                          :        -694.30614895 eV  <-- do not rely on this value for anything but (periodic) metals
  | Electronic free energy per atom                       :        -694.30614895 eV

  atomic forces [eV/Ang]:
  -----------------------
  atom #    1
   Hellmann-Feynman + Multipole  : -.706474E+01 -.112313E+02 0.296916E+01
   Pulay + GGA                   : 0.780488E+01 0.138266E+02 -.378893E+01
   Van der Waals               : 0.116665E-02 -.301910E-02 0.717842E-03
   ----------------------------------------------------------------
   Total forces(   1)            : 0.741306E+00 0.259229E+01 -.819058E+00
  atom #    2
   Hellmann-Feynman + Multipole  : 0.180998E+01 -.294312E+01 0.125238E+01
   Pulay + GGA                   : -.403562E-02 0.627160E-01 -.285913E-01
   Van der Waals               : 0.166407E-03 -.561707E-03 0.249580E-03
   ----------------------------------------------------------------
   Total forces(   2)            : 0.180611E+01 -.288097E+01 0.122403E+01
  atom #    3
   Hellmann-Feynman + Multipole  : -.219187E+01 -.553460E+00 -.147487E+00
   Pulay + GGA                   : 0.125558E+00 0.640190E-01 0.861546E-02
   Van der Waals               : 0.504297E-03 0.313037E-03 0.141951E-04
   ----------------------------------------------------------------
   Total forces(   3)            : -.206580E+01 -.489128E+00 -.138857E+00
  atom #    4
   Hellmann-Feynman + Multipole  : -.634251E+01 -.887671E+01 0.924567E+01
   Pulay + GGA                   : 0.659856E+01 0.982210E+01 -.665359E+01
   Van der Waals               : -.297411E-02 0.309272E-02 -.132013E-02
   ----------------------------------------------------------------
   Total forces(   4)            : 0.253077E+00 0.948481E+00 0.259076E+01
  atom #    5
   Hellmann-Feynman + Multipole  : -.491150E+00 -.730597E+00 -.440376E+00
   Pulay + GGA                   : 0.578108E-01 0.118436E+00 0.348418E-01
   Van der Waals               : 0.544890E-03 0.618853E-03 0.598744E-04
   ----------------------------------------------------------------
   Total forces(   5)            : -.432795E+00 -.611542E+00 -.405475E+00
  atom #    6
   Hellmann-Feynman + Multipole  : -.262993E+00 0.402250E+00 -.232230E+01
   Pulay + GGA                   : -.341876E-01 0.396732E-01 -.127811E+00
   Van der Waals               : 0.591861E-03 -.443806E-03 0.278635E-03
   ----------------------------------------------------------------
   Total forces(   6)            : -.296589E+00 0.441480E+00 -.244983E+01
  Timings for vdw_correction_hirshfeld (Tkatchenko-Scheffler 2009):
  | CPU time:        0.762 s, Wall clock time:        0.763 s.
  Removing unitary transformations (pure translations, rotations) from forces on atoms.
  Atomic forces before filtering:
  | Net force on center of mass :  0.530370E-02 0.606610E-03 0.157178E-02 eV/A
  | Net torque on center of mass:  0.348318E-02 -.502963E-02 -.295238E-04 eV
  Atomic forces after filtering:
  | Net force on center of mass :  0.490617E-15 0.892031E-16 -.356812E-15 eV/A
  | Net torque on center of mass:  0.141613E-15 -.802472E-15 -.660859E-15 eV
 
  Energy and forces in a compact form:
  | Total energy uncorrected      :         -0.416583689372468E+04 eV
  | Total energy corrected        :         -0.416583689372468E+04 eV  <-- do not rely on this value for anything but (periodic) metals
  | Electronic free energy        :         -0.416583689372468E+04 eV
  Total atomic forces (unitary forces cleaned) [eV/Ang]:
  |   1          0.740442688149230E+00          0.259266370510962E+01         -0.818108981060340E+00
  |   2          0.180514979185744E+01         -0.288077362136039E+01          0.122468495795723E+01
  |   3         -0.206631015179946E+01         -0.489574654291900E+00         -0.140713421694331E+00
  |   4          0.252240104299993E+00          0.948645696303327E+00          0.259110395787691E+01
  |   5         -0.432050876687361E+00         -0.611207137819190E+00         -0.407577235961851E+00
  |   6         -0.299471555819847E+00          0.440246012058526E+00         -0.244938927711762E+01
 
  ------------------------------------ 
  Start decomposition of the XC Energy 
  ------------------------------------ 
  Hartree-Fock part   :          0.000000000 Ha              0.000000000 eV
  ------------------------------------ 
  X Energy            :        -17.969898247 Ha           -488.985810629 eV
  C Energy GGA        :         -0.653828753 Ha            -17.791585592 eV
  Total XC Energy     :        -18.623727000 Ha           -506.777396221 eV
  LDA X and C from self-consistent density 
  X Energy LDA        :        -16.192352568 Ha           -440.616331677 eV
  C Energy LDA        :         -1.318884498 Ha            -35.888673188 eV
  ------------------------------------ 
  End decomposition of the XC Energy 
  ------------------------------------ 
  Performing Hirshfeld analysis of fragment charges and moments.
  ----------------------------------------------------------------------
  | Atom     1: O
  |   Hirshfeld charge        :     -0.37020346
  |   Free atom volume        :     23.95238533
  |   Hirshfeld volume        :     24.17002669
  |   Hirshfeld dipole vector :      0.02372095       0.06234224      -0.01630045
  |   Hirshfeld dipole moment :      0.06866544
  |   Hirshfeld second moments:      0.02046718      -0.01747825       0.02636542
  |                                 -0.01747825      -0.06205253      -0.02193595
  |                                  0.02636542      -0.02193595      -0.10804178
  ----------------------------------------------------------------------
  | Atom     2: H
  |   Hirshfeld charge        :      0.07002893
  |   Free atom volume        :     10.44207651
  |   Hirshfeld volume        :      8.23691937
  |   Hirshfeld dipole vector :     -0.02276535       0.03848254      -0.01823401
  |   Hirshfeld dipole moment :      0.04828712
  |   Hirshfeld second moments:      0.07759492       0.03123873      -0.00040468
  |                                  0.03123873       0.03132464       0.01596122
  |                                 -0.00040468       0.01596122       0.06101867
  ----------------------------------------------------------------------
  | Atom     3: H
  |   Hirshfeld charge        :      0.10248628
  |   Free atom volume        :     10.44207651
  |   Hirshfeld volume        :      7.34177385
  |   Hirshfeld dipole vector :      0.11967802       0.02988877       0.00778623
  |   Hirshfeld dipole moment :      0.12359932
  |   Hirshfeld second moments:      0.09496666      -0.01162737       0.00744584
  |                                 -0.01162737       0.09190416      -0.00945516
  |                                  0.00744584      -0.00945516       0.07126113
  ----------------------------------------------------------------------
  | Atom     4: O
  |   Hirshfeld charge        :     -0.17017517
  |   Free atom volume        :     23.95238533
  |   Hirshfeld volume        :     19.71661244
  |   Hirshfeld dipole vector :      0.02725791      -0.00668720      -0.01559866
  |   Hirshfeld dipole moment :      0.03210967
  |   Hirshfeld second moments:      0.05481194       0.01963059       0.02863360
  |                                  0.01963059       0.09960971       0.01358407
  |                                  0.02863360       0.01358407       0.11524514
  ----------------------------------------------------------------------
  | Atom     5: H
  |   Hirshfeld charge        :      0.18849931
  |   Free atom volume        :     10.44207651
  |   Hirshfeld volume        :      5.49170183
  |   Hirshfeld dipole vector :      0.05947780       0.09526015       0.04763144
  |   Hirshfeld dipole moment :      0.12198713
  |   Hirshfeld second moments:      0.12669100      -0.00118067       0.00353622
  |                                 -0.00118067       0.13120005      -0.00138341
  |                                  0.00353622      -0.00138341       0.15277480
  ----------------------------------------------------------------------
  | Atom     6: H
  |   Hirshfeld charge        :      0.17938776
  |   Free atom volume        :     10.44207651
  |   Hirshfeld volume        :      5.45743576
  |   Hirshfeld dipole vector :     -0.01899718       0.00982068      -0.12091648
  |   Hirshfeld dipole moment :      0.12279305
  |   Hirshfeld second moments:      0.13216628       0.01049727       0.00768480
  |                                  0.01049727       0.14643890       0.00520637
  |                                  0.00768480       0.00520637       0.13320632
  ----------------------------------------------------------------------


------------------------------------------------------------------------------
  Final output of selected total energy values:

  The following output summarizes some interesting total energy values
  at the end of a run (AFTER all relaxation, molecular dynamics, etc.).

  | Total energy of the DFT / Hartree-Fock s.c.f. calculation      :          -4165.836893725 eV
  | Final zero-broadening corrected energy (caution - metals only) :          -4165.836893725 eV
  | For reference only, the value of 1 Hartree used in FHI-aims is :             27.211384500 eV

  Before relying on these values, please be sure to understand exactly which
  total energy value is referred to by a given number. Different objects may
  all carry the same name 'total energy'. Definitions:

  Total energy of the DFT / Hartree-Fock s.c.f. calculation:
  | Note that this energy does not include ANY quantities calculated after the
  | s.c.f. cycle, in particular not ANY RPA, MP2, etc. many-body perturbation terms.

  Final zero-broadening corrected energy:
  | For metallic systems only, a broadening of the occupation numbers at the Fermi
  | level can be extrapolated back to zero broadening by an electron-gas inspired
  | formula. For all systems that are not real metals, this value can be
  | meaningless and should be avoided.

------------------------------------------------------------------------------

------------------------------------------------------------
          Leaving FHI-aims.
          Date     :  20150727, Time     :  123115.917

          Computational steps:
          | Number of self-consistency cycles          :           13

          Detailed time accounting                     :  max(cpu_time)    wall_clock(cpu1)
          | Total time                                 :        5.432 s           5.486 s
          | Preparation time                           :        0.171 s           0.448 s
          | Grid partitioning                          :        0.053 s           0.053 s
          | Preloading free-atom quantities on grid    :        0.013 s           0.013 s
          | Free-atom superposition energy             :        0.016 s           0.016 s
          | Total time for integrations                :        2.132 s           2.132 s
          | Total time for solution of K.-S. equations :        0.113 s           0.111 s
          | Total time for density & force components  :        1.579 s           1.579 s
          | Total time for mixing                      :        0.062 s           0.061 s
          | Total time for Hartree multipole update    :        0.028 s           0.031 s
          | Total time for Hartree multipole sum       :        0.890 s           0.889 s
          | Total time for total energy evaluation     :        0.003 s           0.004 s
          | Total time for scaled ZORA corrections     :        0.000 s           0.000 s
          | Total time for TS (2009) vdW correction    :        0.011 s           0.010 s

          Have a nice day.
------------------------------------------------------------
