  MPI-parallelism will be employed.
------------------------------------------------------------
          Invoking FHI-aims ...
          Version 081213
          Compiled on 2013/08/29 at 17:41:06 on host generoso.

          When using FHI-aims, please cite the following reference:

          Volker Blum, Ralf Gehrke, Felix Hanke, Paula Havu,
          Ville Havu, Xinguo Ren, Karsten Reuter, and Matthias Scheffler,
          'Ab Initio Molecular Simulations with Numeric Atom-Centered Orbitals: FHI-aims',
          Computer Physics Communications 180, 2175-2196 (2009)

          For any questions about FHI-aims, please visit the aimsclub website
          with its forums and wiki. Contributions to both the forums and the
          wiki are warmly encouraged - they are for you, and everyone is welcome there.

------------------------------------------------------------

  Date     :  20150727, Time     :  123003.198
  Time zero on CPU 1             :   0.399930000000000E-01  s.
  Internal wall clock time zero  :           207232203.198  s.

  Using        8 parallel tasks.
  Task        0 on host gen60 reporting.
  Task        1 on host gen60 reporting.
  Task        2 on host gen60 reporting.
  Task        3 on host gen60 reporting.
  Task        4 on host gen60 reporting.
  Task        5 on host gen60 reporting.
  Task        6 on host gen60 reporting.
  Task        7 on host gen60 reporting.

  Performing system and environment tests:
  | Environment variable OMP_NUM_THREADS correctly set to 1.
  | Checking for scalapack...
  | No scalapack compiled in.

  Obtaining array dimensions for all initial allocations:
  
  -----------------------------------------------------------------------
  Parsing control.in (first pass over file, find array dimensions only).
  The contents of control.in will be repeated verbatim below
  unless switched off by setting 'verbatim_writeout .false.' .
  in the first line of control.in .
  -----------------------------------------------------------------------
  
  #########################################################################################
  #
  #  Volker Blum, FHI 2008 : Test run input file control.in
  #
  #########################################################################################
  #
  #  Physical model
  #
    xc                 rpbe
    spin               none
    relativistic       atomic_zora scalar
    charge             0.
   vdw_correction_hirshfeld
  #
  #  SCF convergence
  #
    occupation_type    gaussian 0.01
    mixer              pulay
      n_max_pulay        10
      charge_mix_param   0.1
    sc_accuracy_rho    5E-5
    sc_accuracy_eev    5E-3
    sc_accuracy_etot   5E-6
    sc_iter_limit      3000
  #
  #  Eigenvalue solver
  #
    KS_method          lapack
      empty_states       8
      basis_threshold    0.e-5
  #
  #  Efficiency
  #
  #   all previous settings are now default, except stratmann still
  #   undecided. Continue to handle stratmann with care, if at all.
  #
  #  partition_type stratmann
    partition_type rho_r2
  #  hartree_partition_type stratmann
  #
  #  Oprions for large clusters (100's of atoms: memory saving / better scaling)
  #
  # for periodic systems:
  #
    density_update_method orbital
    packed_matrix_format none
  #  k_grid 6 6 6
  #  output k_eigenvalue 1
  #  distributed_spline_storage .true.
  #
  #  Relaxation
  #
  #  relax_geometry   bfgs 5.e-3
    sc_accuracy_forces 5.E-4
    final_forces_cleaned .true.
  #
  #  Output options
  #
  #  output mulliken
    output Hirshfeld
  #  output dipole
  
  #harmonic_length_scale 0.001
  
  ################################################################################
  #
  #  FHI-aims code project
  #  VB, Fritz-Haber Institut, 2007
  #
  #  Suggested "safe" defaults for H atom (to be pasted into control.in file)
  #  Basis constructed for a non-relativistic H2 molecule using the
  #  PW-LDA functional.
  #
  ################################################################################
    species        H
  #     global species definitions
      nucleus             1
      cut_pot             4.0  2.0  1.0
      cut_free_atom       finite 8.0
      logarithmic         0.00010000 100.00  1.0123
      basis_dep_cutoff    1d-4  # 1d-4 is safe default - please check 5d-4 if you wish!
      radial_base         24 7.0
      radial_multiplier   2
      angular_grids       specified
        division   0.2783  110
        division   0.3822  194
        division   0.5626  302
  #      division   0.5922  434
  #      division   0.6227  590
  #      division   0.7206  770
        outer_grid  302
      l_hartree           4
  ################################################################################
  #
  #  Definition of "minimal" basis
  #
  ################################################################################
  #     valence basis states
      valence      1  s   1.
  #     ion occupancy
      ion_occ      1  s   0.5
  ################################################################################
  #
  #  Suggested additional basis functions. For production calculations,
  #  uncomment them one after another (the most important basis functions are
  #  listed first).
  #
  ################################################################################
  #  "First tier" - improvements: -1014.90 meV to -62.69 meV
       hydro 2 s 2.1
       hydro 2 p 3.5
  #  "Second tier" - improvements: -12.89 meV to -1.83 meV
       hydro 1 s 0.85
       hydro 2 p 3.7
       hydro 2 s 1.2
       hydro 3 d 7
  #  "Third tier" - improvements: -0.25 meV to -0.12 meV
  #     hydro 4 f 11.2
  #     hydro 3 p 4.8
  #     hydro 4 d 9
  #     hydro 3 s 3.2
  
  ################################################################################
  #
  #  FHI-aims code project
  #  VB, Fritz-Haber Institut, 2007
  #
  #  Suggested "safe" defaults for O atom (to be pasted into control.in file)
  #  All values have been tested for a non-relativistic, non-spinpolarized O2
  #  molecule using the PW-LDA functional. Validity for PBE is expected.
  #
  #  Constructed for dimers: 1.0 A, 1.208 A, 1.5 A, 2.0 A, 3.0 A
  #
  ################################################################################
    species        O
  #     global species definitions
      nucleus             8
      mass                15.9994
      l_hartree           4
      cut_pot             4.0  2.0  1.0
      cut_free_atom       finite 8.0
      basis_dep_cutoff    1d-4  # 1d-4 is safe default - please check 5d-4 if you wish!
      logarithmic         0.00010000 100.00  1.0123
      radial_base         36 7.0
      radial_multiplier   2
       angular_grids specified
        division   0.4087  110
        division   0.5181  194
        division   0.6184  302
  #      division   0.7315  434
  #      division   0.7934  590
  #      division   0.9656  770
  #      division   1.4041  974
  #      outer_grid 974
        outer_grid 302
  ################################################################################
  #
  #  Definition of "minimal" basis
  #
  ################################################################################
  #     valence basis states
      valence      2  s   2.
      valence      2  p   4.
  #     ion occupancy
      ion_occ      2  s   1.
      ion_occ      2  p   3.
  ################################################################################
  #
  #  Suggested additional basis functions. For production calculations,
  #  uncomment them one after another (the most important basis functions are
  #  listed first).
  #
  ################################################################################
  #  "First tier" - improvements: -699.05 meV to -159.38 meV
       hydro 2 p 1.8
       hydro 3 d 7.6
       hydro 3 s 6.4
  #  "Second tier" - improvements: -49.91 meV to -5.39 meV
       hydro 4 f 11.6
       hydro 3 p 6.2
       hydro 3 d 5.6
       hydro 5 g 17.6
       hydro 1 s 0.75
  #  "Third tier" - improvements: -2.83 meV to -0.50 meV
  #     ionic 2 p auto
  #     hydro 4 f 10.8
  #     hydro 4 d 4.7
  #     hydro 2 s 6.8
  #  "Fourth tier" - improvements: -0.40 meV to -0.12 meV
  #     hydro 3 p 5
  #     hydro 3 s 3.3
  #     hydro 5 g 15.6
  #     hydro 4 f 17.6
  #     hydro 4 d 14
  # Further basis functions - -0.08 meV and below
  #     hydro 3 s 2.1
  #     hydro 4 d 11.6
  #     hydro 3 p 16
  #     hydro 2 s 17.2
  
  
  -----------------------------------------------------------------------
  Completed first pass over input file control.in .
  -----------------------------------------------------------------------
  
  
  -----------------------------------------------------------------------
  Parsing geometry.in (first pass over file, find array dimensions only).
  The contents of geometry.in will be repeated verbatim below
  unless switched off by setting 'verbatim_writeout .false.' .
  in the first line of geometry.in .
  -----------------------------------------------------------------------
  
  atom      -4.053030000      0.065001000     -1.525160000  O
  atom      -4.566710000      0.974813000     -1.912820000  H
  atom      -3.067820000      0.330172000     -1.477310000  H
  atom      -5.293160000      2.192130000     -2.328800000  O
  atom      -4.829300000      2.988660000     -1.973850000  H
  atom      -5.428570000      2.328640000     -3.235170000  H
  atom      -1.975360000      2.858040000      0.453140000  O
  atom      -1.223550000      3.375850000      0.786238000  H
  atom      -2.537520000      2.567960000      1.156120000  H
  
  -----------------------------------------------------------------------
  Completed first pass over input file geometry.in .
  -----------------------------------------------------------------------
  
 
  Basic array size parameters: 
  | Number of species                 :        2
  | Number of atoms                   :        9
  | Max. basis fn. angular momentum   :        4
  | Max. atomic/ionic basis occupied n:        2
  | Max. number of basis fn. types    :        2
  | Max. radial fns per species/type  :        8
  | Max. logarithmic grid size        :     1301
  | Max. radial integration grid size :       73
  | Max. angular integration grid size:      302
  | Max. angular grid division number :        8
  | Radial grid for Hartree potential :     1301
  | Number of spin channels           :        1

------------------------------------------------------------
          Reading file control.in.
------------------------------------------------------------
  XC: Using RPBE gradient-corrected functionals.
  Spin treatment: No spin polarisation.
  Scalar relativistic treatment of kinetic energy: on-site free-atom approximation to ZORA.
  Charge =   0.000000E+00: Neutral system requested explicitly.
  Using non-empirical van der Waals correction (Hirshfeld partitioning):
  Occupation type: Gaussian broadening, width =   0.100000E-01 eV.
  Using pulay charge density mixing.
  Pulay mixing - number of memorized iterations:   10
  Charge density mixing - mixing parameter:     0.1000
  Convergence accuracy of self-consistent charge density: 0.5000E-04
  Convergence accuracy of sum of eigenvalues: 0.5000E-02
  Convergence accuracy of total energy: 0.5000E-05
  Maximum number of s.-c. iterations  :  3000
  Kohn-Sham eigenvalues and eigenfunctions calculated by lapack diagonalisation (D&C).
  Number of empty states per atom:        8
  Threshold for basis singularities: 0.0000E+00
  Partition function in integrals calculations: rho / r^2
 Using packed matrix format           0
  Convergence accuracy of forces: 0.5000E-03
  Cleaning forces before final output.
  Hirshfeld charge analysis will be performed.
 
  Reading configuration options for species H                   .
  | Found nuclear charge :   1.0000
  | Found cutoff potl. onset [A], width [A], scale factor :    4.00000    2.00000    1.00000
  | Found cutoff specification for free atom: Cutoff potential begins at    8.00000 A.
  | Found logarithmic grid data [bohr] : 0.1000E-03 0.1000E+03 0.1012E+01
  | Threshold for basis-dependent cutoff potential is   0.100000E-03
  | Found data for basic radial integration grid :    24 points, outermost radius =    7.000 A
  | Found multiplier for basic radial grid :   2
  | Found angular grid specification: user-specified.
  | Specified grid contains     4 separate shells.
  | Check grid settings after all constraints further below.
  | Found l_max for Hartree potential  :   4
  | Found free-atom valence shell :  1 s   1.000
  | No ionic wave fns used. Skipping ion_occ.
  | Found hydrogenic basis function :  2 s   2.100
  | Found hydrogenic basis function :  2 p   3.500
  | Found hydrogenic basis function :  1 s   0.850
  | Found hydrogenic basis function :  2 p   3.700
  | Found hydrogenic basis function :  2 s   1.200
  | Found hydrogenic basis function :  3 d   7.000
  Species H                   : Missing cutoff potential type.
  Defaulting to exp(1/x)/(1-x)^2 type cutoff potential.
  Species H : On-site basis accuracy parameter (for Gram-Schmidt orthonormalisation) not specified.
  Using default value basis_acc =  0.1000000E-03.
  Species H                   : Using default innermost maximum threshold i_radial=  2 for radial functions.
  Species H                   : Basic radial grid will be enhanced according to radial_multiplier =   2, to contain    49 grid points.
 
  Reading configuration options for species O                   .
  | Found nuclear charge :   8.0000
  | Found atomic mass :    15.9994000000000      amu
  | Found l_max for Hartree potential  :   4
  | Found cutoff potl. onset [A], width [A], scale factor :    4.00000    2.00000    1.00000
  | Found cutoff specification for free atom: Cutoff potential begins at    8.00000 A.
  | Threshold for basis-dependent cutoff potential is   0.100000E-03
  | Found logarithmic grid data [bohr] : 0.1000E-03 0.1000E+03 0.1012E+01
  | Found data for basic radial integration grid :    36 points, outermost radius =    7.000 A
  | Found multiplier for basic radial grid :   2
  | Found angular grid specification: user-specified.
  | Specified grid contains     4 separate shells.
  | Check grid settings after all constraints further below.
  | Found free-atom valence shell :  2 s   2.000
  | Found free-atom valence shell :  2 p   4.000
  | No ionic wave fns used. Skipping ion_occ.
  | No ionic wave fns used. Skipping ion_occ.
  | Found hydrogenic basis function :  2 p   1.800
  | Found hydrogenic basis function :  3 d   7.600
  | Found hydrogenic basis function :  3 s   6.400
  | Found hydrogenic basis function :  4 f  11.600
  | Found hydrogenic basis function :  3 p   6.200
  | Found hydrogenic basis function :  3 d   5.600
  | Found hydrogenic basis function :  5 g  17.600
  | Found hydrogenic basis function :  1 s   0.750
  Species O                   : Missing cutoff potential type.
  Defaulting to exp(1/x)/(1-x)^2 type cutoff potential.
  Species O : On-site basis accuracy parameter (for Gram-Schmidt orthonormalisation) not specified.
  Using default value basis_acc =  0.1000000E-03.
  Species O                   : Using default innermost maximum threshold i_radial=  2 for radial functions.
  Species O                   : Basic radial grid will be enhanced according to radial_multiplier =   2, to contain    73 grid points.
 
  Finished reading input file 'control.in'. Consistency checks are next.
 
  Target number of points in a grid batch is not set. Defaulting to  100
  Method for grid partitioning is not set. Defaulting to parallel hash+maxmin partitioning.
  Batch size limit is not set. Defaulting to    200
  By default, will store active basis functions for each batch.
  If in need of memory, prune_basis_once .false. can be used to disable this option.
  communication_type for Hartree potential was not specified.
  Defaulting to calc_hartree .
  Pulay mixer: Number of initial linear mixing iterations not set.
  Defaulting to    0 iterations.
  Work space size for distributed Hartree potential not set.
  Defaulting to   0.200000E+03 MB.
  Algorithm-dependent basis array size parameters:
  | n_max_pulay                         :       10
  Geometry relaxation not requested: no relaxation will be performed.
  Handling of forces: Unphysical translation and rotation will be removed from forces.
  No accuracy limit for integral partition fn. given. Defaulting to 0.1000E-14.
  No threshold value for u(r) in integrations given. Defaulting to 0.1000E-05.
  No accuracy for occupation numbers given. Defaulting to 0.1000E-07.
  No threshold value for occupation numbers given. Defaulting to 0.0000E+00.
  No accuracy for fermi level given. Defaulting to 0.1000E-19.
  Maximum # of iterations to find E_F not set. Defaulting to  200.
  Will not use alltoall communication since running on < 1024 CPUs.
  Partitioning for Hartree potential was not defined. Using partition_type for integrals.
  | Reporting present value of keyword multip_moments_threshold  :       0.10000000E-09
  | This value may affect high angular momentum components of the Hartree potential in periodic systems.
  No q(lm)/r^(l+1) cutoff set for long-range Hartree potential.
  | Using default value of  0.100000E-09 .
  | Verify using the multipole_threshold keyword.
  Defaulting to new monopole extrapolation.
  Density update method: Loop over occupied states selected for charge density update.
------------------------------------------------------------


------------------------------------------------------------
          Reading geometry description geometry.in.
------------------------------------------------------------
  Input structure read successfully.
  The structure contains        9 atoms,  and a total of         30.000 electrons.

  Input geometry:
  | No unit cell requested.
  | Atomic structure:
  |       Atom                x [A]            y [A]            z [A]
  |    1: Species O             -4.053030         0.065001        -1.525160
  |    2: Species H             -4.566710         0.974813        -1.912820
  |    3: Species H             -3.067820         0.330172        -1.477310
  |    4: Species O             -5.293160         2.192130        -2.328800
  |    5: Species H             -4.829300         2.988660        -1.973850
  |    6: Species H             -5.428570         2.328640        -3.235170
  |    7: Species O             -1.975360         2.858040         0.453140
  |    8: Species H             -1.223550         3.375850         0.786238
  |    9: Species H             -2.537520         2.567960         1.156120
  |

  | The smallest distance between any two atoms is         0.92654057 AA.
  |
  | The first atom of this pair is atom number                      4 .
  | The second atom of this pair is atom number                     6 .

  Structure-dependent array size parameters: 
  | Maximum number of distinct radial functions  :       18
  | Maximum number of basis functions            :      207
  | Number of Kohn-Sham states (occupied + empty):       51
------------------------------------------------------------

------------------------------------------------------------
          Preparing all fixed parts of the calculation.
------------------------------------------------------------
  Determining machine precision:
    2.225073858507201E-308
  Setting up grids for atomic and cluster calculations.

  Creating wave function, potential, and density for free atoms.

  Species: H

  List of occupied orbitals and eigenvalues:
    n    l              occ      energy [Ha]    energy [eV]
    1    0           1.0000        -0.241408        -6.5691


  Species: O

  List of occupied orbitals and eigenvalues:
    n    l              occ      energy [Ha]    energy [eV]
    1    0           2.0000       -18.944147      -515.4965
    2    0           2.0000        -0.883529       -24.0421
    2    1           4.0000        -0.330176        -8.9845

  Creating fixed part of basis set: Ionic, confined, hydrogenic.
 
  H                    hydrogenic:
 
  List of hydrogenic basis orbitals: 
    n    l      effective z      eigenvalue [eV]  inner max. [A]     outer max. [A]     outer radius [A]   
    2    0         2.100000       -14.9965           0.193241           1.317192           5.372934
    2    1         3.500000       -41.6672           0.602363           0.602363           4.056010
    1    0         0.850000        -9.8292           0.624864           0.624864           5.372934
    2    1         3.700000       -46.5653           0.573616           0.573616           3.909951
    2    0         1.200000        -4.5995           0.334977           2.228160           5.505921
    3    2         7.000000       -74.0753           0.680692           0.680692           3.769152
 
 
  O                    hydrogenic:
 
  List of hydrogenic basis orbitals: 
    n    l      effective z      eigenvalue [eV]  inner max. [A]     outer max. [A]     outer radius [A]   
    2    1         1.800000       -11.0118           1.178546           1.178546           5.432516
    3    2         7.600000       -87.3182           0.624117           0.624117           3.541422
    3    0         6.400000       -61.9209           0.061166           1.081887           4.306510
    4    3        11.600000      -114.4238           0.731621           0.731621           3.584982
    3    1         6.200000       -58.1113           0.255677           1.030255           4.306510
    3    2         5.600000       -47.4081           0.847222           0.847222           4.413102
    5    4        17.600000      -168.5799           0.749730           0.749730           3.372413
    1    0         0.750000        -7.6499           0.705275           0.705275           5.366508
 

  Adding cutoff potential to free-atom effective potential.
  Creating atomic-like basis functions for current effective potential.

  Species H                   :

  List of atomic basis orbitals and eigenvalues:
    n    l      energy [Ha]    energy [eV]    outer radius [A]
    1    0        -0.241374        -6.5681       5.372934


  Species O                   :

  List of atomic basis orbitals and eigenvalues:
    n    l      energy [Ha]    energy [eV]    outer radius [A]
    1    0       -18.944147      -515.4965       1.415745
    2    0        -0.883529       -24.0421       5.048305
    2    1        -0.330173        -8.9845       5.301302

  Assembling full basis from fixed parts.
  | Species H :   atomic orbital   1 s accepted.
  | Species H :    hydro orbital   2 s accepted.
  | Species H :    hydro orbital   1 s accepted.
  | Species H :    hydro orbital   2 s accepted.
  | Species H :    hydro orbital   2 p accepted.
  | Species H :    hydro orbital   2 p accepted.
  | Species H :    hydro orbital   3 d accepted.
  | Species O :   atomic orbital   1 s accepted.
  | Species O :    hydro orbital   3 s accepted.
  | Species O :   atomic orbital   2 s accepted.
  | Species O :    hydro orbital   1 s accepted.
  | Species O :    hydro orbital   3 p accepted.
  | Species O :   atomic orbital   2 p accepted.
  | Species O :    hydro orbital   2 p accepted.
  | Species O :    hydro orbital   3 d accepted.
  | Species O :    hydro orbital   3 d accepted.
  | Species O :    hydro orbital   4 f accepted.
  | Species O :    hydro orbital   5 g accepted.
 
  Basis size parameters after reduction:
  | Total number of radial functions:       18
  | Total number of basis functions :      207
 
  Testing on-site integration grid accuracy.
  |  Species  Function  <phi|h_atom|phi> (log., in eV)  <phi|h_atom|phi> (rad., in eV)
           1        1                 -6.5683835025                 -6.5684759159
           1        2                 13.3711789951                 13.3708738703
           1        3                 23.6590910787                 23.6532055418
           1        4                 16.2963827186                 16.1870710655 ***
           1        5                 28.7627214838                 28.7627215090
           1        6                 59.5965249172                 59.5965950857
           1        7                 60.2220506392                 60.2220503827
           2        8               -515.4964576505               -515.4964530710
           2        9                 15.3030791347                 15.3030722972
           2       10                -21.7296094581                -21.7296135470
           2       11                 14.2969371730                 14.2969701621
           2       12                 21.0679693190                 21.0679697493
           2       13                 -2.3833606469                 -2.3833613176
           2       14                 13.7067136422                 13.7066766629
           2       15                 45.8013116808                 45.8013116965
           2       16                 52.2309815402                 52.2309831494
           2       17                 85.4120732416                 85.4120732763
           2       18                142.1019167745                142.1019167817
 * Note: Onsite integrals marked "***" above are less accurate than
 * onsite_accuracy_threshold =    0.03000 eV. Usually, this is harmless.
 * When in doubt, tighten the "radial" and/or "radial_multiplier" flags to check.

  Preparing densities etc. for the partition functions (integrals / Hartree potential).

  Preparations completed.
  max(cpu_time)          :      0.173 s.
  Wall clock time (cpu1) :      0.518 s.
------------------------------------------------------------

------------------------------------------------------------
          Begin self-consistency loop: Initialization.

          Date     :  20150727, Time     :  123003.774
------------------------------------------------------------

  Initializing index lists of integration centers etc. from given atomic structure:
  | Number of centers in hartree potential         :         9
  | Number of centers in hartree multipole         :         9
  | Number of centers in electron density summation:         9
  | Number of centers in basis integrals           :         9
  | Number of centers in integrals                 :         9
  Partitioning the integration grid into batches with parallel hashing+maxmin method.
  | Number of batches:     1251
  | Maximal batch size:     195
  | Minimal batch size:      49
  | Average batch size:      94.345
  | Standard deviation of batch sizes:      25.455

  Integration load balanced across     8 MPI tasks.
  Work distribution over tasks is as follows:
  Task     0 has      14745 integration points.
  Task     1 has      14810 integration points.
  Task     2 has      14701 integration points.
  Task     3 has      14766 integration points.
  Task     4 has      14700 integration points.
  Task     5 has      14806 integration points.
  Task     6 has      14692 integration points.
  Task     7 has      14806 integration points.
  Initializing partition tables, free-atom densities, potentials, etc. across the integration grid (initialize_grid_storage).
  | Net number of integration points:   118026
  | of which are non-zero points    :   117521
  Obtaining max. number of non-zero basis functions in each batch (get_n_compute_maxes).
  | Maximal number of non-zero basis functions:      205 in task     0
  | Maximal number of non-zero basis functions:      206 in task     1
  | Maximal number of non-zero basis functions:      205 in task     2
  | Maximal number of non-zero basis functions:      205 in task     3
  | Maximal number of non-zero basis functions:      206 in task     4
  | Maximal number of non-zero basis functions:      206 in task     5
  | Maximal number of non-zero basis functions:      206 in task     6
  | Maximal number of non-zero basis functions:      206 in task     7
  Integrating Hamiltonian matrix: batch-based integration.
  Time summed over all CPUs for integration: real work        2.329 s, elapsed        2.393 s
  Integrating overlap matrix.
  Time summed over all CPUs for integration: real work        1.204 s, elapsed        1.234 s

  Updating Kohn-Sham eigenvalues, eigenvectors, occupation numbers, and Fermi level.
  Solving generalized eigenproblem
  Updating Kohn-Sham eigenvalues and eigenfunctions.
  Transforming overlap matrix and checking for singularities.
  Overlap matrix is nonsingular:
  | Lowest eigenvalue:  0.364732E-03
  Solving real generalised eigenvalue problem by standard LAPACK (fast)
  Determining occupation numbers for Kohn-Sham eigenstates.
  | Chemical potential (Fermi level) in eV                 : -.56636840E+01
  | Error in electron count due to remaining E_F inaccuracy: 0.00000000E+00
  | Maximum occupation number of highest empty state:  0.00E+00

  Writing Kohn-Sham eigenvalues.

  State    Occupation    Eigenvalue [Ha]    Eigenvalue [eV]
      1       2.00000         -19.064783         -518.77913
      2       2.00000         -19.054446         -518.49785
      3       2.00000         -19.019415         -517.54461
      4       2.00000          -1.121134          -30.50762
      5       2.00000          -1.103334          -30.02325
      6       2.00000          -1.043107          -28.38440
      7       2.00000          -0.650078          -17.68951
      8       2.00000          -0.646469          -17.59132
      9       2.00000          -0.596117          -16.22116
     10       2.00000          -0.524326          -14.26763
     11       2.00000          -0.501112          -13.63594
     12       2.00000          -0.481881          -13.11265
     13       2.00000          -0.440881          -11.99698
     14       2.00000          -0.437889          -11.91556
     15       2.00000          -0.409559          -11.14467
     16       0.00000          -0.085260           -2.32004
     17       0.00000          -0.058845           -1.60125
     18       0.00000          -0.038530           -1.04846
     19       0.00000          -0.005979           -0.16269
     20       0.00000           0.000541            0.01472
     21       0.00000           0.040624            1.10544
     22       0.00000           0.084097            2.28839
     23       0.00000           0.089821            2.44414
     24       0.00000           0.094818            2.58014
     25       0.00000           0.103631            2.81994
     26       0.00000           0.113248            3.08165
     27       0.00000           0.116143            3.16041
     28       0.00000           0.125528            3.41579
     29       0.00000           0.142755            3.88456
     30       0.00000           0.159846            4.34964
     31       0.00000           0.166629            4.53420
     32       0.00000           0.189155            5.14717
     33       0.00000           0.238269            6.48364
     34       0.00000           0.247610            6.73781
     35       0.00000           0.269316            7.32847
     36       0.00000           0.277595            7.55374
     37       0.00000           0.310555            8.45064
     38       0.00000           0.346557            9.43031
     39       0.00000           0.367042            9.98773
     40       0.00000           0.378900           10.31039
     41       0.00000           0.396072           10.77766
     42       0.00000           0.420369           11.43882
     43       0.00000           0.423480           11.52349
     44       0.00000           0.443679           12.07313
     45       0.00000           0.450355           12.25480
     46       0.00000           0.480183           13.06643
     47       0.00000           0.501601           13.64926
     48       0.00000           0.541651           14.73907
     49       0.00000           0.570958           15.53656
     50       0.00000           0.586211           15.95162
     51       0.00000           0.667483           18.16313

  Highest occupied state (VBM) at    -11.14466537 eV
  | Occupation number:      2.00000000

  Lowest unoccupied state (CBM) at    -2.32004041 eV
  | Occupation number:      0.00000000

  Overall HOMO-LUMO gap:      8.82462496 eV.
  Calculating total energy contributions from superposition of free atom densities.

  Total energy components:
  | Sum of eigenvalues            :        -130.18905970 Ha       -3542.62456122 eV
  | XC energy correction          :         -27.33196516 Ha        -743.74061304 eV
  | XC potential correction       :          34.92084981 Ha         950.24467138 eV
  | Free-atom electrostatic energy:        -107.25559535 Ha       -2918.57324487 eV
  | Hartree energy correction     :           0.00000000 Ha           0.00000000 eV
  | van der Waals energy corr.    :           0.00000000 Ha           0.00000000 eV
  | Entropy correction            :           0.00000000 Ha           0.00000000 eV
  | ---------------------------
  | Total energy                  :        -229.85577039 Ha       -6254.69374775 eV
  | Total energy, T -> 0          :        -229.85577039 Ha       -6254.69374775 eV  <-- do not rely on this value for anything but (periodic) metals
  | Electronic free energy        :        -229.85577039 Ha       -6254.69374775 eV

  Derived energy quantities:
  | Kinetic energy                :         227.46319792 Ha        6189.58853824 eV
  | Electrostatic energy          :        -429.98700316 Ha      -11700.54167295 eV
  | Energy correction for multipole
  | error in Hartree potential    :           0.00000000 Ha           0.00000000 eV
  | Sum of eigenvalues per atom                           :        -393.62495125 eV
  | Total energy (T->0) per atom                          :        -694.96597197 eV  <-- do not rely on this value for anything but (periodic) metals
  | Electronic free energy per atom                       :        -694.96597197 eV
  Initialize hartree_potential_storage
  Max. number of atoms included in rho_multipole:            9

  End scf initialization - timings             :  max(cpu_time)    wall_clock(cpu1)
  | Time for scf. initialization               :        0.708 s           0.707 s
  | Boundary condition initialization          :        0.001 s           0.000 s
  | Integration                                :        0.455 s           0.455 s
  | Solution of K.-S. eqns.                    :        0.065 s           0.065 s
  | Grid partitioning                          :        0.090 s           0.090 s
  | Preloading free-atom quantities on grid    :        0.013 s           0.013 s
  | Free-atom superposition energy             :        0.030 s           0.030 s
  | Total energy evaluation                    :        0.000 s           0.001 s
------------------------------------------------------------

------------------------------------------------------------
          Begin self-consistency iteration #    1

  Date     :  20150727, Time     :  123004.482
------------------------------------------------------------
  Evaluating new KS density.
  Integration grid: deviation in total charge (<rho> - N_e) =   1.065814E-14
  Pulay mixing of updated and previous charge densities.

  Evaluating partitioned Hartree potential by multipole expansion.
  | Analytical far-field extrapolation by fixed multipoles:
  | Hartree multipole sum: apparent total charge =  -0.147980E-05
  Summing up the Hartree potential.
  Time summed over all CPUs for potential: real work        0.944 s, elapsed        0.949 s
  | RMS charge density error from multipole expansion :   0.128228E-02

  Integrating Hamiltonian matrix: batch-based integration.
  Time summed over all CPUs for integration: real work        2.326 s, elapsed        2.396 s

  Updating Kohn-Sham eigenvalues, eigenvectors, occupation numbers, and Fermi level.
  Solving generalized eigenproblem
  Updating Kohn-Sham eigenvalues and eigenfunctions.
  Solving real generalised eigenvalue problem by standard LAPACK (fast)
  Determining occupation numbers for Kohn-Sham eigenstates.
  | Chemical potential (Fermi level) in eV                 : -.52802213E+01
  | Error in electron count due to remaining E_F inaccuracy: 0.00000000E+00
  | Maximum occupation number of highest empty state:  0.00E+00

  Writing Kohn-Sham eigenvalues.

  State    Occupation    Eigenvalue [Ha]    Eigenvalue [eV]
      1       2.00000         -18.998342         -516.97120
      2       2.00000         -18.975525         -516.35030
      3       2.00000         -18.933408         -515.20424
      4       2.00000          -1.090400          -29.67129
      5       2.00000          -1.065142          -28.98400
      6       2.00000          -0.996784          -27.12387
      7       2.00000          -0.623856          -16.97599
      8       2.00000          -0.613790          -16.70208
      9       2.00000          -0.561630          -15.28273
     10       2.00000          -0.486774          -13.24579
     11       2.00000          -0.462471          -12.58447
     12       2.00000          -0.444078          -12.08399
     13       2.00000          -0.400846          -10.90758
     14       2.00000          -0.397913          -10.82778
     15       2.00000          -0.361804           -9.84519
     16       0.00000          -0.077915           -2.12018
     17       0.00000          -0.052880           -1.43895
     18       0.00000          -0.027751           -0.75514
     19       0.00000          -0.000906           -0.02467
     20       0.00000           0.005885            0.16014
     21       0.00000           0.050230            1.36682
     22       0.00000           0.094365            2.56779
     23       0.00000           0.098373            2.67687
     24       0.00000           0.105337            2.86636
     25       0.00000           0.112869            3.07132
     26       0.00000           0.122268            3.32708
     27       0.00000           0.127956            3.48186
     28       0.00000           0.135397            3.68433
     29       0.00000           0.152880            4.16007
     30       0.00000           0.167064            4.54605
     31       0.00000           0.175328            4.77092
     32       0.00000           0.196733            5.35338
     33       0.00000           0.246029            6.69478
     34       0.00000           0.257557            7.00848
     35       0.00000           0.275879            7.50706
     36       0.00000           0.287767            7.83053
     37       0.00000           0.317301            8.63420
     38       0.00000           0.356147            9.69126
     39       0.00000           0.375873           10.22804
     40       0.00000           0.386080           10.50576
     41       0.00000           0.407719           11.09459
     42       0.00000           0.427532           11.63373
     43       0.00000           0.431124           11.73148
     44       0.00000           0.453192           12.33198
     45       0.00000           0.460112           12.52027
     46       0.00000           0.492657           13.40588
     47       0.00000           0.512390           13.94284
     48       0.00000           0.552100           15.02340
     49       0.00000           0.583453           15.87655
     50       0.00000           0.598298           16.28050
     51       0.00000           0.679144           18.48045

  Highest occupied state (VBM) at     -9.84519102 eV
  | Occupation number:      2.00000000

  Lowest unoccupied state (CBM) at    -2.12018377 eV
  | Occupation number:      0.00000000

  Overall HOMO-LUMO gap:      7.72500725 eV.

  Total energy components:
  | Sum of eigenvalues            :        -128.82552754 Ha       -3505.52096333 eV
  | XC energy correction          :         -27.48108090 Ha        -747.79825888 eV
  | XC potential correction       :          35.11630643 Ha         955.56331661 eV
  | Free-atom electrostatic energy:        -107.25559535 Ha       -2918.57324487 eV
  | Hartree energy correction     :          -1.31862070 Ha         -35.88149492 eV
  | van der Waals energy corr.    :           0.00000000 Ha           0.00000000 eV
  | Entropy correction            :           0.00000000 Ha           0.00000000 eV
  | ---------------------------
  | Total energy                  :        -229.76451806 Ha       -6252.21064538 eV
  | Total energy, T -> 0          :        -229.76451806 Ha       -6252.21064538 eV  <-- do not rely on this value for anything but (periodic) metals
  | Electronic free energy        :        -229.76451806 Ha       -6252.21064538 eV

  Derived energy quantities:
  | Kinetic energy                :         228.35042643 Ha        6213.73125439 eV
  | Electrostatic energy          :        -430.63386359 Ha      -11718.14364089 eV
  | Energy correction for multipole
  | error in Hartree potential    :          -0.00012181 Ha          -0.00331474 eV
  | Sum of eigenvalues per atom                           :        -389.50232926 eV
  | Total energy (T->0) per atom                          :        -694.69007171 eV  <-- do not rely on this value for anything but (periodic) metals
  | Electronic free energy per atom                       :        -694.69007171 eV

  Self-consistency convergence accuracy:
  | Change of charge density      : 0.5239E+00
  | Change of sum of eigenvalues  : 0.3710E+02 eV
  | Change of total energy        : 0.2483E+01 eV

  End self-consistency iteration #     1       :  max(cpu_time)    wall_clock(cpu1)
  | Time for this iteration                    :        0.664 s           0.663 s
  | Charge density update                      :        0.219 s           0.218 s
  | Density mixing                             :        0.002 s           0.002 s
  | Hartree multipole update                   :        0.004 s           0.004 s
  | Hartree multipole summation                :        0.119 s           0.119 s
  | Integration                                :        0.300 s           0.301 s
  | Solution of K.-S. eqns.                    :        0.017 s           0.016 s
  | Total energy evaluation                    :        0.000 s           0.001 s
------------------------------------------------------------

------------------------------------------------------------
          Begin self-consistency iteration #    2

  Date     :  20150727, Time     :  123005.146
------------------------------------------------------------
  Evaluating new KS density.
  Integration grid: deviation in total charge (<rho> - N_e) =   3.552714E-15
  Pulay mixing of updated and previous charge densities.

  Evaluating partitioned Hartree potential by multipole expansion.
  | Analytical far-field extrapolation by fixed multipoles:
  | Hartree multipole sum: apparent total charge =  -0.459919E-05
  Summing up the Hartree potential.
  Time summed over all CPUs for potential: real work        0.943 s, elapsed        0.949 s
  | RMS charge density error from multipole expansion :   0.515015E-02

  Integrating Hamiltonian matrix: batch-based integration.
  Time summed over all CPUs for integration: real work        2.324 s, elapsed        2.407 s

  Updating Kohn-Sham eigenvalues, eigenvectors, occupation numbers, and Fermi level.
  Solving generalized eigenproblem
  Updating Kohn-Sham eigenvalues and eigenfunctions.
  Solving real generalised eigenvalue problem by standard LAPACK (fast)
  Determining occupation numbers for Kohn-Sham eigenstates.
  | Chemical potential (Fermi level) in eV                 : -.42995186E+01
  | Error in electron count due to remaining E_F inaccuracy: 0.00000000E+00
  | Maximum occupation number of highest empty state:  0.00E+00

  Highest occupied state (VBM) at     -6.75179172 eV
  | Occupation number:      2.00000000

  Lowest unoccupied state (CBM) at    -1.68777300 eV
  | Occupation number:      0.00000000

  Overall HOMO-LUMO gap:      5.06401872 eV.

  Total energy components:
  | Sum of eigenvalues            :        -125.59117566 Ha       -3417.50977063 eV
  | XC energy correction          :         -27.85083247 Ha        -757.85971109 eV
  | XC potential correction       :          35.60063516 Ha         968.74257181 eV
  | Free-atom electrostatic energy:        -107.25559535 Ha       -2918.57324487 eV
  | Hartree energy correction     :          -4.56065755 Ha        -124.10180616 eV
  | van der Waals energy corr.    :           0.00000000 Ha           0.00000000 eV
  | Entropy correction            :           0.00000000 Ha           0.00000000 eV
  | ---------------------------
  | Total energy                  :        -229.65762587 Ha       -6249.30196094 eV
  | Total energy, T -> 0          :        -229.65762587 Ha       -6249.30196094 eV  <-- do not rely on this value for anything but (periodic) metals
  | Electronic free energy        :        -229.65762587 Ha       -6249.30196094 eV

  Derived energy quantities:
  | Kinetic energy                :         230.14391973 Ha        6262.53469011 eV
  | Electrostatic energy          :        -431.95071313 Ha      -11753.97693996 eV
  | Energy correction for multipole
  | error in Hartree potential    :          -0.00089779 Ha          -0.02443009 eV
  | Sum of eigenvalues per atom                           :        -379.72330785 eV
  | Total energy (T->0) per atom                          :        -694.36688455 eV  <-- do not rely on this value for anything but (periodic) metals
  | Electronic free energy per atom                       :        -694.36688455 eV

  Self-consistency convergence accuracy:
  | Change of charge density      : 0.3961E+00
  | Change of sum of eigenvalues  : 0.8801E+02 eV
  | Change of total energy        : 0.2909E+01 eV

  End self-consistency iteration #     2       :  max(cpu_time)    wall_clock(cpu1)
  | Time for this iteration                    :        0.669 s           0.668 s
  | Charge density update                      :        0.216 s           0.215 s
  | Density mixing                             :        0.003 s           0.004 s
  | Hartree multipole update                   :        0.004 s           0.003 s
  | Hartree multipole summation                :        0.119 s           0.120 s
  | Integration                                :        0.309 s           0.308 s
  | Solution of K.-S. eqns.                    :        0.016 s           0.017 s
  | Total energy evaluation                    :        0.000 s           0.001 s
------------------------------------------------------------

------------------------------------------------------------
          Begin self-consistency iteration #    3

  Date     :  20150727, Time     :  123005.815
------------------------------------------------------------
  Evaluating new KS density.
  Integration grid: deviation in total charge (<rho> - N_e) =  -2.131628E-14
  Pulay mixing of updated and previous charge densities.

  Evaluating partitioned Hartree potential by multipole expansion.
  | Analytical far-field extrapolation by fixed multipoles:
  | Hartree multipole sum: apparent total charge =  -0.545576E-05
  Summing up the Hartree potential.
  Time summed over all CPUs for potential: real work        0.943 s, elapsed        0.949 s
  | RMS charge density error from multipole expansion :   0.104099E-01

  Integrating Hamiltonian matrix: batch-based integration.
  Time summed over all CPUs for integration: real work        2.322 s, elapsed        2.390 s

  Updating Kohn-Sham eigenvalues, eigenvectors, occupation numbers, and Fermi level.
  Solving generalized eigenproblem
  Updating Kohn-Sham eigenvalues and eigenfunctions.
  Solving real generalised eigenvalue problem by standard LAPACK (fast)
  Determining occupation numbers for Kohn-Sham eigenstates.
  | Chemical potential (Fermi level) in eV                 : -.40573955E+01
  | Error in electron count due to remaining E_F inaccuracy: 0.00000000E+00
  | Maximum occupation number of highest empty state:  0.00E+00

  Highest occupied state (VBM) at     -6.61528435 eV
  | Occupation number:      2.00000000

  Lowest unoccupied state (CBM) at    -1.59949794 eV
  | Occupation number:      0.00000000

  Overall HOMO-LUMO gap:      5.01578642 eV.

  Total energy components:
  | Sum of eigenvalues            :        -125.75924557 Ha       -3422.08318568 eV
  | XC energy correction          :         -27.82891365 Ha        -757.26326955 eV
  | XC potential correction       :          35.56941308 Ha         967.89297589 eV
  | Free-atom electrostatic energy:        -107.25559535 Ha       -2918.57324487 eV
  | Hartree energy correction     :          -4.38009705 Ha        -119.18850498 eV
  | van der Waals energy corr.    :           0.00000000 Ha           0.00000000 eV
  | Entropy correction            :           0.00000000 Ha           0.00000000 eV
  | ---------------------------
  | Total energy                  :        -229.65443854 Ha       -6249.21522920 eV
  | Total energy, T -> 0          :        -229.65443854 Ha       -6249.21522920 eV  <-- do not rely on this value for anything but (periodic) metals
  | Electronic free energy        :        -229.65443854 Ha       -6249.21522920 eV

  Derived energy quantities:
  | Kinetic energy                :         228.84796153 Ha        6227.26987314 eV
  | Electrostatic energy          :        -430.67348641 Ha      -11719.22183279 eV
  | Energy correction for multipole
  | error in Hartree potential    :          -0.00362892 Ha          -0.09874798 eV
  | Sum of eigenvalues per atom                           :        -380.23146508 eV
  | Total energy (T->0) per atom                          :        -694.35724769 eV  <-- do not rely on this value for anything but (periodic) metals
  | Electronic free energy per atom                       :        -694.35724769 eV

  Self-consistency convergence accuracy:
  | Change of charge density      : 0.1960E+00
  | Change of sum of eigenvalues  : -.4573E+01 eV
  | Change of total energy        : 0.8673E-01 eV

  End self-consistency iteration #     3       :  max(cpu_time)    wall_clock(cpu1)
  | Time for this iteration                    :        0.660 s           0.659 s
  | Charge density update                      :        0.216 s           0.215 s
  | Density mixing                             :        0.004 s           0.004 s
  | Hartree multipole update                   :        0.004 s           0.004 s
  | Hartree multipole summation                :        0.119 s           0.119 s
  | Integration                                :        0.299 s           0.299 s
  | Solution of K.-S. eqns.                    :        0.017 s           0.017 s
  | Total energy evaluation                    :        0.000 s           0.001 s
------------------------------------------------------------

------------------------------------------------------------
          Begin self-consistency iteration #    4

  Date     :  20150727, Time     :  123006.475
------------------------------------------------------------
  Evaluating new KS density.
  Integration grid: deviation in total charge (<rho> - N_e) =   1.421085E-14
  Pulay mixing of updated and previous charge densities.

  Evaluating partitioned Hartree potential by multipole expansion.
  | Analytical far-field extrapolation by fixed multipoles:
  | Hartree multipole sum: apparent total charge =  -0.662447E-05
  Summing up the Hartree potential.
  Time summed over all CPUs for potential: real work        0.943 s, elapsed        0.949 s
  | RMS charge density error from multipole expansion :   0.131547E-01

  Integrating Hamiltonian matrix: batch-based integration.
  Time summed over all CPUs for integration: real work        2.312 s, elapsed        2.383 s

  Updating Kohn-Sham eigenvalues, eigenvectors, occupation numbers, and Fermi level.
  Solving generalized eigenproblem
  Updating Kohn-Sham eigenvalues and eigenfunctions.
  Solving real generalised eigenvalue problem by standard LAPACK (fast)
  Determining occupation numbers for Kohn-Sham eigenstates.
  | Chemical potential (Fermi level) in eV                 : -.36963908E+01
  | Error in electron count due to remaining E_F inaccuracy: 0.00000000E+00
  | Maximum occupation number of highest empty state:  0.00E+00

  Highest occupied state (VBM) at     -5.61565759 eV
  | Occupation number:      2.00000000

  Lowest unoccupied state (CBM) at    -1.45655062 eV
  | Occupation number:      0.00000000

  Overall HOMO-LUMO gap:      4.15910698 eV.

  Total energy components:
  | Sum of eigenvalues            :        -124.84332610 Ha       -3397.15974863 eV
  | XC energy correction          :         -27.94399982 Ha        -760.39492349 eV
  | XC potential correction       :          35.71991501 Ha         971.98834172 eV
  | Free-atom electrostatic energy:        -107.25559535 Ha       -2918.57324487 eV
  | Hartree energy correction     :          -5.32362888 Ha        -144.86331244 eV
  | van der Waals energy corr.    :           0.00000000 Ha           0.00000000 eV
  | Entropy correction            :           0.00000000 Ha           0.00000000 eV
  | ---------------------------
  | Total energy                  :        -229.64663513 Ha       -6249.00288771 eV
  | Total energy, T -> 0          :        -229.64663513 Ha       -6249.00288771 eV  <-- do not rely on this value for anything but (periodic) metals
  | Electronic free energy        :        -229.64663513 Ha       -6249.00288771 eV

  Derived energy quantities:
  | Kinetic energy                :         228.97960754 Ha        6230.85214350 eV
  | Electrostatic energy          :        -430.68224286 Ha      -11719.46010773 eV
  | Energy correction for multipole
  | error in Hartree potential    :          -0.00471349 Ha          -0.12826054 eV
  | Sum of eigenvalues per atom                           :        -377.46219429 eV
  | Total energy (T->0) per atom                          :        -694.33365419 eV  <-- do not rely on this value for anything but (periodic) metals
  | Electronic free energy per atom                       :        -694.33365419 eV

  Self-consistency convergence accuracy:
  | Change of charge density      : 0.1107E+00
  | Change of sum of eigenvalues  : 0.2492E+02 eV
  | Change of total energy        : 0.2123E+00 eV

  End self-consistency iteration #     4       :  max(cpu_time)    wall_clock(cpu1)
  | Time for this iteration                    :        0.659 s           0.659 s
  | Charge density update                      :        0.215 s           0.214 s
  | Density mixing                             :        0.005 s           0.005 s
  | Hartree multipole update                   :        0.004 s           0.004 s
  | Hartree multipole summation                :        0.119 s           0.119 s
  | Integration                                :        0.299 s           0.299 s
  | Solution of K.-S. eqns.                    :        0.016 s           0.016 s
  | Total energy evaluation                    :        0.000 s           0.000 s
------------------------------------------------------------

------------------------------------------------------------
          Begin self-consistency iteration #    5

  Date     :  20150727, Time     :  123007.134
------------------------------------------------------------
  Evaluating new KS density.
  Integration grid: deviation in total charge (<rho> - N_e) =   0.000000E+00
  Pulay mixing of updated and previous charge densities.

  Evaluating partitioned Hartree potential by multipole expansion.
  | Analytical far-field extrapolation by fixed multipoles:
  | Hartree multipole sum: apparent total charge =  -0.685537E-05
  Summing up the Hartree potential.
  Time summed over all CPUs for potential: real work        0.943 s, elapsed        0.949 s
  | RMS charge density error from multipole expansion :   0.138752E-01

  Integrating Hamiltonian matrix: batch-based integration.
  Time summed over all CPUs for integration: real work        2.313 s, elapsed        2.385 s

  Updating Kohn-Sham eigenvalues, eigenvectors, occupation numbers, and Fermi level.
  Solving generalized eigenproblem
  Updating Kohn-Sham eigenvalues and eigenfunctions.
  Solving real generalised eigenvalue problem by standard LAPACK (fast)
  Determining occupation numbers for Kohn-Sham eigenstates.
  | Chemical potential (Fermi level) in eV                 : -.36556355E+01
  | Error in electron count due to remaining E_F inaccuracy: 0.00000000E+00
  | Maximum occupation number of highest empty state:  0.00E+00

  Highest occupied state (VBM) at     -5.33332113 eV
  | Occupation number:      2.00000000

  Lowest unoccupied state (CBM) at    -1.43584965 eV
  | Occupation number:      0.00000000

  Overall HOMO-LUMO gap:      3.89747148 eV.

  Total energy components:
  | Sum of eigenvalues            :        -124.70319434 Ha       -3393.34656963 eV
  | XC energy correction          :         -27.96370931 Ha        -760.93124610 eV
  | XC potential correction       :          35.74547461 Ha         972.68385380 eV
  | Free-atom electrostatic energy:        -107.25559535 Ha       -2918.57324487 eV
  | Hartree energy correction     :          -5.46939182 Ha        -148.82972379 eV
  | van der Waals energy corr.    :           0.00000000 Ha           0.00000000 eV
  | Entropy correction            :           0.00000000 Ha           0.00000000 eV
  | ---------------------------
  | Total energy                  :        -229.64641621 Ha       -6248.99693058 eV
  | Total energy, T -> 0          :        -229.64641621 Ha       -6248.99693058 eV  <-- do not rely on this value for anything but (periodic) metals
  | Electronic free energy        :        -229.64641621 Ha       -6248.99693058 eV

  Derived energy quantities:
  | Kinetic energy                :         229.00278092 Ha        6231.48272325 eV
  | Electrostatic energy          :        -430.68548782 Ha      -11719.54840774 eV
  | Energy correction for multipole
  | error in Hartree potential    :          -0.00492768 Ha          -0.13408906 eV
  | Sum of eigenvalues per atom                           :        -377.03850774 eV
  | Total energy (T->0) per atom                          :        -694.33299229 eV  <-- do not rely on this value for anything but (periodic) metals
  | Electronic free energy per atom                       :        -694.33299229 eV

  Self-consistency convergence accuracy:
  | Change of charge density      : 0.2861E-01
  | Change of sum of eigenvalues  : 0.3813E+01 eV
  | Change of total energy        : 0.5957E-02 eV

  End self-consistency iteration #     5       :  max(cpu_time)    wall_clock(cpu1)
  | Time for this iteration                    :        0.659 s           0.659 s
  | Charge density update                      :        0.214 s           0.214 s
  | Density mixing                             :        0.006 s           0.006 s
  | Hartree multipole update                   :        0.004 s           0.004 s
  | Hartree multipole summation                :        0.119 s           0.119 s
  | Integration                                :        0.299 s           0.299 s
  | Solution of K.-S. eqns.                    :        0.016 s           0.016 s
  | Total energy evaluation                    :        0.000 s           0.001 s
------------------------------------------------------------

------------------------------------------------------------
          Begin self-consistency iteration #    6

  Date     :  20150727, Time     :  123007.794
------------------------------------------------------------
  Evaluating new KS density.
  Integration grid: deviation in total charge (<rho> - N_e) =   1.776357E-14
  Pulay mixing of updated and previous charge densities.

  Evaluating partitioned Hartree potential by multipole expansion.
  | Analytical far-field extrapolation by fixed multipoles:
  | Hartree multipole sum: apparent total charge =  -0.694552E-05
  Summing up the Hartree potential.
  Time summed over all CPUs for potential: real work        0.943 s, elapsed        0.948 s
  | RMS charge density error from multipole expansion :   0.141750E-01

  Integrating Hamiltonian matrix: batch-based integration.
  Time summed over all CPUs for integration: real work        2.313 s, elapsed        2.375 s

  Updating Kohn-Sham eigenvalues, eigenvectors, occupation numbers, and Fermi level.
  Solving generalized eigenproblem
  Updating Kohn-Sham eigenvalues and eigenfunctions.
  Solving real generalised eigenvalue problem by standard LAPACK (fast)
  Determining occupation numbers for Kohn-Sham eigenstates.
  | Chemical potential (Fermi level) in eV                 : -.36332076E+01
  | Error in electron count due to remaining E_F inaccuracy: 0.00000000E+00
  | Maximum occupation number of highest empty state:  0.00E+00

  Highest occupied state (VBM) at     -5.26954264 eV
  | Occupation number:      2.00000000

  Lowest unoccupied state (CBM) at    -1.42129855 eV
  | Occupation number:      0.00000000

  Overall HOMO-LUMO gap:      3.84824409 eV.

  Total energy components:
  | Sum of eigenvalues            :        -124.64688095 Ha       -3391.81420418 eV
  | XC energy correction          :         -27.97155600 Ha        -761.14476545 eV
  | XC potential correction       :          35.75564489 Ha         972.96060105 eV
  | Free-atom electrostatic energy:        -107.25559535 Ha       -2918.57324487 eV
  | Hartree energy correction     :          -5.52812257 Ha        -150.42786891 eV
  | van der Waals energy corr.    :           0.00000000 Ha           0.00000000 eV
  | Entropy correction            :           0.00000000 Ha           0.00000000 eV
  | ---------------------------
  | Total energy                  :        -229.64650999 Ha       -6248.99948236 eV
  | Total energy, T -> 0          :        -229.64650999 Ha       -6248.99948236 eV  <-- do not rely on this value for anything but (periodic) metals
  | Electronic free energy        :        -229.64650999 Ha       -6248.99948236 eV

  Derived energy quantities:
  | Kinetic energy                :         229.01097268 Ha        6231.70563235 eV
  | Electrostatic energy          :        -430.68592667 Ha      -11719.56034926 eV
  | Energy correction for multipole
  | error in Hartree potential    :          -0.00500896 Ha          -0.13630072 eV
  | Sum of eigenvalues per atom                           :        -376.86824491 eV
  | Total energy (T->0) per atom                          :        -694.33327582 eV  <-- do not rely on this value for anything but (periodic) metals
  | Electronic free energy per atom                       :        -694.33327582 eV

  Self-consistency convergence accuracy:
  | Change of charge density      : 0.8275E-02
  | Change of sum of eigenvalues  : 0.1532E+01 eV
  | Change of total energy        : -.2552E-02 eV

  End self-consistency iteration #     6       :  max(cpu_time)    wall_clock(cpu1)
  | Time for this iteration                    :        0.660 s           0.659 s
  | Charge density update                      :        0.215 s           0.215 s
  | Density mixing                             :        0.006 s           0.006 s
  | Hartree multipole update                   :        0.004 s           0.004 s
  | Hartree multipole summation                :        0.119 s           0.119 s
  | Integration                                :        0.298 s           0.298 s
  | Solution of K.-S. eqns.                    :        0.016 s           0.016 s
  | Total energy evaluation                    :        0.001 s           0.001 s
------------------------------------------------------------

------------------------------------------------------------
          Begin self-consistency iteration #    7

  Date     :  20150727, Time     :  123008.454
------------------------------------------------------------
  Evaluating new KS density.
  Integration grid: deviation in total charge (<rho> - N_e) =   7.105427E-15
  Pulay mixing of updated and previous charge densities.

  Evaluating partitioned Hartree potential by multipole expansion.
  | Analytical far-field extrapolation by fixed multipoles:
  | Hartree multipole sum: apparent total charge =  -0.681982E-05
  Summing up the Hartree potential.
  Time summed over all CPUs for potential: real work        0.943 s, elapsed        0.949 s
  | RMS charge density error from multipole expansion :   0.140674E-01

  Integrating Hamiltonian matrix: batch-based integration.
  Time summed over all CPUs for integration: real work        2.310 s, elapsed        2.375 s

  Updating Kohn-Sham eigenvalues, eigenvectors, occupation numbers, and Fermi level.
  Solving generalized eigenproblem
  Updating Kohn-Sham eigenvalues and eigenfunctions.
  Solving real generalised eigenvalue problem by standard LAPACK (fast)
  Determining occupation numbers for Kohn-Sham eigenstates.
  | Chemical potential (Fermi level) in eV                 : -.36780078E+01
  | Error in electron count due to remaining E_F inaccuracy: 0.00000000E+00
  | Maximum occupation number of highest empty state:  0.00E+00

  Highest occupied state (VBM) at     -5.42535079 eV
  | Occupation number:      2.00000000

  Lowest unoccupied state (CBM) at    -1.43778344 eV
  | Occupation number:      0.00000000

  Overall HOMO-LUMO gap:      3.98756736 eV.

  Total energy components:
  | Sum of eigenvalues            :        -124.75328028 Ha       -3394.70947747 eV
  | XC energy correction          :         -27.95864220 Ha        -760.79336287 eV
  | XC potential correction       :          35.73845192 Ha         972.49275663 eV
  | Free-atom electrostatic energy:        -107.25559535 Ha       -2918.57324487 eV
  | Hartree energy correction     :          -5.41731388 Ha        -147.41261105 eV
  | van der Waals energy corr.    :           0.00000000 Ha           0.00000000 eV
  | Entropy correction            :           0.00000000 Ha           0.00000000 eV
  | ---------------------------
  | Total energy                  :        -229.64637979 Ha       -6248.99593963 eV
  | Total energy, T -> 0          :        -229.64637979 Ha       -6248.99593963 eV  <-- do not rely on this value for anything but (periodic) metals
  | Electronic free energy        :        -229.64637979 Ha       -6248.99593963 eV

  Derived energy quantities:
  | Kinetic energy                :         229.03318119 Ha        6232.30995673 eV
  | Electrostatic energy          :        -430.72091879 Ha      -11720.51253349 eV
  | Energy correction for multipole
  | error in Hartree potential    :          -0.00483071 Ha          -0.13145034 eV
  | Sum of eigenvalues per atom                           :        -377.18994194 eV
  | Total energy (T->0) per atom                          :        -694.33288218 eV  <-- do not rely on this value for anything but (periodic) metals
  | Electronic free energy per atom                       :        -694.33288218 eV

  Self-consistency convergence accuracy:
  | Change of charge density      : 0.1112E-01
  | Change of sum of eigenvalues  : -.2895E+01 eV
  | Change of total energy        : 0.3543E-02 eV

  End self-consistency iteration #     7       :  max(cpu_time)    wall_clock(cpu1)
  | Time for this iteration                    :        0.660 s           0.660 s
  | Charge density update                      :        0.215 s           0.214 s
  | Density mixing                             :        0.007 s           0.008 s
  | Hartree multipole update                   :        0.004 s           0.003 s
  | Hartree multipole summation                :        0.119 s           0.120 s
  | Integration                                :        0.298 s           0.297 s
  | Solution of K.-S. eqns.                    :        0.016 s           0.017 s
  | Total energy evaluation                    :        0.000 s           0.001 s
------------------------------------------------------------

------------------------------------------------------------
          Begin self-consistency iteration #    8

  Date     :  20150727, Time     :  123009.115
------------------------------------------------------------
  Evaluating new KS density.
  Integration grid: deviation in total charge (<rho> - N_e) =   7.105427E-15
  Pulay mixing of updated and previous charge densities.

  Evaluating partitioned Hartree potential by multipole expansion.
  | Analytical far-field extrapolation by fixed multipoles:
  | Hartree multipole sum: apparent total charge =  -0.681606E-05
  Summing up the Hartree potential.
  Time summed over all CPUs for potential: real work        0.943 s, elapsed        0.948 s
  | RMS charge density error from multipole expansion :   0.140748E-01

  Integrating Hamiltonian matrix: batch-based integration.
  Time summed over all CPUs for integration: real work        2.311 s, elapsed        2.375 s

  Updating Kohn-Sham eigenvalues, eigenvectors, occupation numbers, and Fermi level.
  Solving generalized eigenproblem
  Updating Kohn-Sham eigenvalues and eigenfunctions.
  Solving real generalised eigenvalue problem by standard LAPACK (fast)
  Determining occupation numbers for Kohn-Sham eigenstates.
  | Chemical potential (Fermi level) in eV                 : -.36782737E+01
  | Error in electron count due to remaining E_F inaccuracy: 0.00000000E+00
  | Maximum occupation number of highest empty state:  0.00E+00

  Highest occupied state (VBM) at     -5.41957276 eV
  | Occupation number:      2.00000000

  Lowest unoccupied state (CBM) at    -1.43857809 eV
  | Occupation number:      0.00000000

  Overall HOMO-LUMO gap:      3.98099467 eV.

  Total energy components:
  | Sum of eigenvalues            :        -124.75435312 Ha       -3394.73867075 eV
  | XC energy correction          :         -27.95849669 Ha        -760.78940355 eV
  | XC potential correction       :          35.73824580 Ha         972.48714778 eV
  | Free-atom electrostatic energy:        -107.25559535 Ha       -2918.57324487 eV
  | Hartree energy correction     :          -5.41617952 Ha        -147.38174358 eV
  | van der Waals energy corr.    :           0.00000000 Ha           0.00000000 eV
  | Entropy correction            :           0.00000000 Ha           0.00000000 eV
  | ---------------------------
  | Total energy                  :        -229.64637889 Ha       -6248.99591497 eV
  | Total energy, T -> 0          :        -229.64637889 Ha       -6248.99591497 eV  <-- do not rely on this value for anything but (periodic) metals
  | Electronic free energy        :        -229.64637889 Ha       -6248.99591497 eV

  Derived energy quantities:
  | Kinetic energy                :         229.03456355 Ha        6232.34757259 eV
  | Electrostatic energy          :        -430.72244575 Ha      -11720.55408401 eV
  | Energy correction for multipole
  | error in Hartree potential    :          -0.00483035 Ha          -0.13144052 eV
  | Sum of eigenvalues per atom                           :        -377.19318564 eV
  | Total energy (T->0) per atom                          :        -694.33287944 eV  <-- do not rely on this value for anything but (periodic) metals
  | Electronic free energy per atom                       :        -694.33287944 eV

  Self-consistency convergence accuracy:
  | Change of charge density      : 0.1335E-02
  | Change of sum of eigenvalues  : -.2919E-01 eV
  | Change of total energy        : 0.2466E-04 eV

  End self-consistency iteration #     8       :  max(cpu_time)    wall_clock(cpu1)
  | Time for this iteration                    :        0.661 s           0.661 s
  | Charge density update                      :        0.215 s           0.214 s
  | Density mixing                             :        0.008 s           0.008 s
  | Hartree multipole update                   :        0.003 s           0.004 s
  | Hartree multipole summation                :        0.119 s           0.119 s
  | Integration                                :        0.297 s           0.298 s
  | Solution of K.-S. eqns.                    :        0.017 s           0.016 s
  | Total energy evaluation                    :        0.000 s           0.000 s
------------------------------------------------------------

------------------------------------------------------------
          Begin self-consistency iteration #    9

  Date     :  20150727, Time     :  123009.776
------------------------------------------------------------
  Evaluating new KS density.
  Integration grid: deviation in total charge (<rho> - N_e) =   2.486900E-14
  Pulay mixing of updated and previous charge densities.

  Evaluating partitioned Hartree potential by multipole expansion.
  | Analytical far-field extrapolation by fixed multipoles:
  | Hartree multipole sum: apparent total charge =  -0.680410E-05
  Summing up the Hartree potential.
  Time summed over all CPUs for potential: real work        0.943 s, elapsed        0.949 s
  | RMS charge density error from multipole expansion :   0.140683E-01

  Integrating Hamiltonian matrix: batch-based integration.
  Time summed over all CPUs for integration: real work        2.311 s, elapsed        2.374 s

  Updating Kohn-Sham eigenvalues, eigenvectors, occupation numbers, and Fermi level.
  Solving generalized eigenproblem
  Updating Kohn-Sham eigenvalues and eigenfunctions.
  Solving real generalised eigenvalue problem by standard LAPACK (fast)
  Determining occupation numbers for Kohn-Sham eigenstates.
  | Chemical potential (Fermi level) in eV                 : -.36808234E+01
  | Error in electron count due to remaining E_F inaccuracy: 0.00000000E+00
  | Maximum occupation number of highest empty state:  0.00E+00

  Highest occupied state (VBM) at     -5.43139753 eV
  | Occupation number:      2.00000000

  Lowest unoccupied state (CBM) at    -1.43982284 eV
  | Occupation number:      0.00000000

  Overall HOMO-LUMO gap:      3.99157469 eV.

  Total energy components:
  | Sum of eigenvalues            :        -124.76150317 Ha       -3394.93323346 eV
  | XC energy correction          :         -27.95757804 Ha        -760.76440565 eV
  | XC potential correction       :          35.73701568 Ha         972.45367468 eV
  | Free-atom electrostatic energy:        -107.25559535 Ha       -2918.57324487 eV
  | Hartree energy correction     :          -5.40871654 Ha        -147.17866535 eV
  | van der Waals energy corr.    :           0.00000000 Ha           0.00000000 eV
  | Entropy correction            :           0.00000000 Ha           0.00000000 eV
  | ---------------------------
  | Total energy                  :        -229.64637741 Ha       -6248.99587466 eV
  | Total energy, T -> 0          :        -229.64637741 Ha       -6248.99587466 eV  <-- do not rely on this value for anything but (periodic) metals
  | Electronic free energy        :        -229.64637741 Ha       -6248.99587466 eV

  Derived energy quantities:
  | Kinetic energy                :         229.03815275 Ha        6232.44523958 eV
  | Electrostatic energy          :        -430.72695212 Ha      -11720.67670859 eV
  | Energy correction for multipole
  | error in Hartree potential    :          -0.00481574 Ha          -0.13104303 eV
  | Sum of eigenvalues per atom                           :        -377.21480372 eV
  | Total energy (T->0) per atom                          :        -694.33287496 eV  <-- do not rely on this value for anything but (periodic) metals
  | Electronic free energy per atom                       :        -694.33287496 eV

  Self-consistency convergence accuracy:
  | Change of charge density      : 0.1033E-02
  | Change of sum of eigenvalues  : -.1946E+00 eV
  | Change of total energy        : 0.4031E-04 eV

  End self-consistency iteration #     9       :  max(cpu_time)    wall_clock(cpu1)
  | Time for this iteration                    :        0.663 s           0.662 s
  | Charge density update                      :        0.216 s           0.215 s
  | Density mixing                             :        0.008 s           0.009 s
  | Hartree multipole update                   :        0.003 s           0.004 s
  | Hartree multipole summation                :        0.120 s           0.119 s
  | Integration                                :        0.297 s           0.298 s
  | Solution of K.-S. eqns.                    :        0.016 s           0.016 s
  | Total energy evaluation                    :        0.000 s           0.001 s
------------------------------------------------------------

------------------------------------------------------------
          Begin self-consistency iteration #   10

  Date     :  20150727, Time     :  123010.439
------------------------------------------------------------
  Evaluating new KS density.
  Integration grid: deviation in total charge (<rho> - N_e) =   1.065814E-14
  Pulay mixing of updated and previous charge densities.

  Evaluating partitioned Hartree potential by multipole expansion.
  | Analytical far-field extrapolation by fixed multipoles:
  | Hartree multipole sum: apparent total charge =  -0.680492E-05
  Summing up the Hartree potential.
  Time summed over all CPUs for potential: real work        0.943 s, elapsed        0.949 s
  | RMS charge density error from multipole expansion :   0.140770E-01

  Integrating Hamiltonian matrix: batch-based integration.
  Time summed over all CPUs for integration: real work        2.306 s, elapsed        2.370 s

  Updating Kohn-Sham eigenvalues, eigenvectors, occupation numbers, and Fermi level.
  Solving generalized eigenproblem
  Updating Kohn-Sham eigenvalues and eigenfunctions.
  Solving real generalised eigenvalue problem by standard LAPACK (fast)
  Determining occupation numbers for Kohn-Sham eigenstates.
  | Chemical potential (Fermi level) in eV                 : -.36803367E+01
  | Error in electron count due to remaining E_F inaccuracy: 0.00000000E+00
  | Maximum occupation number of highest empty state:  0.00E+00

  Highest occupied state (VBM) at     -5.42892729 eV
  | Occupation number:      2.00000000

  Lowest unoccupied state (CBM) at    -1.43968436 eV
  | Occupation number:      0.00000000

  Overall HOMO-LUMO gap:      3.98924293 eV.

  Total energy components:
  | Sum of eigenvalues            :        -124.75935912 Ha       -3394.87489103 eV
  | XC energy correction          :         -27.95784237 Ha        -760.77159846 eV
  | XC potential correction       :          35.73735643 Ha         972.46294693 eV
  | Free-atom electrostatic energy:        -107.25559535 Ha       -2918.57324487 eV
  | Hartree energy correction     :          -5.41093703 Ha        -147.23908799 eV
  | van der Waals energy corr.    :           0.00000000 Ha           0.00000000 eV
  | Entropy correction            :           0.00000000 Ha           0.00000000 eV
  | ---------------------------
  | Total energy                  :        -229.64637743 Ha       -6248.99587541 eV
  | Total energy, T -> 0          :        -229.64637743 Ha       -6248.99587541 eV  <-- do not rely on this value for anything but (periodic) metals
  | Electronic free energy        :        -229.64637743 Ha       -6248.99587541 eV

  Derived energy quantities:
  | Kinetic energy                :         229.03940379 Ha        6232.47928210 eV
  | Electrostatic energy          :        -430.72793885 Ha      -11720.70355905 eV
  | Energy correction for multipole
  | error in Hartree potential    :          -0.00481843 Ha          -0.13111625 eV
  | Sum of eigenvalues per atom                           :        -377.20832123 eV
  | Total energy (T->0) per atom                          :        -694.33287505 eV  <-- do not rely on this value for anything but (periodic) metals
  | Electronic free energy per atom                       :        -694.33287505 eV

  Self-consistency convergence accuracy:
  | Change of charge density      : 0.4008E-03
  | Change of sum of eigenvalues  : 0.5834E-01 eV
  | Change of total energy        : -.7574E-06 eV

[...]
  |   Hirshfeld volume        :     19.78684489
  |   Hirshfeld dipole vector :      0.02979020      -0.00642254      -0.01573054
  |   Hirshfeld dipole moment :      0.03429511
  |   Hirshfeld second moments:      0.05277159       0.01911064       0.02821672
  |                                  0.01911064       0.09841463       0.01308415
  |                                  0.02821672       0.01308415       0.11404585
  ----------------------------------------------------------------------
  | Atom     5: H
  |   Hirshfeld charge        :      0.18617719
  |   Free atom volume        :     10.44207651
  |   Hirshfeld volume        :      5.88652873
  |   Hirshfeld dipole vector :      0.05383725       0.09293184       0.04253656
  |   Hirshfeld dipole moment :      0.11551681
  |   Hirshfeld second moments:      0.11402426      -0.00442290      -0.00375888
  |                                 -0.00442290       0.12831849      -0.00448676
  |                                 -0.00375888      -0.00448676       0.14539831
  ----------------------------------------------------------------------
  | Atom     6: H
  |   Hirshfeld charge        :      0.17798544
  |   Free atom volume        :     10.44207651
  |   Hirshfeld volume        :      5.50517948
  |   Hirshfeld dipole vector :     -0.01831899       0.00981151      -0.12088783
  |   Hirshfeld dipole moment :      0.12266099
  |   Hirshfeld second moments:      0.13092728       0.01046680       0.00766026
  |                                  0.01046680       0.14566644       0.00509058
  |                                  0.00766026       0.00509058       0.13237732
  ----------------------------------------------------------------------
  | Atom     7: O
  |   Hirshfeld charge        :     -0.29385812
  |   Free atom volume        :     23.95238533
  |   Hirshfeld volume        :     21.45685099
  |   Hirshfeld dipole vector :      0.00789295       0.00383924       0.05779818
  |   Hirshfeld dipole moment :      0.05846082
  |   Hirshfeld second moments:      0.05671212       0.05728318      -0.01605007
  |                                  0.05728318       0.00175706      -0.00320813
  |                                 -0.01605007      -0.00320813       0.01976594
  ----------------------------------------------------------------------
  | Atom     8: H
  |   Hirshfeld charge        :      0.15259678
  |   Free atom volume        :     10.44207651
  |   Hirshfeld volume        :      6.06191511
  |   Hirshfeld dipole vector :      0.10143628       0.06696565       0.03771193
  |   Hirshfeld dipole moment :      0.12726314
  |   Hirshfeld second moments:      0.12150381       0.01233342      -0.01361632
  |                                  0.01233342       0.10834409      -0.00592938
  |                                 -0.01361632      -0.00592938       0.12527777
  ----------------------------------------------------------------------
  | Atom     9: H
  |   Hirshfeld charge        :      0.15069534
  |   Free atom volume        :     10.44207651
  |   Hirshfeld volume        :      6.24516315
  |   Hirshfeld dipole vector :     -0.07671613      -0.04117234       0.09044461
  |   Hirshfeld dipole moment :      0.12554184
  |   Hirshfeld second moments:      0.12364774       0.01181521       0.00378538
  |                                  0.01181521       0.10734497       0.00324449
  |                                  0.00378538       0.00324449       0.11566785
  ----------------------------------------------------------------------


  Total energy components:
  | Sum of eigenvalues            :        -124.75994892 Ha       -3394.89094025 eV
  | XC energy correction          :         -27.95777382 Ha        -760.76973328 eV
  | XC potential correction       :          35.73726437 Ha         972.46044163 eV
  | Free-atom electrostatic energy:        -107.25559535 Ha       -2918.57324487 eV
  | Hartree energy correction     :          -5.41032357 Ha        -147.22239503 eV
  | van der Waals energy corr.    :          -0.00075564 Ha          -0.02056196 eV
  | Entropy correction            :           0.00000000 Ha           0.00000000 eV
  | ---------------------------
  | Total energy                  :        -229.64713294 Ha       -6249.01643377 eV
  | Total energy, T -> 0          :        -229.64713294 Ha       -6249.01643377 eV  <-- do not rely on this value for anything but (periodic) metals
  | Electronic free energy        :        -229.64713294 Ha       -6249.01643377 eV

  Derived energy quantities:
  | Kinetic energy                :         229.03962747 Ha        6232.48536885 eV
  | Electrostatic energy          :        -430.72823095 Ha      -11720.71150738 eV
  | Energy correction for multipole
  | error in Hartree potential    :          -0.00481816 Ha          -0.13110871 eV
  | Sum of eigenvalues per atom                           :        -377.21010447 eV
  | Total energy (T->0) per atom                          :        -694.33515931 eV  <-- do not rely on this value for anything but (periodic) metals
  | Electronic free energy per atom                       :        -694.33515931 eV

  atomic forces [eV/Ang]:
  -----------------------
  atom #    1
   Hellmann-Feynman + Multipole  : -.699903E+01 -.110408E+02 0.282344E+01
   Pulay + GGA                   : 0.771500E+01 0.135962E+02 -.363537E+01
   Van der Waals               : 0.350488E-02 -.655387E-03 0.329685E-02
   ----------------------------------------------------------------
   Total forces(   1)            : 0.719480E+00 0.255478E+01 -.808637E+00
  atom #    2
   Hellmann-Feynman + Multipole  : 0.183937E+01 -.293024E+01 0.125577E+01
   Pulay + GGA                   : -.862588E-02 0.598435E-01 -.279625E-01
   Van der Waals               : 0.159787E-02 0.544833E-03 0.174506E-02
   ----------------------------------------------------------------
   Total forces(   2)            : 0.183235E+01 -.286985E+01 0.122956E+01
  atom #    3
   Hellmann-Feynman + Multipole  : -.218741E+01 -.480334E+00 -.122748E+00
   Pulay + GGA                   : 0.119653E+00 0.421392E-01 0.186816E-02
   Van der Waals               : 0.168392E-02 0.256687E-02 0.237322E-02
   ----------------------------------------------------------------
   Total forces(   3)            : -.206607E+01 -.435628E+00 -.118507E+00
  atom #    4
   Hellmann-Feynman + Multipole  : -.617463E+01 -.886559E+01 0.920199E+01
   Pulay + GGA                   : 0.639180E+01 0.981019E+01 -.662281E+01
   Van der Waals               : -.183818E-02 0.361046E-02 -.110478E-03
   ----------------------------------------------------------------
   Total forces(   4)            : 0.215331E+00 0.948209E+00 0.257907E+01
  atom #    5
   Hellmann-Feynman + Multipole  : -.418356E+00 -.736736E+00 -.419117E+00
   Pulay + GGA                   : 0.494244E-01 0.119460E+00 0.344540E-01
   Van der Waals               : 0.212555E-02 0.106554E-02 0.160073E-02
   ----------------------------------------------------------------
   Total forces(   5)            : -.366806E+00 -.616210E+00 -.383063E+00
  atom #    6
   Hellmann-Feynman + Multipole  : -.249903E+00 0.399101E+00 -.231011E+01
   Pulay + GGA                   : -.373592E-01 0.399914E-01 -.128559E+00
   Van der Waals               : 0.786955E-03 -.388270E-03 0.483365E-03
   ----------------------------------------------------------------
   Total forces(   6)            : -.286475E+00 0.438704E+00 -.243819E+01
  atom #    7
   Hellmann-Feynman + Multipole  : -.197786E+01 -.347809E+01 -.169241E+02
   Pulay + GGA                   : 0.270293E+01 0.386666E+01 0.153391E+02
   Van der Waals               : -.536639E-02 -.404693E-02 -.526210E-02
   ----------------------------------------------------------------
   Total forces(   7)            : 0.719701E+00 0.384523E+00 -.159025E+01
  atom #    8
   Hellmann-Feynman + Multipole  : -.519768E+00 -.317349E+00 0.321187E+00
   Pulay + GGA                   : 0.101038E+00 0.764284E-01 0.589354E-01
   Van der Waals               : -.686729E-03 -.596703E-03 -.682245E-03
   ----------------------------------------------------------------
   Total forces(   8)            : -.419416E+00 -.241517E+00 0.379440E+00
  atom #    9
   Hellmann-Feynman + Multipole  : -.253515E+00 -.124155E+00 0.104973E+01
   Pulay + GGA                   : -.898308E-01 -.388942E-01 0.101194E+00
   Van der Waals               : -.180788E-02 -.210042E-02 -.344441E-02
   ----------------------------------------------------------------
   Total forces(   9)            : -.345153E+00 -.165150E+00 0.114748E+01
  Timings for vdw_correction_hirshfeld (Tkatchenko-Scheffler 2009):
  | CPU time:        1.758 s, Wall clock time:        1.760 s.
  Removing unitary transformations (pure translations, rotations) from forces on atoms.
  Atomic forces before filtering:
  | Net force on center of mass :  0.293598E-02 -.213695E-02 -.309430E-02 eV/A
  | Net torque on center of mass:  0.102745E-01 -.143528E-01 0.165406E-02 eV
  Atomic forces after filtering:
  | Net force on center of mass :  0.000000E+00 0.178406E-15 -.356812E-15 eV/A
  | Net torque on center of mass:  -.165215E-14 0.151054E-14 -.236021E-16 eV
 
  Energy and forces in a compact form:
  | Total energy uncorrected      :         -0.624901643377107E+04 eV
  | Total energy corrected        :         -0.624901643377107E+04 eV  <-- do not rely on this value for anything but (periodic) metals
  | Electronic free energy        :         -0.624901643377107E+04 eV
  Total atomic forces (unitary forces cleaned) [eV/Ang]:
  |   1          0.718560814192507E+00          0.255493728370953E+01         -0.807347478674231E+00
  |   2          0.183153774383045E+01         -0.286973471764846E+01          0.123060165792753E+01
  |   3         -0.206691065763907E+01         -0.435695327823826E+00         -0.117626993944440E+00
  |   4          0.214700020941550E+00          0.948321049145163E+00          0.257980285535775E+01
  |   5         -0.367134055978605E+00         -0.616057670147955E+00         -0.382818414930209E+00
  |   6         -0.287343013196382E+00          0.438454585660091E+00         -0.243747557128305E+01
  |   7          0.720064879056304E+00          0.385027187805247E+00         -0.159080426682886E+01
  |   8         -0.418824262843637E+00         -0.241053485789788E+00          0.378439627438917E+00
  |   9         -0.344651468363117E+00         -0.164198904910002E+00          0.114722858493659E+01
 
  ------------------------------------ 
  Start decomposition of the XC Energy 
  ------------------------------------ 
  Hartree-Fock part   :          0.000000000 Ha              0.000000000 eV
  ------------------------------------ 
  X Energy            :        -26.979244146 Ha           -734.142585973 eV
  C Energy GGA        :         -0.978529678 Ha            -26.627147311 eV
  Total XC Energy     :        -27.957773824 Ha           -760.769733284 eV
  LDA X and C from self-consistent density 
  X Energy LDA        :        -24.304475120 Ha           -661.358417549 eV
  C Energy LDA        :         -1.978617144 Ha            -53.840911893 eV
  ------------------------------------ 
  End decomposition of the XC Energy 
  ------------------------------------ 
  Performing Hirshfeld analysis of fragment charges and moments.
  ----------------------------------------------------------------------
  | Atom     1: O
  |   Hirshfeld charge        :     -0.37346054
  |   Free atom volume        :     23.95238533
  |   Hirshfeld volume        :     24.22673629
  |   Hirshfeld dipole vector :      0.02612323       0.06600829      -0.01613742
  |   Hirshfeld dipole moment :      0.07280065
  |   Hirshfeld second moments:      0.01772299      -0.01846800       0.02637409
  |                                 -0.01846800      -0.06426565      -0.02085941
  |                                  0.02637409      -0.02085941      -0.10743763
  ----------------------------------------------------------------------
  | Atom     2: H
  |   Hirshfeld charge        :      0.07006319
  |   Free atom volume        :     10.44207651
  |   Hirshfeld volume        :      8.32713704
  |   Hirshfeld dipole vector :     -0.02267250       0.03851735      -0.01793630
  |   Hirshfeld dipole moment :      0.04815952
  |   Hirshfeld second moments:      0.07498913       0.02954281      -0.00113455
  |                                  0.02954281       0.02898131       0.01502093
  |                                 -0.00113455       0.01502093       0.06193289
  ----------------------------------------------------------------------
  | Atom     3: H
  |   Hirshfeld charge        :      0.10172943
  |   Free atom volume        :     10.44207651
  |   Hirshfeld volume        :      7.76832306
  |   Hirshfeld dipole vector :      0.11370814       0.02512333       0.00518145
  |   Hirshfeld dipole moment :      0.11656573
  |   Hirshfeld second moments:      0.08593190      -0.01917032       0.00149553
  |                                 -0.01917032       0.07989870      -0.01411970
  |                                  0.00149553      -0.01411970       0.06801502
  ----------------------------------------------------------------------
  | Atom     4: O
  |   Hirshfeld charge        :     -0.17191219
  |   Free atom volume        :     23.95238533
  |   Hirshfeld volume        :     19.78684489
  |   Hirshfeld dipole vector :      0.02979020      -0.00642254      -0.01573054
  |   Hirshfeld dipole moment :      0.03429511
  |   Hirshfeld second moments:      0.05277159       0.01911064       0.02821672
  |                                  0.01911064       0.09841463       0.01308415
  |                                  0.02821672       0.01308415       0.11404585
  ----------------------------------------------------------------------
  | Atom     5: H
  |   Hirshfeld charge        :      0.18617719
  |   Free atom volume        :     10.44207651
  |   Hirshfeld volume        :      5.88652873
  |   Hirshfeld dipole vector :      0.05383725       0.09293184       0.04253656
  |   Hirshfeld dipole moment :      0.11551681
  |   Hirshfeld second moments:      0.11402426      -0.00442290      -0.00375888
  |                                 -0.00442290       0.12831849      -0.00448676
  |                                 -0.00375888      -0.00448676       0.14539831
  ----------------------------------------------------------------------
  | Atom     6: H
  |   Hirshfeld charge        :      0.17798544
  |   Free atom volume        :     10.44207651
  |   Hirshfeld volume        :      5.50517948
  |   Hirshfeld dipole vector :     -0.01831899       0.00981151      -0.12088783
  |   Hirshfeld dipole moment :      0.12266099
  |   Hirshfeld second moments:      0.13092728       0.01046680       0.00766026
  |                                  0.01046680       0.14566644       0.00509058
  |                                  0.00766026       0.00509058       0.13237732
  ----------------------------------------------------------------------
  | Atom     7: O
  |   Hirshfeld charge        :     -0.29385812
  |   Free atom volume        :     23.95238533
  |   Hirshfeld volume        :     21.45685099
  |   Hirshfeld dipole vector :      0.00789295       0.00383924       0.05779818
  |   Hirshfeld dipole moment :      0.05846082
  |   Hirshfeld second moments:      0.05671212       0.05728318      -0.01605007
  |                                  0.05728318       0.00175706      -0.00320813
  |                                 -0.01605007      -0.00320813       0.01976594
  ----------------------------------------------------------------------
  | Atom     8: H
  |   Hirshfeld charge        :      0.15259678
  |   Free atom volume        :     10.44207651
  |   Hirshfeld volume        :      6.06191511
  |   Hirshfeld dipole vector :      0.10143628       0.06696565       0.03771193
  |   Hirshfeld dipole moment :      0.12726314
  |   Hirshfeld second moments:      0.12150381       0.01233342      -0.01361632
  |                                  0.01233342       0.10834409      -0.00592938
  |                                 -0.01361632      -0.00592938       0.12527777
  ----------------------------------------------------------------------
  | Atom     9: H
  |   Hirshfeld charge        :      0.15069534
  |   Free atom volume        :     10.44207651
  |   Hirshfeld volume        :      6.24516315
  |   Hirshfeld dipole vector :     -0.07671613      -0.04117234       0.09044461
  |   Hirshfeld dipole moment :      0.12554184
  |   Hirshfeld second moments:      0.12364774       0.01181521       0.00378538
  |                                  0.01181521       0.10734497       0.00324449
  |                                  0.00378538       0.00324449       0.11566785
  ----------------------------------------------------------------------


------------------------------------------------------------------------------
  Final output of selected total energy values:

  The following output summarizes some interesting total energy values
  at the end of a run (AFTER all relaxation, molecular dynamics, etc.).

  | Total energy of the DFT / Hartree-Fock s.c.f. calculation      :          -6249.016433771 eV
  | Final zero-broadening corrected energy (caution - metals only) :          -6249.016433771 eV
  | For reference only, the value of 1 Hartree used in FHI-aims is :             27.211384500 eV

  Before relying on these values, please be sure to understand exactly which
  total energy value is referred to by a given number. Different objects may
  all carry the same name 'total energy'. Definitions:

  Total energy of the DFT / Hartree-Fock s.c.f. calculation:
  | Note that this energy does not include ANY quantities calculated after the
  | s.c.f. cycle, in particular not ANY RPA, MP2, etc. many-body perturbation terms.

  Final zero-broadening corrected energy:
  | For metallic systems only, a broadening of the occupation numbers at the Fermi
  | level can be extrapolated back to zero broadening by an electron-gas inspired
  | formula. For all systems that are not real metals, this value can be
  | meaningless and should be avoided.

------------------------------------------------------------------------------

------------------------------------------------------------
          Leaving FHI-aims.
          Date     :  20150727, Time     :  123015.787

          Computational steps:
          | Number of self-consistency cycles          :           15

          Detailed time accounting                     :  max(cpu_time)    wall_clock(cpu1)
          | Total time                                 :       12.534 s          12.589 s
          | Preparation time                           :        0.173 s           0.518 s
          | Grid partitioning                          :        0.090 s           0.090 s
          | Preloading free-atom quantities on grid    :        0.013 s           0.013 s
          | Free-atom superposition energy             :        0.030 s           0.030 s
          | Total time for integrations                :        4.937 s           4.940 s
          | Total time for solution of K.-S. equations :        0.309 s           0.309 s
          | Total time for density & force components  :        4.130 s           4.120 s
          | Total time for mixing                      :        0.108 s           0.113 s
          | Total time for Hartree multipole update    :        0.057 s           0.056 s
          | Total time for Hartree multipole sum       :        2.178 s           2.180 s
          | Total time for total energy evaluation     :        0.003 s           0.017 s
          | Total time for scaled ZORA corrections     :        0.000 s           0.000 s
          | Total time for TS (2009) vdW correction    :        0.024 s           0.026 s

          Have a nice day.
------------------------------------------------------------
