  MPI-parallelism will be employed.
------------------------------------------------------------
          Invoking FHI-aims ...
          Version 081213
          Compiled on 2013/08/29 at 17:41:06 on host generoso.

          When using FHI-aims, please cite the following reference:

          Volker Blum, Ralf Gehrke, Felix Hanke, Paula Havu,
          Ville Havu, Xinguo Ren, Karsten Reuter, and Matthias Scheffler,
          'Ab Initio Molecular Simulations with Numeric Atom-Centered Orbitals: FHI-aims',
          Computer Physics Communications 180, 2175-2196 (2009)

          For any questions about FHI-aims, please visit the aimsclub website
          with its forums and wiki. Contributions to both the forums and the
          wiki are warmly encouraged - they are for you, and everyone is welcome there.

------------------------------------------------------------

  Date     :  20150727, Time     :  123707.704
  Time zero on CPU 1             :   0.369930000000000E-01  s.
  Internal wall clock time zero  :           207232627.704  s.

  Using        8 parallel tasks.
  Task        0 on host gen60 reporting.
  Task        1 on host gen60 reporting.
  Task        2 on host gen60 reporting.
  Task        3 on host gen60 reporting.
  Task        4 on host gen60 reporting.
  Task        5 on host gen60 reporting.
  Task        6 on host gen60 reporting.
  Task        7 on host gen60 reporting.

  Performing system and environment tests:
  | Environment variable OMP_NUM_THREADS correctly set to 1.
  | Checking for scalapack...
  | No scalapack compiled in.

  Obtaining array dimensions for all initial allocations:
  
  -----------------------------------------------------------------------
  Parsing control.in (first pass over file, find array dimensions only).
  The contents of control.in will be repeated verbatim below
  unless switched off by setting 'verbatim_writeout .false.' .
  in the first line of control.in .
  -----------------------------------------------------------------------
  
  #########################################################################################
  #
  #  Volker Blum, FHI 2008 : Test run input file control.in
  #
  #########################################################################################
  #
  #  Physical model
  #
    xc                 rpbe
    spin               none
    relativistic       atomic_zora scalar
    charge             0.
   vdw_correction_hirshfeld
  #
  #  SCF convergence
  #
    occupation_type    gaussian 0.01
    mixer              pulay
      n_max_pulay        10
      charge_mix_param   0.1
    sc_accuracy_rho    5E-5
    sc_accuracy_eev    5E-3
    sc_accuracy_etot   5E-6
    sc_iter_limit      3000
  #
  #  Eigenvalue solver
  #
    KS_method          lapack
      empty_states       8
      basis_threshold    0.e-5
  #
  #  Efficiency
  #
  #   all previous settings are now default, except stratmann still
  #   undecided. Continue to handle stratmann with care, if at all.
  #
  #  partition_type stratmann
    partition_type rho_r2
  #  hartree_partition_type stratmann
  #
  #  Oprions for large clusters (100's of atoms: memory saving / better scaling)
  #
  # for periodic systems:
  #
    density_update_method orbital
    packed_matrix_format none
  #  k_grid 6 6 6
  #  output k_eigenvalue 1
  #  distributed_spline_storage .true.
  #
  #  Relaxation
  #
  #  relax_geometry   bfgs 5.e-3
    sc_accuracy_forces 5.E-4
    final_forces_cleaned .true.
  #
  #  Output options
  #
  #  output mulliken
    output Hirshfeld
  #  output dipole
  
  #harmonic_length_scale 0.001
  
  ################################################################################
  #
  #  FHI-aims code project
  #  VB, Fritz-Haber Institut, 2007
  #
  #  Suggested "safe" defaults for H atom (to be pasted into control.in file)
  #  Basis constructed for a non-relativistic H2 molecule using the
  #  PW-LDA functional.
  #
  ################################################################################
    species        H
  #     global species definitions
      nucleus             1
      cut_pot             4.0  2.0  1.0
      cut_free_atom       finite 8.0
      logarithmic         0.00010000 100.00  1.0123
      basis_dep_cutoff    1d-4  # 1d-4 is safe default - please check 5d-4 if you wish!
      radial_base         24 7.0
      radial_multiplier   2
      angular_grids       specified
        division   0.2783  110
        division   0.3822  194
        division   0.5626  302
  #      division   0.5922  434
  #      division   0.6227  590
  #      division   0.7206  770
        outer_grid  302
      l_hartree           4
  ################################################################################
  #
  #  Definition of "minimal" basis
  #
  ################################################################################
  #     valence basis states
      valence      1  s   1.
  #     ion occupancy
      ion_occ      1  s   0.5
  ################################################################################
  #
  #  Suggested additional basis functions. For production calculations,
  #  uncomment them one after another (the most important basis functions are
  #  listed first).
  #
  ################################################################################
  #  "First tier" - improvements: -1014.90 meV to -62.69 meV
       hydro 2 s 2.1
       hydro 2 p 3.5
  #  "Second tier" - improvements: -12.89 meV to -1.83 meV
       hydro 1 s 0.85
       hydro 2 p 3.7
       hydro 2 s 1.2
       hydro 3 d 7
  #  "Third tier" - improvements: -0.25 meV to -0.12 meV
  #     hydro 4 f 11.2
  #     hydro 3 p 4.8
  #     hydro 4 d 9
  #     hydro 3 s 3.2
  
  ################################################################################
  #
  #  FHI-aims code project
  #  VB, Fritz-Haber Institut, 2007
  #
  #  Suggested "safe" defaults for O atom (to be pasted into control.in file)
  #  All values have been tested for a non-relativistic, non-spinpolarized O2
  #  molecule using the PW-LDA functional. Validity for PBE is expected.
  #
  #  Constructed for dimers: 1.0 A, 1.208 A, 1.5 A, 2.0 A, 3.0 A
  #
  ################################################################################
    species        O
  #     global species definitions
      nucleus             8
      mass                15.9994
      l_hartree           4
      cut_pot             4.0  2.0  1.0
      cut_free_atom       finite 8.0
      basis_dep_cutoff    1d-4  # 1d-4 is safe default - please check 5d-4 if you wish!
      logarithmic         0.00010000 100.00  1.0123
      radial_base         36 7.0
      radial_multiplier   2
       angular_grids specified
        division   0.4087  110
        division   0.5181  194
        division   0.6184  302
  #      division   0.7315  434
  #      division   0.7934  590
  #      division   0.9656  770
  #      division   1.4041  974
  #      outer_grid 974
        outer_grid 302
  ################################################################################
  #
  #  Definition of "minimal" basis
  #
  ################################################################################
  #     valence basis states
      valence      2  s   2.
      valence      2  p   4.
  #     ion occupancy
      ion_occ      2  s   1.
      ion_occ      2  p   3.
  ################################################################################
  #
  #  Suggested additional basis functions. For production calculations,
  #  uncomment them one after another (the most important basis functions are
  #  listed first).
  #
  ################################################################################
  #  "First tier" - improvements: -699.05 meV to -159.38 meV
       hydro 2 p 1.8
       hydro 3 d 7.6
       hydro 3 s 6.4
  #  "Second tier" - improvements: -49.91 meV to -5.39 meV
       hydro 4 f 11.6
       hydro 3 p 6.2
       hydro 3 d 5.6
       hydro 5 g 17.6
       hydro 1 s 0.75
  #  "Third tier" - improvements: -2.83 meV to -0.50 meV
  #     ionic 2 p auto
  #     hydro 4 f 10.8
  #     hydro 4 d 4.7
  #     hydro 2 s 6.8
  #  "Fourth tier" - improvements: -0.40 meV to -0.12 meV
  #     hydro 3 p 5
  #     hydro 3 s 3.3
  #     hydro 5 g 15.6
  #     hydro 4 f 17.6
  #     hydro 4 d 14
  # Further basis functions - -0.08 meV and below
  #     hydro 3 s 2.1
  #     hydro 4 d 11.6
  #     hydro 3 p 16
  #     hydro 2 s 17.2
  
  
  -----------------------------------------------------------------------
  Completed first pass over input file control.in .
  -----------------------------------------------------------------------
  
  
  -----------------------------------------------------------------------
  Parsing geometry.in (first pass over file, find array dimensions only).
  The contents of geometry.in will be repeated verbatim below
  unless switched off by setting 'verbatim_writeout .false.' .
  in the first line of geometry.in .
  -----------------------------------------------------------------------
  
  atom      -4.053030000      0.065001000     -1.525160000  O
  atom      -4.566710000      0.974813000     -1.912820000  H
  atom      -3.067820000      0.330172000     -1.477310000  H
  atom      -1.645860000      0.870179000     -1.502250000  O
  atom      -1.568890000      1.501730000     -0.721051000  H
  atom      -0.824432000      0.282220000     -1.377720000  H
  atom      -4.066610000      4.258280000     -0.900064000  O
  atom      -3.224110000      3.876870000     -0.569443000  H
  atom      -3.737450000      5.116530000     -1.322720000  H
  atom      -5.628340000      3.730740000      1.385610000  O
  atom      -6.090650000      4.418470000      1.860350000  H
  atom      -5.158540000      4.200260000      0.615875000  H
  
  -----------------------------------------------------------------------
  Completed first pass over input file geometry.in .
  -----------------------------------------------------------------------
  
 
  Basic array size parameters: 
  | Number of species                 :        2
  | Number of atoms                   :       12
  | Max. basis fn. angular momentum   :        4
  | Max. atomic/ionic basis occupied n:        2
  | Max. number of basis fn. types    :        2
  | Max. radial fns per species/type  :        8
  | Max. logarithmic grid size        :     1301
  | Max. radial integration grid size :       73
  | Max. angular integration grid size:      302
  | Max. angular grid division number :        8
  | Radial grid for Hartree potential :     1301
  | Number of spin channels           :        1

------------------------------------------------------------
          Reading file control.in.
------------------------------------------------------------
  XC: Using RPBE gradient-corrected functionals.
  Spin treatment: No spin polarisation.
  Scalar relativistic treatment of kinetic energy: on-site free-atom approximation to ZORA.
  Charge =   0.000000E+00: Neutral system requested explicitly.
  Using non-empirical van der Waals correction (Hirshfeld partitioning):
  Occupation type: Gaussian broadening, width =   0.100000E-01 eV.
  Using pulay charge density mixing.
  Pulay mixing - number of memorized iterations:   10
  Charge density mixing - mixing parameter:     0.1000
  Convergence accuracy of self-consistent charge density: 0.5000E-04
  Convergence accuracy of sum of eigenvalues: 0.5000E-02
  Convergence accuracy of total energy: 0.5000E-05
  Maximum number of s.-c. iterations  :  3000
  Kohn-Sham eigenvalues and eigenfunctions calculated by lapack diagonalisation (D&C).
  Number of empty states per atom:        8
  Threshold for basis singularities: 0.0000E+00
  Partition function in integrals calculations: rho / r^2
 Using packed matrix format           0
  Convergence accuracy of forces: 0.5000E-03
  Cleaning forces before final output.
  Hirshfeld charge analysis will be performed.
 
  Reading configuration options for species H                   .
  | Found nuclear charge :   1.0000
  | Found cutoff potl. onset [A], width [A], scale factor :    4.00000    2.00000    1.00000
  | Found cutoff specification for free atom: Cutoff potential begins at    8.00000 A.
  | Found logarithmic grid data [bohr] : 0.1000E-03 0.1000E+03 0.1012E+01
  | Threshold for basis-dependent cutoff potential is   0.100000E-03
  | Found data for basic radial integration grid :    24 points, outermost radius =    7.000 A
  | Found multiplier for basic radial grid :   2
  | Found angular grid specification: user-specified.
  | Specified grid contains     4 separate shells.
  | Check grid settings after all constraints further below.
  | Found l_max for Hartree potential  :   4
  | Found free-atom valence shell :  1 s   1.000
  | No ionic wave fns used. Skipping ion_occ.
  | Found hydrogenic basis function :  2 s   2.100
  | Found hydrogenic basis function :  2 p   3.500
  | Found hydrogenic basis function :  1 s   0.850
  | Found hydrogenic basis function :  2 p   3.700
  | Found hydrogenic basis function :  2 s   1.200
  | Found hydrogenic basis function :  3 d   7.000
  Species H                   : Missing cutoff potential type.
  Defaulting to exp(1/x)/(1-x)^2 type cutoff potential.
  Species H : On-site basis accuracy parameter (for Gram-Schmidt orthonormalisation) not specified.
  Using default value basis_acc =  0.1000000E-03.
  Species H                   : Using default innermost maximum threshold i_radial=  2 for radial functions.
  Species H                   : Basic radial grid will be enhanced according to radial_multiplier =   2, to contain    49 grid points.
 
  Reading configuration options for species O                   .
  | Found nuclear charge :   8.0000
  | Found atomic mass :    15.9994000000000      amu
  | Found l_max for Hartree potential  :   4
  | Found cutoff potl. onset [A], width [A], scale factor :    4.00000    2.00000    1.00000
  | Found cutoff specification for free atom: Cutoff potential begins at    8.00000 A.
  | Threshold for basis-dependent cutoff potential is   0.100000E-03
  | Found logarithmic grid data [bohr] : 0.1000E-03 0.1000E+03 0.1012E+01
  | Found data for basic radial integration grid :    36 points, outermost radius =    7.000 A
  | Found multiplier for basic radial grid :   2
  | Found angular grid specification: user-specified.
  | Specified grid contains     4 separate shells.
  | Check grid settings after all constraints further below.
  | Found free-atom valence shell :  2 s   2.000
  | Found free-atom valence shell :  2 p   4.000
  | No ionic wave fns used. Skipping ion_occ.
  | No ionic wave fns used. Skipping ion_occ.
  | Found hydrogenic basis function :  2 p   1.800
  | Found hydrogenic basis function :  3 d   7.600
  | Found hydrogenic basis function :  3 s   6.400
  | Found hydrogenic basis function :  4 f  11.600
  | Found hydrogenic basis function :  3 p   6.200
  | Found hydrogenic basis function :  3 d   5.600
  | Found hydrogenic basis function :  5 g  17.600
  | Found hydrogenic basis function :  1 s   0.750
  Species O                   : Missing cutoff potential type.
  Defaulting to exp(1/x)/(1-x)^2 type cutoff potential.
  Species O : On-site basis accuracy parameter (for Gram-Schmidt orthonormalisation) not specified.
  Using default value basis_acc =  0.1000000E-03.
  Species O                   : Using default innermost maximum threshold i_radial=  2 for radial functions.
  Species O                   : Basic radial grid will be enhanced according to radial_multiplier =   2, to contain    73 grid points.
 
  Finished reading input file 'control.in'. Consistency checks are next.
 
  Target number of points in a grid batch is not set. Defaulting to  100
  Method for grid partitioning is not set. Defaulting to parallel hash+maxmin partitioning.
  Batch size limit is not set. Defaulting to    200
  By default, will store active basis functions for each batch.
  If in need of memory, prune_basis_once .false. can be used to disable this option.
  communication_type for Hartree potential was not specified.
  Defaulting to calc_hartree .
  Pulay mixer: Number of initial linear mixing iterations not set.
  Defaulting to    0 iterations.
  Work space size for distributed Hartree potential not set.
  Defaulting to   0.200000E+03 MB.
  Algorithm-dependent basis array size parameters:
  | n_max_pulay                         :       10
  Geometry relaxation not requested: no relaxation will be performed.
  Handling of forces: Unphysical translation and rotation will be removed from forces.
  No accuracy limit for integral partition fn. given. Defaulting to 0.1000E-14.
  No threshold value for u(r) in integrations given. Defaulting to 0.1000E-05.
  No accuracy for occupation numbers given. Defaulting to 0.1000E-07.
  No threshold value for occupation numbers given. Defaulting to 0.0000E+00.
  No accuracy for fermi level given. Defaulting to 0.1000E-19.
  Maximum # of iterations to find E_F not set. Defaulting to  200.
  Will not use alltoall communication since running on < 1024 CPUs.
  Partitioning for Hartree potential was not defined. Using partition_type for integrals.
  | Reporting present value of keyword multip_moments_threshold  :       0.10000000E-09
  | This value may affect high angular momentum components of the Hartree potential in periodic systems.
  No q(lm)/r^(l+1) cutoff set for long-range Hartree potential.
  | Using default value of  0.100000E-09 .
  | Verify using the multipole_threshold keyword.
  Defaulting to new monopole extrapolation.
  Density update method: Loop over occupied states selected for charge density update.
------------------------------------------------------------


------------------------------------------------------------
          Reading geometry description geometry.in.
------------------------------------------------------------
  Input structure read successfully.
  The structure contains       12 atoms,  and a total of         40.000 electrons.

  Input geometry:
  | No unit cell requested.
  | Atomic structure:
  |       Atom                x [A]            y [A]            z [A]
  |    1: Species O             -4.053030         0.065001        -1.525160
  |    2: Species H             -4.566710         0.974813        -1.912820
  |    3: Species H             -3.067820         0.330172        -1.477310
  |    4: Species O             -1.645860         0.870179        -1.502250
  |    5: Species H             -1.568890         1.501730        -0.721051
  |    6: Species H             -0.824432         0.282220        -1.377720
  |    7: Species O             -4.066610         4.258280        -0.900064
  |    8: Species H             -3.224110         3.876870        -0.569443
  |    9: Species H             -3.737450         5.116530        -1.322720
  |   10: Species O             -5.628340         3.730740         1.385610
  |   11: Species H             -6.090650         4.418470         1.860350
  |   12: Species H             -5.158540         4.200260         0.615875
  |

  | The smallest distance between any two atoms is         0.95502940 AA.
  |
  | The first atom of this pair is atom number                     10 .
  | The second atom of this pair is atom number                    11 .

  Structure-dependent array size parameters: 
  | Maximum number of distinct radial functions  :       18
  | Maximum number of basis functions            :      276
  | Number of Kohn-Sham states (occupied + empty):       68
------------------------------------------------------------

------------------------------------------------------------
          Preparing all fixed parts of the calculation.
------------------------------------------------------------
  Determining machine precision:
    2.225073858507201E-308
  Setting up grids for atomic and cluster calculations.

  Creating wave function, potential, and density for free atoms.

  Species: H

  List of occupied orbitals and eigenvalues:
    n    l              occ      energy [Ha]    energy [eV]
    1    0           1.0000        -0.241408        -6.5691


  Species: O

  List of occupied orbitals and eigenvalues:
    n    l              occ      energy [Ha]    energy [eV]
    1    0           2.0000       -18.944147      -515.4965
    2    0           2.0000        -0.883529       -24.0421
    2    1           4.0000        -0.330176        -8.9845

  Creating fixed part of basis set: Ionic, confined, hydrogenic.
 
  H                    hydrogenic:
 
  List of hydrogenic basis orbitals: 
    n    l      effective z      eigenvalue [eV]  inner max. [A]     outer max. [A]     outer radius [A]   
    2    0         2.100000       -14.9965           0.193241           1.317192           5.372934
    2    1         3.500000       -41.6672           0.602363           0.602363           4.056010
    1    0         0.850000        -9.8292           0.624864           0.624864           5.372934
    2    1         3.700000       -46.5653           0.573616           0.573616           3.909951
    2    0         1.200000        -4.5995           0.334977           2.228160           5.505921
    3    2         7.000000       -74.0753           0.680692           0.680692           3.769152
 
 
  O                    hydrogenic:
 
  List of hydrogenic basis orbitals: 
    n    l      effective z      eigenvalue [eV]  inner max. [A]     outer max. [A]     outer radius [A]   
    2    1         1.800000       -11.0118           1.178546           1.178546           5.432516
    3    2         7.600000       -87.3182           0.624117           0.624117           3.541422
    3    0         6.400000       -61.9209           0.061166           1.081887           4.306510
    4    3        11.600000      -114.4238           0.731621           0.731621           3.584982
    3    1         6.200000       -58.1113           0.255677           1.030255           4.306510
    3    2         5.600000       -47.4081           0.847222           0.847222           4.413102
    5    4        17.600000      -168.5799           0.749730           0.749730           3.372413
    1    0         0.750000        -7.6499           0.705275           0.705275           5.366508
 

  Adding cutoff potential to free-atom effective potential.
  Creating atomic-like basis functions for current effective potential.

  Species H                   :

  List of atomic basis orbitals and eigenvalues:
    n    l      energy [Ha]    energy [eV]    outer radius [A]
    1    0        -0.241374        -6.5681       5.372934


  Species O                   :

  List of atomic basis orbitals and eigenvalues:
    n    l      energy [Ha]    energy [eV]    outer radius [A]
    1    0       -18.944147      -515.4965       1.415745
    2    0        -0.883529       -24.0421       5.048305
    2    1        -0.330173        -8.9845       5.301302

  Assembling full basis from fixed parts.
  | Species H :   atomic orbital   1 s accepted.
  | Species H :    hydro orbital   2 s accepted.
  | Species H :    hydro orbital   1 s accepted.
  | Species H :    hydro orbital   2 s accepted.
  | Species H :    hydro orbital   2 p accepted.
  | Species H :    hydro orbital   2 p accepted.
  | Species H :    hydro orbital   3 d accepted.
  | Species O :   atomic orbital   1 s accepted.
  | Species O :    hydro orbital   3 s accepted.
  | Species O :   atomic orbital   2 s accepted.
  | Species O :    hydro orbital   1 s accepted.
  | Species O :    hydro orbital   3 p accepted.
  | Species O :   atomic orbital   2 p accepted.
  | Species O :    hydro orbital   2 p accepted.
  | Species O :    hydro orbital   3 d accepted.
  | Species O :    hydro orbital   3 d accepted.
  | Species O :    hydro orbital   4 f accepted.
  | Species O :    hydro orbital   5 g accepted.
 
  Basis size parameters after reduction:
  | Total number of radial functions:       18
  | Total number of basis functions :      276
 
  Testing on-site integration grid accuracy.
  |  Species  Function  <phi|h_atom|phi> (log., in eV)  <phi|h_atom|phi> (rad., in eV)
           1        1                 -6.5683835025                 -6.5684759159
           1        2                 13.3711789951                 13.3708738703
           1        3                 23.6590910787                 23.6532055418
           1        4                 16.2963827186                 16.1870710655 ***
           1        5                 28.7627214838                 28.7627215090
           1        6                 59.5965249172                 59.5965950857
           1        7                 60.2220506392                 60.2220503827
           2        8               -515.4964576505               -515.4964530710
           2        9                 15.3030791347                 15.3030722972
           2       10                -21.7296094581                -21.7296135470
           2       11                 14.2969371730                 14.2969701621
           2       12                 21.0679693190                 21.0679697493
           2       13                 -2.3833606469                 -2.3833613176
           2       14                 13.7067136422                 13.7066766629
           2       15                 45.8013116808                 45.8013116965
           2       16                 52.2309815402                 52.2309831494
           2       17                 85.4120732416                 85.4120732763
           2       18                142.1019167745                142.1019167817
 * Note: Onsite integrals marked "***" above are less accurate than
 * onsite_accuracy_threshold =    0.03000 eV. Usually, this is harmless.
 * When in doubt, tighten the "radial" and/or "radial_multiplier" flags to check.

  Preparing densities etc. for the partition functions (integrals / Hartree potential).

  Preparations completed.
  max(cpu_time)          :      0.167 s.
  Wall clock time (cpu1) :      0.542 s.
------------------------------------------------------------

------------------------------------------------------------
          Begin self-consistency loop: Initialization.

          Date     :  20150727, Time     :  123708.288
------------------------------------------------------------

  Initializing index lists of integration centers etc. from given atomic structure:
  | Number of centers in hartree potential         :        12
  | Number of centers in hartree multipole         :        12
  | Number of centers in electron density summation:        12
  | Number of centers in basis integrals           :        12
  | Number of centers in integrals                 :        12
  Partitioning the integration grid into batches with parallel hashing+maxmin method.
  | Number of batches:     1492
  | Maximal batch size:     193
  | Minimal batch size:      50
  | Average batch size:     105.475
  | Standard deviation of batch sizes:      28.675

  Integration load balanced across     8 MPI tasks.
  Work distribution over tasks is as follows:
  Task     0 has      19648 integration points.
  Task     1 has      19698 integration points.
  Task     2 has      19675 integration points.
  Task     3 has      19662 integration points.
  Task     4 has      19706 integration points.
  Task     5 has      19674 integration points.
  Task     6 has      19685 integration points.
  Task     7 has      19620 integration points.
  Initializing partition tables, free-atom densities, potentials, etc. across the integration grid (initialize_grid_storage).
  | Net number of integration points:   157368
  | of which are non-zero points    :   156806
  Obtaining max. number of non-zero basis functions in each batch (get_n_compute_maxes).
  | Maximal number of non-zero basis functions:      273 in task     0
  | Maximal number of non-zero basis functions:      268 in task     1
  | Maximal number of non-zero basis functions:      273 in task     2
  | Maximal number of non-zero basis functions:      273 in task     3
  | Maximal number of non-zero basis functions:      273 in task     4
  | Maximal number of non-zero basis functions:      272 in task     5
  | Maximal number of non-zero basis functions:      273 in task     6
  | Maximal number of non-zero basis functions:      273 in task     7
  Integrating Hamiltonian matrix: batch-based integration.
  Time summed over all CPUs for integration: real work        3.919 s, elapsed        3.999 s
  Integrating overlap matrix.
  Time summed over all CPUs for integration: real work        2.051 s, elapsed        2.109 s

  Updating Kohn-Sham eigenvalues, eigenvectors, occupation numbers, and Fermi level.
  Solving generalized eigenproblem
  Updating Kohn-Sham eigenvalues and eigenfunctions.
  Transforming overlap matrix and checking for singularities.
  Overlap matrix is nonsingular:
  | Lowest eigenvalue:  0.316432E-03
  Solving real generalised eigenvalue problem by standard LAPACK (fast)
  Determining occupation numbers for Kohn-Sham eigenstates.
  | Chemical potential (Fermi level) in eV                 : -.50689592E+01
  | Error in electron count due to remaining E_F inaccuracy: 0.00000000E+00
  | Maximum occupation number of highest empty state:  0.00E+00

  Writing Kohn-Sham eigenvalues.

  State    Occupation    Eigenvalue [Ha]    Eigenvalue [eV]
      1       2.00000         -19.044595         -518.22979
      2       2.00000         -19.042498         -518.17273
      3       2.00000         -19.042424         -518.17072
      4       2.00000         -19.019449         -517.54555
      5       2.00000          -1.092154          -29.71903
      6       2.00000          -1.086740          -29.57169
      7       2.00000          -1.084000          -29.49714
      8       2.00000          -1.041664          -28.34513
      9       2.00000          -0.623189          -16.95783
     10       2.00000          -0.605510          -16.47677
     11       2.00000          -0.603955          -16.43446
     12       2.00000          -0.588830          -16.02289
     13       2.00000          -0.516317          -14.04970
     14       2.00000          -0.514934          -14.01208
     15       2.00000          -0.497851          -13.54723
     16       2.00000          -0.471532          -12.83104
     17       2.00000          -0.433425          -11.79410
     18       2.00000          -0.431547          -11.74300
     19       2.00000          -0.429298          -11.68180
     20       2.00000          -0.409335          -11.13856
     21       0.00000          -0.099733           -2.71387
     22       0.00000          -0.068669           -1.86859
     23       0.00000          -0.061270           -1.66725
     24       0.00000          -0.041668           -1.13386
     25       0.00000          -0.021306           -0.57977
     26       0.00000           0.025554            0.69537
     27       0.00000           0.036635            0.99690
     28       0.00000           0.040748            1.10882
     29       0.00000           0.066222            1.80200
     30       0.00000           0.073724            2.00612
     31       0.00000           0.084721            2.30537
     32       0.00000           0.092147            2.50744
     33       0.00000           0.100128            2.72463
     34       0.00000           0.103955            2.82875
     35       0.00000           0.111852            3.04366
     36       0.00000           0.115746            3.14960
     37       0.00000           0.137023            3.72859
     38       0.00000           0.146644            3.99039
     39       0.00000           0.157592            4.28830
     40       0.00000           0.166496            4.53059
     41       0.00000           0.170780            4.64717
     42       0.00000           0.188611            5.13237
     43       0.00000           0.213120            5.79930
     44       0.00000           0.226320            6.15848
     45       0.00000           0.253272            6.89188
     46       0.00000           0.263038            7.15763
     47       0.00000           0.302164            8.22229
     48       0.00000           0.327301            8.90633
     49       0.00000           0.339394            9.23537
     50       0.00000           0.354336            9.64199
     51       0.00000           0.361133            9.82694
     52       0.00000           0.363624            9.89471
     53       0.00000           0.369759           10.06165
     54       0.00000           0.379431           10.32483
     55       0.00000           0.393669           10.71228
     56       0.00000           0.400656           10.90241
     57       0.00000           0.428571           11.66202
     58       0.00000           0.435198           11.84234
     59       0.00000           0.454264           12.36116
     60       0.00000           0.468277           12.74246
     61       0.00000           0.490281           13.34122
     62       0.00000           0.498836           13.57401
     63       0.00000           0.515013           14.01423
     64       0.00000           0.557403           15.16772
     65       0.00000           0.578273           15.73561
     66       0.00000           0.613581           16.69638
     67       0.00000           0.660520           17.97367
     68       0.00000           0.688068           18.72327

  Highest occupied state (VBM) at    -11.13855971 eV
  | Occupation number:      2.00000000

  Lowest unoccupied state (CBM) at    -2.71386977 eV
  | Occupation number:      0.00000000

  Overall HOMO-LUMO gap:      8.42468994 eV.
  Calculating total energy contributions from superposition of free atom densities.

  Total energy components:
  | Sum of eigenvalues            :        -173.15849929 Ha       -4711.88250359 eV
  | XC energy correction          :         -36.40747867 Ha        -990.69790083 eV
  | XC potential correction       :          46.51527260 Ha        1265.74496774 eV
  | Free-atom electrostatic energy:        -143.40452571 Ha       -3902.23568815 eV
  | Hartree energy correction     :           0.00000000 Ha           0.00000000 eV
  | van der Waals energy corr.    :           0.00000000 Ha           0.00000000 eV
  | Entropy correction            :           0.00000000 Ha           0.00000000 eV
  | ---------------------------
  | Total energy                  :        -306.45523108 Ha       -8339.07112484 eV
  | Total energy, T -> 0          :        -306.45523108 Ha       -8339.07112484 eV  <-- do not rely on this value for anything but (periodic) metals
  | Electronic free energy        :        -306.45523108 Ha       -8339.07112484 eV

  Derived energy quantities:
  | Kinetic energy                :         303.24548030 Ha        8251.72936222 eV
  | Electrostatic energy          :        -573.29323270 Ha      -15600.10258623 eV
  | Energy correction for multipole
  | error in Hartree potential    :           0.00000000 Ha           0.00000000 eV
  | Sum of eigenvalues per atom                           :        -392.65687530 eV
  | Total energy (T->0) per atom                          :        -694.92259374 eV  <-- do not rely on this value for anything but (periodic) metals
  | Electronic free energy per atom                       :        -694.92259374 eV
  Initialize hartree_potential_storage
  Max. number of atoms included in rho_multipole:           12

  End scf initialization - timings             :  max(cpu_time)    wall_clock(cpu1)
  | Time for scf. initialization               :        1.166 s           1.166 s
  | Boundary condition initialization          :        0.000 s           0.000 s
  | Integration                                :        0.767 s           0.766 s
  | Solution of K.-S. eqns.                    :        0.119 s           0.120 s
  | Grid partitioning                          :        0.134 s           0.134 s
  | Preloading free-atom quantities on grid    :        0.014 s           0.014 s
  | Free-atom superposition energy             :        0.046 s           0.046 s
  | Total energy evaluation                    :        0.000 s           0.000 s
------------------------------------------------------------

------------------------------------------------------------
          Begin self-consistency iteration #    1

  Date     :  20150727, Time     :  123709.454
------------------------------------------------------------
  Evaluating new KS density.
  Integration grid: deviation in total charge (<rho> - N_e) =   7.105427E-15
  Pulay mixing of updated and previous charge densities.

  Evaluating partitioned Hartree potential by multipole expansion.
  | Analytical far-field extrapolation by fixed multipoles:
  | Hartree multipole sum: apparent total charge =  -0.168721E-05
  Summing up the Hartree potential.
  Time summed over all CPUs for potential: real work        1.651 s, elapsed        1.662 s
  | RMS charge density error from multipole expansion :   0.139138E-02

  Integrating Hamiltonian matrix: batch-based integration.
  Time summed over all CPUs for integration: real work        3.911 s, elapsed        3.987 s

  Updating Kohn-Sham eigenvalues, eigenvectors, occupation numbers, and Fermi level.
  Solving generalized eigenproblem
  Updating Kohn-Sham eigenvalues and eigenfunctions.
  Solving real generalised eigenvalue problem by standard LAPACK (fast)
  Determining occupation numbers for Kohn-Sham eigenstates.
  | Chemical potential (Fermi level) in eV                 : -.46686121E+01
  | Error in electron count due to remaining E_F inaccuracy: 0.00000000E+00
  | Maximum occupation number of highest empty state:  0.00E+00

  Writing Kohn-Sham eigenvalues.

  State    Occupation    Eigenvalue [Ha]    Eigenvalue [eV]
      1       2.00000         -18.979354         -516.45450
      2       2.00000         -18.974857         -516.33212
      3       2.00000         -18.961996         -515.98217
      4       2.00000         -18.934666         -515.23847
      5       2.00000          -1.057062          -28.76412
      6       2.00000          -1.056862          -28.75868
      7       2.00000          -1.045420          -28.44731
      8       2.00000          -0.996233          -27.10888
      9       2.00000          -0.588277          -16.00783
     10       2.00000          -0.580406          -15.79366
     11       2.00000          -0.576661          -15.69173
     12       2.00000          -0.553965          -15.07416
     13       2.00000          -0.482375          -13.12608
     14       2.00000          -0.481195          -13.09398
     15       2.00000          -0.457287          -12.44342
     16       2.00000          -0.431028          -11.72888
     17       2.00000          -0.398882          -10.85415
     18       2.00000          -0.396240          -10.78224
     19       2.00000          -0.385831          -10.49900
     20       2.00000          -0.362108           -9.85345
     21       0.00000          -0.093195           -2.53596
     22       0.00000          -0.062241           -1.69368
     23       0.00000          -0.049846           -1.35639
     24       0.00000          -0.034176           -0.92996
     25       0.00000          -0.016888           -0.45955
     26       0.00000           0.032339            0.87999
     27       0.00000           0.045846            1.24753
     28       0.00000           0.048737            1.32619
     29       0.00000           0.074633            2.03087
     30       0.00000           0.084379            2.29607
     31       0.00000           0.090393            2.45971
     32       0.00000           0.101002            2.74841
     33       0.00000           0.107700            2.93066
     34       0.00000           0.111548            3.03537
     35       0.00000           0.119556            3.25328
     36       0.00000           0.124248            3.38096
     37       0.00000           0.146978            3.99949
     38       0.00000           0.154658            4.20847
     39       0.00000           0.167842            4.56720
     40       0.00000           0.175805            4.78390
     41       0.00000           0.187582            5.10438
     42       0.00000           0.195918            5.33119
     43       0.00000           0.221890            6.03793
     44       0.00000           0.236261            6.42899
     45       0.00000           0.260260            7.08203
     46       0.00000           0.271438            7.38619
     47       0.00000           0.308061            8.38277
     48       0.00000           0.335127            9.11926
     49       0.00000           0.348418            9.48094
     50       0.00000           0.361735            9.84332
     51       0.00000           0.370407           10.07929
     52       0.00000           0.372402           10.13357
     53       0.00000           0.378422           10.29740
     54       0.00000           0.386198           10.50899
     55       0.00000           0.402181           10.94389
     56       0.00000           0.407475           11.08796
     57       0.00000           0.437731           11.91128
     58       0.00000           0.441528           12.01459
     59       0.00000           0.464097           12.62872
     60       0.00000           0.477850           13.00297
     61       0.00000           0.502306           13.66844
     62       0.00000           0.509509           13.86446
     63       0.00000           0.523778           14.25272
     64       0.00000           0.568618           15.47289
     65       0.00000           0.588899           16.02475
     66       0.00000           0.625081           17.00932
     67       0.00000           0.670531           18.24609
     68       0.00000           0.700437           19.05987

  Highest occupied state (VBM) at     -9.85345093 eV
  | Occupation number:      2.00000000

  Lowest unoccupied state (CBM) at    -2.53596498 eV
  | Occupation number:      0.00000000

  Overall HOMO-LUMO gap:      7.31748595 eV.

  Total energy components:
  | Sum of eigenvalues            :        -171.40140976 Ha       -4664.06966492 eV
  | XC energy correction          :         -36.59821589 Ha        -995.88812461 eV
  | XC potential correction       :          46.76522629 Ha        1272.54655374 eV
  | Free-atom electrostatic energy:        -143.40452571 Ha       -3902.23568815 eV
  | Hartree energy correction     :          -1.70032832 Ha         -46.26828777 eV
  | van der Waals energy corr.    :           0.00000000 Ha           0.00000000 eV
  | Entropy correction            :           0.00000000 Ha           0.00000000 eV
  | ---------------------------
  | Total energy                  :        -306.33925340 Ha       -8335.91521171 eV
  | Total energy, T -> 0          :        -306.33925340 Ha       -8335.91521171 eV  <-- do not rely on this value for anything but (periodic) metals
  | Electronic free energy        :        -306.33925340 Ha       -8335.91521171 eV

  Derived energy quantities:
  | Kinetic energy                :         304.36850945 Ha        8282.28854038 eV
  | Electrostatic energy          :        -574.10954696 Ha      -15622.31562748 eV
  | Energy correction for multipole
  | error in Hartree potential    :          -0.00016273 Ha          -0.00442814 eV
  | Sum of eigenvalues per atom                           :        -388.67247208 eV
  | Total energy (T->0) per atom                          :        -694.65960098 eV  <-- do not rely on this value for anything but (periodic) metals
  | Electronic free energy per atom                       :        -694.65960098 eV

  Self-consistency convergence accuracy:
  | Change of charge density      : 0.5849E+00
  | Change of sum of eigenvalues  : 0.4781E+02 eV
  | Change of total energy        : 0.3156E+01 eV

  End self-consistency iteration #     1       :  max(cpu_time)    wall_clock(cpu1)
  | Time for this iteration                    :        1.099 s           1.098 s
  | Charge density update                      :        0.352 s           0.352 s
  | Density mixing                             :        0.003 s           0.002 s
  | Hartree multipole update                   :        0.004 s           0.005 s
  | Hartree multipole summation                :        0.209 s           0.208 s
  | Integration                                :        0.499 s           0.500 s
  | Solution of K.-S. eqns.                    :        0.031 s           0.030 s
  | Total energy evaluation                    :        0.000 s           0.000 s
------------------------------------------------------------

------------------------------------------------------------
          Begin self-consistency iteration #    2

  Date     :  20150727, Time     :  123710.552
------------------------------------------------------------
  Evaluating new KS density.
  Integration grid: deviation in total charge (<rho> - N_e) =   7.105427E-15
  Pulay mixing of updated and previous charge densities.

  Evaluating partitioned Hartree potential by multipole expansion.
  | Analytical far-field extrapolation by fixed multipoles:
  | Hartree multipole sum: apparent total charge =  -0.490612E-05
  Summing up the Hartree potential.
  Time summed over all CPUs for potential: real work        1.651 s, elapsed        1.662 s
  | RMS charge density error from multipole expansion :   0.547032E-02

  Integrating Hamiltonian matrix: batch-based integration.
  Time summed over all CPUs for integration: real work        3.901 s, elapsed        3.986 s

  Updating Kohn-Sham eigenvalues, eigenvectors, occupation numbers, and Fermi level.
  Solving generalized eigenproblem
  Updating Kohn-Sham eigenvalues and eigenfunctions.
  Solving real generalised eigenvalue problem by standard LAPACK (fast)
  Determining occupation numbers for Kohn-Sham eigenstates.
  | Chemical potential (Fermi level) in eV                 : -.36898223E+01
  | Error in electron count due to remaining E_F inaccuracy: 0.00000000E+00
  | Maximum occupation number of highest empty state:  0.00E+00

  Highest occupied state (VBM) at     -6.90618635 eV
  | Occupation number:      2.00000000

  Lowest unoccupied state (CBM) at    -2.19107965 eV
  | Occupation number:      0.00000000

  Overall HOMO-LUMO gap:      4.71510669 eV.

  Total energy components:
  | Sum of eigenvalues            :        -167.40415952 Ha       -4555.29895150 eV
  | XC energy correction          :         -37.05193592 Ha       -1008.23447480 eV
  | XC potential correction       :          47.35929136 Ha        1288.71188684 eV
  | Free-atom electrostatic energy:        -143.40452571 Ha       -3902.23568815 eV
  | Hartree energy correction     :          -5.70705359 Ha        -155.29682961 eV
  | van der Waals energy corr.    :           0.00000000 Ha           0.00000000 eV
  | Entropy correction            :           0.00000000 Ha           0.00000000 eV
  | ---------------------------
  | Total energy                  :        -306.20838338 Ha       -8332.35405722 eV
  | Total energy, T -> 0          :        -306.20838338 Ha       -8332.35405722 eV  <-- do not rely on this value for anything but (periodic) metals
  | Electronic free energy        :        -306.20838338 Ha       -8332.35405722 eV

  Derived energy quantities:
  | Kinetic energy                :         306.53554141 Ha        8341.25648034 eV
  | Electrostatic energy          :        -575.69198887 Ha      -15665.37606275 eV
  | Energy correction for multipole
  | error in Hartree potential    :          -0.00118870 Ha          -0.03234621 eV
  | Sum of eigenvalues per atom                           :        -379.60824596 eV
  | Total energy (T->0) per atom                          :        -694.36283810 eV  <-- do not rely on this value for anything but (periodic) metals
  | Electronic free energy per atom                       :        -694.36283810 eV

  Self-consistency convergence accuracy:
  | Change of charge density      : 0.4406E+00
  | Change of sum of eigenvalues  : 0.1088E+03 eV
  | Change of total energy        : 0.3561E+01 eV

  End self-consistency iteration #     2       :  max(cpu_time)    wall_clock(cpu1)
  | Time for this iteration                    :        1.093 s           1.094 s
  | Charge density update                      :        0.345 s           0.346 s
  | Density mixing                             :        0.005 s           0.004 s
  | Hartree multipole update                   :        0.004 s           0.005 s
  | Hartree multipole summation                :        0.209 s           0.208 s
  | Integration                                :        0.499 s           0.500 s
  | Solution of K.-S. eqns.                    :        0.031 s           0.030 s
  | Total energy evaluation                    :        0.000 s           0.000 s
------------------------------------------------------------

------------------------------------------------------------
          Begin self-consistency iteration #    3

  Date     :  20150727, Time     :  123711.646
------------------------------------------------------------
  Evaluating new KS density.
  Integration grid: deviation in total charge (<rho> - N_e) =   2.131628E-14
  Pulay mixing of updated and previous charge densities.

  Evaluating partitioned Hartree potential by multipole expansion.
  | Analytical far-field extrapolation by fixed multipoles:
  | Hartree multipole sum: apparent total charge =  -0.518730E-05
  Summing up the Hartree potential.
  Time summed over all CPUs for potential: real work        1.651 s, elapsed        1.662 s
  | RMS charge density error from multipole expansion :   0.115440E-01

  Integrating Hamiltonian matrix: batch-based integration.
  Time summed over all CPUs for integration: real work        3.905 s, elapsed        3.982 s

  Updating Kohn-Sham eigenvalues, eigenvectors, occupation numbers, and Fermi level.
  Solving generalized eigenproblem
  Updating Kohn-Sham eigenvalues and eigenfunctions.
  Solving real generalised eigenvalue problem by standard LAPACK (fast)
  Determining occupation numbers for Kohn-Sham eigenstates.
  | Chemical potential (Fermi level) in eV                 : -.34893334E+01
  | Error in electron count due to remaining E_F inaccuracy: 0.00000000E+00
  | Maximum occupation number of highest empty state:  0.00E+00

  Highest occupied state (VBM) at     -6.74748729 eV
  | Occupation number:      2.00000000

  Lowest unoccupied state (CBM) at    -2.19585188 eV
  | Occupation number:      0.00000000

  Overall HOMO-LUMO gap:      4.55163542 eV.

  Total energy components:
  | Sum of eigenvalues            :        -167.58789988 Ha       -4560.29878105 eV
  | XC energy correction          :         -37.03443418 Ha       -1007.75822829 eV
  | XC potential correction       :          47.33246003 Ha        1287.98176923 eV
  | Free-atom electrostatic energy:        -143.40452571 Ha       -3902.23568815 eV
  | Hartree energy correction     :          -5.50817730 Ha        -149.88513040 eV
  | van der Waals energy corr.    :           0.00000000 Ha           0.00000000 eV
  | Entropy correction            :           0.00000000 Ha           0.00000000 eV
  | ---------------------------
  | Total energy                  :        -306.20257704 Ha       -8332.19605866 eV
  | Total energy, T -> 0          :        -306.20257704 Ha       -8332.19605866 eV  <-- do not rely on this value for anything but (periodic) metals
  | Electronic free energy        :        -306.20257704 Ha       -8332.19605866 eV

  Derived energy quantities:
  | Kinetic energy                :         304.86493687 Ha        8295.79701766 eV
  | Electrostatic energy          :        -574.03307972 Ha      -15620.23484802 eV
  | Energy correction for multipole
  | error in Hartree potential    :          -0.00501007 Ha          -0.13633085 eV
  | Sum of eigenvalues per atom                           :        -380.02489842 eV
  | Total energy (T->0) per atom                          :        -694.34967155 eV  <-- do not rely on this value for anything but (periodic) metals
  | Electronic free energy per atom                       :        -694.34967155 eV

  Self-consistency convergence accuracy:
  | Change of charge density      : 0.2274E+00
  | Change of sum of eigenvalues  : -.5000E+01 eV
  | Change of total energy        : 0.1580E+00 eV

  End self-consistency iteration #     3       :  max(cpu_time)    wall_clock(cpu1)
  | Time for this iteration                    :        1.094 s           1.094 s
  | Charge density update                      :        0.346 s           0.345 s
  | Density mixing                             :        0.006 s           0.006 s
  | Hartree multipole update                   :        0.004 s           0.004 s
  | Hartree multipole summation                :        0.208 s           0.209 s
  | Integration                                :        0.498 s           0.499 s
  | Solution of K.-S. eqns.                    :        0.031 s           0.030 s
  | Total energy evaluation                    :        0.000 s           0.001 s
------------------------------------------------------------

------------------------------------------------------------
          Begin self-consistency iteration #    4

  Date     :  20150727, Time     :  123712.740
------------------------------------------------------------
  Evaluating new KS density.
  Integration grid: deviation in total charge (<rho> - N_e) =  -7.105427E-15
  Pulay mixing of updated and previous charge densities.

  Evaluating partitioned Hartree potential by multipole expansion.
  | Analytical far-field extrapolation by fixed multipoles:
  | Hartree multipole sum: apparent total charge =  -0.631989E-05
  Summing up the Hartree potential.
  Time summed over all CPUs for potential: real work        1.650 s, elapsed        1.661 s
  | RMS charge density error from multipole expansion :   0.148825E-01

  Integrating Hamiltonian matrix: batch-based integration.
  Time summed over all CPUs for integration: real work        3.890 s, elapsed        3.979 s

  Updating Kohn-Sham eigenvalues, eigenvectors, occupation numbers, and Fermi level.
  Solving generalized eigenproblem
  Updating Kohn-Sham eigenvalues and eigenfunctions.
  Solving real generalised eigenvalue problem by standard LAPACK (fast)
  Determining occupation numbers for Kohn-Sham eigenstates.
  | Chemical potential (Fermi level) in eV                 : -.30748911E+01
  | Error in electron count due to remaining E_F inaccuracy: 0.00000000E+00
  | Maximum occupation number of highest empty state:  0.00E+00

  Highest occupied state (VBM) at     -5.66803588 eV
  | Occupation number:      2.00000000

  Lowest unoccupied state (CBM) at    -2.10941989 eV
  | Occupation number:      0.00000000

  Overall HOMO-LUMO gap:      3.55861599 eV.

  Total energy components:
  | Sum of eigenvalues            :        -166.30090390 Ha       -4525.27783861 eV
  | XC energy correction          :         -37.19819990 Ha       -1012.21452014 eV
  | XC potential correction       :          47.54625903 Ha        1293.79953605 eV
  | Free-atom electrostatic energy:        -143.40452571 Ha       -3902.23568815 eV
  | Hartree energy correction     :          -6.83580004 Ha        -186.01158321 eV
  | van der Waals energy corr.    :           0.00000000 Ha           0.00000000 eV
  | Entropy correction            :           0.00000000 Ha           0.00000000 eV
  | ---------------------------
  | Total energy                  :        -306.19317051 Ha       -8331.94009406 eV
  | Total energy, T -> 0          :        -306.19317051 Ha       -8331.94009406 eV  <-- do not rely on this value for anything but (periodic) metals
  | Electronic free energy        :        -306.19317051 Ha       -8331.94009406 eV

  Derived energy quantities:
  | Kinetic energy                :         305.03835788 Ha        8300.51604357 eV
  | Electrostatic energy          :        -574.03332849 Ha      -15620.24161749 eV
  | Energy correction for multipole
  | error in Hartree potential    :          -0.00662587 Ha          -0.18029910 eV
  | Sum of eigenvalues per atom                           :        -377.10648655 eV
  | Total energy (T->0) per atom                          :        -694.32834117 eV  <-- do not rely on this value for anything but (periodic) metals
  | Electronic free energy per atom                       :        -694.32834117 eV

  Self-consistency convergence accuracy:
  | Change of charge density      : 0.1213E+00
  | Change of sum of eigenvalues  : 0.3502E+02 eV
  | Change of total energy        : 0.2560E+00 eV

  End self-consistency iteration #     4       :  max(cpu_time)    wall_clock(cpu1)
  | Time for this iteration                    :        1.095 s           1.094 s
  | Charge density update                      :        0.346 s           0.345 s
  | Density mixing                             :        0.007 s           0.007 s
  | Hartree multipole update                   :        0.004 s           0.004 s
  | Hartree multipole summation                :        0.208 s           0.209 s
  | Integration                                :        0.499 s           0.498 s
  | Solution of K.-S. eqns.                    :        0.030 s           0.030 s
  | Total energy evaluation                    :        0.000 s           0.000 s
------------------------------------------------------------

------------------------------------------------------------
          Begin self-consistency iteration #    5

  Date     :  20150727, Time     :  123713.834
------------------------------------------------------------
  Evaluating new KS density.
  Integration grid: deviation in total charge (<rho> - N_e) =  -7.105427E-15
  Pulay mixing of updated and previous charge densities.

  Evaluating partitioned Hartree potential by multipole expansion.
  | Analytical far-field extrapolation by fixed multipoles:
  | Hartree multipole sum: apparent total charge =  -0.628305E-05
  Summing up the Hartree potential.
  Time summed over all CPUs for potential: real work        1.650 s, elapsed        1.661 s
  | RMS charge density error from multipole expansion :   0.151746E-01

  Integrating Hamiltonian matrix: batch-based integration.
  Time summed over all CPUs for integration: real work        3.889 s, elapsed        3.959 s

  Updating Kohn-Sham eigenvalues, eigenvectors, occupation numbers, and Fermi level.
  Solving generalized eigenproblem
  Updating Kohn-Sham eigenvalues and eigenfunctions.
  Solving real generalised eigenvalue problem by standard LAPACK (fast)
  Determining occupation numbers for Kohn-Sham eigenstates.
  | Chemical potential (Fermi level) in eV                 : -.30636123E+01
  | Error in electron count due to remaining E_F inaccuracy: 0.00000000E+00
  | Maximum occupation number of highest empty state:  0.00E+00

  Highest occupied state (VBM) at     -5.54455338 eV
  | Occupation number:      2.00000000

  Lowest unoccupied state (CBM) at    -2.11049695 eV
  | Occupation number:      0.00000000

  Overall HOMO-LUMO gap:      3.43405643 eV.

  Total energy components:
  | Sum of eigenvalues            :        -166.28733685 Ha       -4524.90866049 eV
  | XC energy correction          :         -37.20262827 Ha       -1012.33502228 eV
  | XC potential correction       :          47.55166921 Ha        1293.94675458 eV
  | Free-atom electrostatic energy:        -143.40452571 Ha       -3902.23568815 eV
  | Hartree energy correction     :          -6.85021499 Ha        -186.40383395 eV
  | van der Waals energy corr.    :           0.00000000 Ha           0.00000000 eV
  | Entropy correction            :           0.00000000 Ha           0.00000000 eV
  | ---------------------------
  | Total energy                  :        -306.19303661 Ha       -8331.93645029 eV
  | Total energy, T -> 0          :        -306.19303661 Ha       -8331.93645029 eV  <-- do not rely on this value for anything but (periodic) metals
  | Electronic free energy        :        -306.19303661 Ha       -8331.93645029 eV

  Derived energy quantities:
  | Kinetic energy                :         305.07561048 Ha        8301.52973827 eV
  | Electrostatic energy          :        -574.06601881 Ha      -15621.13116628 eV
  | Energy correction for multipole
  | error in Hartree potential    :          -0.00664601 Ha          -0.18084716 eV
  | Sum of eigenvalues per atom                           :        -377.07572171 eV
  | Total energy (T->0) per atom                          :        -694.32803752 eV  <-- do not rely on this value for anything but (periodic) metals
  | Electronic free energy per atom                       :        -694.32803752 eV

  Self-consistency convergence accuracy:
  | Change of charge density      : 0.2245E-01
  | Change of sum of eigenvalues  : 0.3692E+00 eV
  | Change of total energy        : 0.3644E-02 eV

  End self-consistency iteration #     5       :  max(cpu_time)    wall_clock(cpu1)
  | Time for this iteration                    :        1.092 s           1.092 s
  | Charge density update                      :        0.345 s           0.345 s
  | Density mixing                             :        0.008 s           0.008 s
  | Hartree multipole update                   :        0.004 s           0.004 s
  | Hartree multipole summation                :        0.208 s           0.208 s
  | Integration                                :        0.496 s           0.496 s
  | Solution of K.-S. eqns.                    :        0.030 s           0.031 s
  | Total energy evaluation                    :        0.000 s           0.000 s
------------------------------------------------------------

------------------------------------------------------------
          Begin self-consistency iteration #    6

  Date     :  20150727, Time     :  123714.926
------------------------------------------------------------
  Evaluating new KS density.
  Integration grid: deviation in total charge (<rho> - N_e) =   1.421085E-14
  Pulay mixing of updated and previous charge densities.

  Evaluating partitioned Hartree potential by multipole expansion.
  | Analytical far-field extrapolation by fixed multipoles:
  | Hartree multipole sum: apparent total charge =  -0.631181E-05
  Summing up the Hartree potential.
  Time summed over all CPUs for potential: real work        1.650 s, elapsed        1.661 s
  | RMS charge density error from multipole expansion :   0.154349E-01

  Integrating Hamiltonian matrix: batch-based integration.
  Time summed over all CPUs for integration: real work        3.889 s, elapsed        3.962 s

  Updating Kohn-Sham eigenvalues, eigenvectors, occupation numbers, and Fermi level.
  Solving generalized eigenproblem
  Updating Kohn-Sham eigenvalues and eigenfunctions.
  Solving real generalised eigenvalue problem by standard LAPACK (fast)
  Determining occupation numbers for Kohn-Sham eigenstates.
  | Chemical potential (Fermi level) in eV                 : -.30444807E+01
  | Error in electron count due to remaining E_F inaccuracy: 0.00000000E+00
  | Maximum occupation number of highest empty state:  0.00E+00

  Highest occupied state (VBM) at     -5.49990164 eV
  | Occupation number:      2.00000000

  Lowest unoccupied state (CBM) at    -2.10452296 eV
  | Occupation number:      0.00000000

  Overall HOMO-LUMO gap:      3.39537868 eV.

  Total energy components:
  | Sum of eigenvalues            :        -166.23245481 Ha       -4523.41524417 eV
  | XC energy correction          :         -37.21066457 Ha       -1012.55370104 eV
  | XC potential correction       :          47.56203781 Ha        1294.22889842 eV
  | Free-atom electrostatic energy:        -143.40452571 Ha       -3902.23568815 eV
  | Hartree energy correction     :          -6.90751088 Ha        -187.96293449 eV
  | van der Waals energy corr.    :           0.00000000 Ha           0.00000000 eV
  | Entropy correction            :           0.00000000 Ha           0.00000000 eV
  | ---------------------------
  | Total energy                  :        -306.19311816 Ha       -8331.93866943 eV
  | Total energy, T -> 0          :        -306.19311816 Ha       -8331.93866943 eV  <-- do not rely on this value for anything but (periodic) metals
  | Electronic free energy        :        -306.19311816 Ha       -8331.93866943 eV

  Derived energy quantities:
  | Kinetic energy                :         305.08467583 Ha        8301.77641895 eV
  | Electrostatic energy          :        -574.06712942 Ha      -15621.16138734 eV
  | Energy correction for multipole
  | error in Hartree potential    :          -0.00673689 Ha          -0.18332009 eV
  | Sum of eigenvalues per atom                           :        -376.95127035 eV
  | Total energy (T->0) per atom                          :        -694.32822245 eV  <-- do not rely on this value for anything but (periodic) metals
  | Electronic free energy per atom                       :        -694.32822245 eV

  Self-consistency convergence accuracy:
  | Change of charge density      : 0.9231E-02
  | Change of sum of eigenvalues  : 0.1493E+01 eV
  | Change of total energy        : -.2219E-02 eV

  End self-consistency iteration #     6       :  max(cpu_time)    wall_clock(cpu1)
  | Time for this iteration                    :        1.096 s           1.096 s
  | Charge density update                      :        0.347 s           0.347 s
  | Density mixing                             :        0.009 s           0.008 s
  | Hartree multipole update                   :        0.004 s           0.004 s
  | Hartree multipole summation                :        0.208 s           0.208 s
  | Integration                                :        0.497 s           0.497 s
  | Solution of K.-S. eqns.                    :        0.030 s           0.030 s
  | Total energy evaluation                    :        0.000 s           0.001 s
------------------------------------------------------------

------------------------------------------------------------
          Begin self-consistency iteration #    7

  Date     :  20150727, Time     :  123716.022
------------------------------------------------------------
  Evaluating new KS density.
  Integration grid: deviation in total charge (<rho> - N_e) =   2.842171E-14
  Pulay mixing of updated and previous charge densities.

  Evaluating partitioned Hartree potential by multipole expansion.
  | Analytical far-field extrapolation by fixed multipoles:
  | Hartree multipole sum: apparent total charge =  -0.613800E-05
  Summing up the Hartree potential.
  Time summed over all CPUs for potential: real work        1.650 s, elapsed        1.661 s
  | RMS charge density error from multipole expansion :   0.153540E-01

  Integrating Hamiltonian matrix: batch-based integration.
  Time summed over all CPUs for integration: real work        3.885 s, elapsed        3.957 s

  Updating Kohn-Sham eigenvalues, eigenvectors, occupation numbers, and Fermi level.
  Solving generalized eigenproblem
  Updating Kohn-Sham eigenvalues and eigenfunctions.
  Solving real generalised eigenvalue problem by standard LAPACK (fast)
  Determining occupation numbers for Kohn-Sham eigenstates.
  | Chemical potential (Fermi level) in eV                 : -.30943440E+01
  | Error in electron count due to remaining E_F inaccuracy: 0.00000000E+00
  | Maximum occupation number of highest empty state:  0.00E+00

  Highest occupied state (VBM) at     -5.64935506 eV
  | Occupation number:      2.00000000

  Lowest unoccupied state (CBM) at    -2.11392824 eV
  | Occupation number:      0.00000000

  Overall HOMO-LUMO gap:      3.53542682 eV.

  Total energy components:
  | Sum of eigenvalues            :        -166.36710552 Ha       -4527.07927646 eV
  | XC energy correction          :         -37.19550262 Ha       -1012.14112336 eV
  | XC potential correction       :          47.54173429 Ha        1293.67641163 eV
  | Free-atom electrostatic energy:        -143.40452571 Ha       -3902.23568815 eV
  | Hartree energy correction     :          -6.76759722 Ha        -184.15569001 eV
  | van der Waals energy corr.    :           0.00000000 Ha           0.00000000 eV
  | Entropy correction            :           0.00000000 Ha           0.00000000 eV
  | ---------------------------
  | Total energy                  :        -306.19299677 Ha       -8331.93536635 eV
  | Total energy, T -> 0          :        -306.19299677 Ha       -8331.93536635 eV  <-- do not rely on this value for anything but (periodic) metals
  | Electronic free energy        :        -306.19299677 Ha       -8331.93536635 eV

  Derived energy quantities:
  | Kinetic energy                :         305.13068117 Ha        8303.02828796 eV
  | Electrostatic energy          :        -574.12817532 Ha      -15622.82253095 eV
  | Energy correction for multipole
  | error in Hartree potential    :          -0.00651511 Ha          -0.17728522 eV
  | Sum of eigenvalues per atom                           :        -377.25660637 eV
  | Total energy (T->0) per atom                          :        -694.32794720 eV  <-- do not rely on this value for anything but (periodic) metals
  | Electronic free energy per atom                       :        -694.32794720 eV

  Self-consistency convergence accuracy:
  | Change of charge density      : 0.1077E-01
  | Change of sum of eigenvalues  : -.3664E+01 eV
  | Change of total energy        : 0.3303E-02 eV

  End self-consistency iteration #     7       :  max(cpu_time)    wall_clock(cpu1)
  | Time for this iteration                    :        1.095 s           1.094 s
  | Charge density update                      :        0.346 s           0.345 s
  | Density mixing                             :        0.009 s           0.010 s
  | Hartree multipole update                   :        0.005 s           0.004 s
  | Hartree multipole summation                :        0.208 s           0.209 s
  | Integration                                :        0.496 s           0.495 s
  | Solution of K.-S. eqns.                    :        0.030 s           0.031 s
  | Total energy evaluation                    :        0.000 s           0.000 s
------------------------------------------------------------

------------------------------------------------------------
          Begin self-consistency iteration #    8

  Date     :  20150727, Time     :  123717.117
------------------------------------------------------------
  Evaluating new KS density.
  Integration grid: deviation in total charge (<rho> - N_e) =   1.421085E-14
  Pulay mixing of updated and previous charge densities.

  Evaluating partitioned Hartree potential by multipole expansion.
  | Analytical far-field extrapolation by fixed multipoles:
  | Hartree multipole sum: apparent total charge =  -0.614761E-05
  Summing up the Hartree potential.
  Time summed over all CPUs for potential: real work        1.650 s, elapsed        1.662 s
  | RMS charge density error from multipole expansion :   0.153968E-01

  Integrating Hamiltonian matrix: batch-based integration.
  Time summed over all CPUs for integration: real work        3.888 s, elapsed        3.974 s

  Updating Kohn-Sham eigenvalues, eigenvectors, occupation numbers, and Fermi level.
  Solving generalized eigenproblem
  Updating Kohn-Sham eigenvalues and eigenfunctions.
  Solving real generalised eigenvalue problem by standard LAPACK (fast)
  Determining occupation numbers for Kohn-Sham eigenstates.
  | Chemical potential (Fermi level) in eV                 : -.30900596E+01
  | Error in electron count due to remaining E_F inaccuracy: 0.00000000E+00
  | Maximum occupation number of highest empty state:  0.00E+00

  Highest occupied state (VBM) at     -5.62969544 eV
  | Occupation number:      2.00000000

  Lowest unoccupied state (CBM) at    -2.11398664 eV
  | Occupation number:      0.00000000

  Overall HOMO-LUMO gap:      3.51570880 eV.

  Total energy components:
  | Sum of eigenvalues            :        -166.35355556 Ha       -4526.71056332 eV
  | XC energy correction          :         -37.19719058 Ha       -1012.18705518 eV
  | XC potential correction       :          47.54393345 Ha        1293.73625383 eV
  | Free-atom electrostatic energy:        -143.40452571 Ha       -3902.23568815 eV
  | Hartree energy correction     :          -6.78165816 Ha        -184.53830777 eV
  | van der Waals energy corr.    :           0.00000000 Ha           0.00000000 eV
  | Entropy correction            :           0.00000000 Ha           0.00000000 eV
  | ---------------------------
  | Total energy                  :        -306.19299656 Ha       -8331.93536060 eV
  | Total energy, T -> 0          :        -306.19299656 Ha       -8331.93536060 eV  <-- do not rely on this value for anything but (periodic) metals
  | Electronic free energy        :        -306.19299656 Ha       -8331.93536060 eV

  Derived energy quantities:
  | Kinetic energy                :         305.13176739 Ha        8303.05784574 eV
  | Electrostatic energy          :        -574.12757337 Ha      -15622.80615115 eV
  | Energy correction for multipole
  | error in Hartree potential    :          -0.00654066 Ha          -0.17798028 eV
  | Sum of eigenvalues per atom                           :        -377.22588028 eV
  | Total energy (T->0) per atom                          :        -694.32794672 eV  <-- do not rely on this value for anything but (periodic) metals
  | Electronic free energy per atom                       :        -694.32794672 eV

  Self-consistency convergence accuracy:
  | Change of charge density      : 0.1760E-02
  | Change of sum of eigenvalues  : 0.3687E+00 eV
  | Change of total energy        : 0.5752E-05 eV

  End self-consistency iteration #     8       :  max(cpu_time)    wall_clock(cpu1)
  | Time for this iteration                    :        1.097 s           1.096 s
  | Charge density update                      :        0.344 s           0.344 s
  | Density mixing                             :        0.011 s           0.010 s
  | Hartree multipole update                   :        0.004 s           0.005 s
  | Hartree multipole summation                :        0.209 s           0.208 s
  | Integration                                :        0.498 s           0.498 s
  | Solution of K.-S. eqns.                    :        0.030 s           0.031 s
  | Total energy evaluation                    :        0.000 s           0.000 s
------------------------------------------------------------

------------------------------------------------------------
          Begin self-consistency iteration #    9

  Date     :  20150727, Time     :  123718.213
------------------------------------------------------------
  Evaluating new KS density.
  Integration grid: deviation in total charge (<rho> - N_e) =  -7.105427E-15
  Pulay mixing of updated and previous charge densities.

  Evaluating partitioned Hartree potential by multipole expansion.
  | Analytical far-field extrapolation by fixed multipoles:
  | Hartree multipole sum: apparent total charge =  -0.614493E-05
  Summing up the Hartree potential.
  Time summed over all CPUs for potential: real work        1.650 s, elapsed        1.661 s
  | RMS charge density error from multipole expansion :   0.154062E-01

  Integrating Hamiltonian matrix: batch-based integration.
  Time summed over all CPUs for integration: real work        3.891 s, elapsed        3.977 s

  Updating Kohn-Sham eigenvalues, eigenvectors, occupation numbers, and Fermi level.
  Solving generalized eigenproblem
  Updating Kohn-Sham eigenvalues and eigenfunctions.
  Solving real generalised eigenvalue problem by standard LAPACK (fast)
  Determining occupation numbers for Kohn-Sham eigenstates.
  | Chemical potential (Fermi level) in eV                 : -.30901580E+01
  | Error in electron count due to remaining E_F inaccuracy: 0.00000000E+00
  | Maximum occupation number of highest empty state:  0.00E+00

  Highest occupied state (VBM) at     -5.63138755 eV
  | Occupation number:      2.00000000

  Lowest unoccupied state (CBM) at    -2.11427675 eV
  | Occupation number:      0.00000000

  Overall HOMO-LUMO gap:      3.51711080 eV.

  Total energy components:
  | Sum of eigenvalues            :        -166.35120256 Ha       -4526.64653483 eV
  | XC energy correction          :         -37.19742596 Ha       -1012.19346021 eV
  | XC potential correction       :          47.54422699 Ha        1293.74424146 eV
  | Free-atom electrostatic energy:        -143.40452571 Ha       -3902.23568815 eV
  | Hartree energy correction     :          -6.78406889 Ha        -184.60390711 eV
  | van der Waals energy corr.    :           0.00000000 Ha           0.00000000 eV
  | Entropy correction            :           0.00000000 Ha           0.00000000 eV
  | ---------------------------
  | Total energy                  :        -306.19299613 Ha       -8331.93534885 eV
  | Total energy, T -> 0          :        -306.19299613 Ha       -8331.93534885 eV  <-- do not rely on this value for anything but (periodic) metals
  | Electronic free energy        :        -306.19299613 Ha       -8331.93534885 eV

  Derived energy quantities:
  | Kinetic energy                :         305.13533191 Ha        8303.15484103 eV
  | Electrostatic energy          :        -574.13090207 Ha      -15622.89672967 eV
  | Energy correction for multipole
  | error in Hartree potential    :          -0.00654208 Ha          -0.17801894 eV
  | Sum of eigenvalues per atom                           :        -377.22054457 eV
  | Total energy (T->0) per atom                          :        -694.32794574 eV  <-- do not rely on this value for anything but (periodic) metals
  | Electronic free energy per atom                       :        -694.32794574 eV

  Self-consistency convergence accuracy:
  | Change of charge density      : 0.9118E-03
  | Change of sum of eigenvalues  : 0.6403E-01 eV
  | Change of total energy        : 0.1175E-04 eV

  End self-consistency iteration #     9       :  max(cpu_time)    wall_clock(cpu1)
  | Time for this iteration                    :        1.098 s           1.098 s
  | Charge density update                      :        0.344 s           0.344 s
  | Density mixing                             :        0.011 s           0.012 s
  | Hartree multipole update                   :        0.004 s           0.004 s
  | Hartree multipole summation                :        0.208 s           0.209 s
  | Integration                                :        0.499 s           0.498 s
  | Solution of K.-S. eqns.                    :        0.030 s           0.030 s
  | Total energy evaluation                    :        0.001 s           0.000 s
------------------------------------------------------------

------------------------------------------------------------
          Begin self-consistency iteration #   10

  Date     :  20150727, Time     :  123719.311
------------------------------------------------------------
  Evaluating new KS density.
  Integration grid: deviation in total charge (<rho> - N_e) =   0.000000E+00
  Pulay mixing of updated and previous charge densities.

  Evaluating partitioned Hartree potential by multipole expansion.
  | Analytical far-field extrapolation by fixed multipoles:
  | Hartree multipole sum: apparent total charge =  -0.613626E-05
  Summing up the Hartree potential.
  Time summed over all CPUs for potential: real work        1.650 s, elapsed        1.661 s
  | RMS charge density error from multipole expansion :   0.154034E-01

  Integrating Hamiltonian matrix: batch-based integration.
  Time summed over all CPUs for integration: real work        3.888 s, elapsed        3.969 s

  Updating Kohn-Sham eigenvalues, eigenvectors, occupation numbers, and Fermi level.
  Solving generalized eigenproblem
[...]
  |                                 -0.01902150       0.09172520       0.01512288
  |                                  0.01309789       0.01512288       0.04764509
  ----------------------------------------------------------------------


  Total energy components:
  | Sum of eigenvalues            :        -166.35601739 Ha       -4526.77755310 eV
  | XC energy correction          :         -37.19682162 Ha       -1012.17701527 eV
  | XC potential correction       :          47.54341635 Ha        1293.72218280 eV
  | Free-atom electrostatic energy:        -143.40452571 Ha       -3902.23568815 eV
  | Hartree energy correction     :          -6.77904676 Ha        -184.46724801 eV
  | van der Waals energy corr.    :          -0.00122181 Ha          -0.03324725 eV
  | Entropy correction            :           0.00000000 Ha           0.00000000 eV
  | ---------------------------
  | Total energy                  :        -306.19421695 Ha       -8331.96856898 eV
  | Total energy, T -> 0          :        -306.19421695 Ha       -8331.96856898 eV  <-- do not rely on this value for anything but (periodic) metals
  | Electronic free energy        :        -306.19421695 Ha       -8331.96856898 eV

  Derived energy quantities:
  | Kinetic energy                :         305.13702822 Ha        8303.20099996 eV
  | Electrostatic energy          :        -574.13320173 Ha      -15622.95930642 eV
  | Energy correction for multipole
  | error in Hartree potential    :          -0.00653826 Ha          -0.17791516 eV
  | Sum of eigenvalues per atom                           :        -377.23146276 eV
  | Total energy (T->0) per atom                          :        -694.33071408 eV  <-- do not rely on this value for anything but (periodic) metals
  | Electronic free energy per atom                       :        -694.33071408 eV

  atomic forces [eV/Ang]:
  -----------------------
  atom #    1
   Hellmann-Feynman + Multipole  : -.693005E+01 -.111670E+02 0.290034E+01
   Pulay + GGA                   : 0.537437E+01 0.146021E+02 -.425084E+01
   Van der Waals               : -.293174E-02 0.223262E-02 0.334783E-03
   ----------------------------------------------------------------
   Total forces(   1)            : -.155861E+01 0.343734E+01 -.135017E+01
  atom #    2
   Hellmann-Feynman + Multipole  : 0.218408E+01 -.363858E+01 0.158864E+01
   Pulay + GGA                   : -.284496E-01 0.991460E-01 -.476931E-01
   Van der Waals               : -.952322E-03 0.526845E-02 0.253982E-02
   ----------------------------------------------------------------
   Total forces(   2)            : 0.215468E+01 -.353417E+01 0.154349E+01
  atom #    3
   Hellmann-Feynman + Multipole  : -.182986E+01 -.328656E+00 -.304269E+00
   Pulay + GGA                   : 0.663988E-01 0.173088E-01 0.293096E-01
   Van der Waals               : -.158022E-02 0.273136E-02 0.626936E-03
   ----------------------------------------------------------------
   Total forces(   3)            : -.176504E+01 -.308616E+00 -.274333E+00
  atom #    4
   Hellmann-Feynman + Multipole  : -.622118E+01 0.749598E+00 -.103154E+02
   Pulay + GGA                   : 0.904633E+01 -.379868E+00 0.118434E+02
   Van der Waals               : 0.272558E-02 0.409528E-02 0.166313E-02
   ----------------------------------------------------------------
   Total forces(   4)            : 0.282788E+01 0.373826E+00 0.152967E+01
  atom #    5
   Hellmann-Feynman + Multipole  : -.153158E+00 -.105985E+01 -.122729E+01
   Pulay + GGA                   : 0.354086E-01 0.985505E-01 0.972518E-01
   Van der Waals               : -.466583E-03 0.387725E-02 0.504606E-03
   ----------------------------------------------------------------
   Total forces(   5)            : -.118216E+00 -.957423E+00 -.112953E+01
  atom #    6
   Hellmann-Feynman + Multipole  : -.163950E+01 0.102341E+01 -.323804E+00
   Pulay + GGA                   : 0.123751E+00 -.549394E-01 0.203275E-01
   Van der Waals               : -.152809E-02 0.356550E-03 -.715188E-04
   ----------------------------------------------------------------
   Total forces(   6)            : -.151727E+01 0.968824E+00 -.303548E+00
  atom #    7
   Hellmann-Feynman + Multipole  : -.130323E+02 -.525664E+01 -.121149E+01
   Pulay + GGA                   : 0.143343E+02 0.667147E+01 0.521581E+00
   Van der Waals               : 0.262926E-02 -.736230E-02 -.217113E-02
   ----------------------------------------------------------------
   Total forces(   7)            : 0.130462E+01 0.140747E+01 -.692084E+00
  atom #    8
   Hellmann-Feynman + Multipole  : -.635677E+00 0.101621E+00 -.121625E+00
   Pulay + GGA                   : 0.136758E+00 -.648755E-01 0.244121E-01
   Van der Waals               : 0.203574E-02 -.626724E-02 -.274073E-02
   ----------------------------------------------------------------
   Total forces(   8)            : -.496883E+00 0.304787E-01 -.999537E-01
  atom #    9
   Hellmann-Feynman + Multipole  : -.756472E+00 -.146498E+01 0.696070E+00
   Pulay + GGA                   : 0.519302E-01 0.101504E+00 -.679828E-01
   Van der Waals               : 0.396622E-03 -.110510E-02 -.235763E-03
   ----------------------------------------------------------------
   Total forces(   9)            : -.704145E+00 -.136458E+01 0.627851E+00
  atom #   10
   Hellmann-Feynman + Multipole  : 0.101840E+01 -.156830E+02 0.170090E+01
   Pulay + GGA                   : 0.356925E-01 0.158759E+02 -.307404E+01
   Van der Waals               : -.973308E-03 -.129597E-02 0.693900E-03
   ----------------------------------------------------------------
   Total forces(  10)            : 0.105312E+01 0.191572E+00 -.137244E+01
  atom #   11
   Hellmann-Feynman + Multipole  : -.263666E+00 0.443238E+00 0.239981E+00
   Pulay + GGA                   : -.675654E-01 0.985970E-01 0.833185E-01
   Van der Waals               : 0.243094E-02 -.326624E-03 -.300850E-02
   ----------------------------------------------------------------
   Total forces(  11)            : -.328801E+00 0.541509E+00 0.320291E+00
  atom #   12
   Hellmann-Feynman + Multipole  : -.881505E+00 -.847371E+00 0.125465E+01
   Pulay + GGA                   : 0.369662E-01 0.705516E-01 -.624484E-01
   Van der Waals               : -.178589E-02 -.220426E-02 0.186447E-02
   ----------------------------------------------------------------
   Total forces(  12)            : -.846324E+00 -.779024E+00 0.119407E+01
  Timings for vdw_correction_hirshfeld (Tkatchenko-Scheffler 2009):
  | CPU time:        2.908 s, Wall clock time:        2.908 s.
  Removing unitary transformations (pure translations, rotations) from forces on atoms.
  Atomic forces before filtering:
  | Net force on center of mass :  0.499783E-02 0.721414E-02 -.669251E-02 eV/A
  | Net torque on center of mass:  -.582048E-02 0.101786E-01 -.173095E-01 eV
  Atomic forces after filtering:
  | Net force on center of mass :  0.000000E+00 -.115964E-14 -.178406E-15 eV/A
  | Net torque on center of mass:  0.151054E-14 0.453161E-14 0.302107E-14 eV
 
  Energy and forces in a compact form:
  | Total energy uncorrected      :         -0.833196856897820E+04 eV
  | Total energy corrected        :         -0.833196856897820E+04 eV  <-- do not rely on this value for anything but (periodic) metals
  | Electronic free energy        :         -0.833196856897820E+04 eV
  Total atomic forces (unitary forces cleaned) [eV/Ang]:
  |   1         -0.155843827054647E+01          0.343679767399256E+01         -0.135002733275858E+01
  |   2          0.215479242373880E+01         -0.353474424790402E+01          0.154364293781263E+01
  |   3         -0.176492237768586E+01         -0.309008339297150E+00         -0.273940328794591E+00
  |   4          0.282791458253361E+01          0.373670253822761E+00          0.153044540561121E+01
  |   5         -0.118452333332738E+00         -0.957671212438942E+00         -0.112865467043585E+01
  |   6         -0.151716735801277E+01          0.968786207226745E+00         -0.302671999697111E+00
  |   7          0.130397277112983E+01          0.140683895261031E+01         -0.691377927505601E+00
  |   8         -0.497541417888214E+00          0.299381597566770E-01         -0.991154087505268E-01
  |   9         -0.704842663026482E+00         -0.136510775034974E+01          0.628745012368074E+00
  |  10          0.105205919000596E+01          0.190372790603309E+00         -0.137214648887295E+01
  |  11         -0.330079409897554E+00          0.540169360155846E+00          0.320575923512056E+00
  |  12         -0.847295137018127E+00         -0.780041848178356E+00          0.119452487751124E+01
 
  ------------------------------------ 
  Start decomposition of the XC Energy 
  ------------------------------------ 
  Hartree-Fock part   :          0.000000000 Ha              0.000000000 eV
  ------------------------------------ 
  X Energy            :        -35.895321665 Ha           -976.761399570 eV
  C Energy GGA        :         -1.301499955 Ha            -35.415615700 eV
  Total XC Energy     :        -37.196821620 Ha          -1012.177015270 eV
  LDA X and C from self-consistent density 
  X Energy LDA        :        -32.330732173 Ha           -879.763984328 eV
  C Energy LDA        :         -2.634478882 Ha            -71.687817820 eV
  ------------------------------------ 
  End decomposition of the XC Energy 
  ------------------------------------ 
  Performing Hirshfeld analysis of fragment charges and moments.
  ----------------------------------------------------------------------
  | Atom     1: O
  |   Hirshfeld charge        :     -0.35273898
  |   Free atom volume        :     23.95238533
  |   Hirshfeld volume        :     23.97903721
  |   Hirshfeld dipole vector :      0.03784652       0.05462603      -0.01422462
  |   Hirshfeld dipole moment :      0.06796103
  |   Hirshfeld second moments:      0.00454211      -0.03489935       0.02858844
  |                                 -0.03489935      -0.03759866      -0.02857707
  |                                  0.02858844      -0.02857707      -0.09562558
  ----------------------------------------------------------------------
  | Atom     2: H
  |   Hirshfeld charge        :      0.12220983
  |   Free atom volume        :     10.44207651
  |   Hirshfeld volume        :      7.59055871
  |   Hirshfeld dipole vector :     -0.05986806       0.09011478      -0.04184137
  |   Hirshfeld dipole moment :      0.11599810
  |   Hirshfeld second moments:      0.10913321       0.00262287       0.00717106
  |                                  0.00262287       0.06670626      -0.00286055
  |                                  0.00717106      -0.00286055       0.07545289
  ----------------------------------------------------------------------
  | Atom     3: H
  |   Hirshfeld charge        :      0.05861364
  |   Free atom volume        :     10.44207651
  |   Hirshfeld volume        :      8.39401614
  |   Hirshfeld dipole vector :      0.04918819       0.00698497       0.00676372
  |   Hirshfeld dipole moment :      0.05013996
  |   Hirshfeld second moments:      0.02226103      -0.02911996       0.00563365
  |                                 -0.02911996       0.07852546      -0.00431538
  |                                  0.00563365      -0.00431538       0.06006244
  ----------------------------------------------------------------------
  | Atom     4: O
  |   Hirshfeld charge        :     -0.17998443
  |   Free atom volume        :     23.95238533
  |   Hirshfeld volume        :     20.32506393
  |   Hirshfeld dipole vector :     -0.01577113      -0.02776911       0.02676889
  |   Hirshfeld dipole moment :      0.04167044
  |   Hirshfeld second moments:      0.07517999      -0.02632318       0.00720978
  |                                 -0.02632318       0.08327368       0.03814392
  |                                  0.00720978       0.03814392       0.05313663
  ----------------------------------------------------------------------
  | Atom     5: H
  |   Hirshfeld charge        :      0.16948567
  |   Free atom volume        :     10.44207651
  |   Hirshfeld volume        :      5.94593193
  |   Hirshfeld dipole vector :      0.00442366       0.07125785       0.09362606
  |   Hirshfeld dipole moment :      0.11774162
  |   Hirshfeld second moments:      0.13065751      -0.00841883       0.00581771
  |                                 -0.00841883       0.12863165       0.00108786
  |                                  0.00581771       0.00108786       0.11716458
  ----------------------------------------------------------------------
  | Atom     6: H
  |   Hirshfeld charge        :      0.17939261
  |   Free atom volume        :     10.44207651
  |   Hirshfeld volume        :      5.56412501
  |   Hirshfeld dipole vector :      0.09228895      -0.07898400       0.01198766
  |   Hirshfeld dipole moment :      0.12206321
  |   Hirshfeld second moments:      0.12888862       0.00260169       0.00074832
  |                                  0.00260169       0.13434262       0.01527722
  |                                  0.00074832       0.01527722       0.13723935
  ----------------------------------------------------------------------
  | Atom     7: O
  |   Hirshfeld charge        :     -0.21530725
  |   Free atom volume        :     23.95238533
  |   Hirshfeld volume        :     20.47294580
  |   Hirshfeld dipole vector :      0.01171956       0.01131011       0.02443195
  |   Hirshfeld dipole moment :      0.02936302
  |   Hirshfeld second moments:      0.06775668      -0.01442405      -0.00023781
  |                                 -0.01442405       0.07792516      -0.04196527
  |                                 -0.00023781      -0.04196527       0.03710810
  ----------------------------------------------------------------------
  | Atom     8: H
  |   Hirshfeld charge        :      0.15772546
  |   Free atom volume        :     10.44207651
  |   Hirshfeld volume        :      6.17582604
  |   Hirshfeld dipole vector :      0.09624814      -0.04542086       0.04285214
  |   Hirshfeld dipole moment :      0.11473040
  |   Hirshfeld second moments:      0.11989531       0.00654294      -0.00126045
  |                                  0.00654294       0.12681634      -0.00958916
  |                                 -0.00126045      -0.00958916       0.11271026
  ----------------------------------------------------------------------
  | Atom     9: H
  |   Hirshfeld charge        :      0.16590964
  |   Free atom volume        :     10.44207651
  |   Hirshfeld volume        :      5.63634838
  |   Hirshfeld dipole vector :      0.03279528       0.10515566      -0.05013031
  |   Hirshfeld dipole moment :      0.12102186
  |   Hirshfeld second moments:      0.14068384      -0.01001855       0.00451055
  |                                 -0.01001855       0.12405453      -0.00718600
  |                                  0.00451055      -0.00718600       0.12374900
  ----------------------------------------------------------------------
  | Atom    10: O
  |   Hirshfeld charge        :     -0.32283199
  |   Free atom volume        :     23.95238533
  |   Hirshfeld volume        :     22.78442825
  |   Hirshfeld dipole vector :     -0.00810171       0.05926477      -0.01422695
  |   Hirshfeld dipole moment :      0.06148461
  |   Hirshfeld second moments:     -0.02150638      -0.01745483      -0.06011136
  |                                 -0.01745483      -0.01356950       0.01147467
  |                                 -0.06011136       0.01147467       0.01212284
  ----------------------------------------------------------------------
  | Atom    11: H
  |   Hirshfeld charge        :      0.12639930
  |   Free atom volume        :     10.44207651
  |   Hirshfeld volume        :      6.67773116
  |   Hirshfeld dipole vector :     -0.06431579       0.08795793       0.06385071
  |   Hirshfeld dipole moment :      0.12629344
  |   Hirshfeld second moments:      0.09775560       0.00251688      -0.01761631
  |                                  0.00251688       0.10131765      -0.00684997
  |                                 -0.01761631      -0.00684997       0.11278672
  ----------------------------------------------------------------------
  | Atom    12: H
  |   Hirshfeld charge        :      0.09109172
  |   Free atom volume        :     10.44207651
  |   Hirshfeld volume        :      7.85441879
  |   Hirshfeld dipole vector :      0.02014764       0.04350868      -0.04345026
  |   Hirshfeld dipole moment :      0.06470594
  |   Hirshfeld second moments:      0.06757588      -0.01902150       0.01309789
  |                                 -0.01902150       0.09172520       0.01512288
  |                                  0.01309789       0.01512288       0.04764509
  ----------------------------------------------------------------------


------------------------------------------------------------------------------
  Final output of selected total energy values:

  The following output summarizes some interesting total energy values
  at the end of a run (AFTER all relaxation, molecular dynamics, etc.).

  | Total energy of the DFT / Hartree-Fock s.c.f. calculation      :          -8331.968568978 eV
  | Final zero-broadening corrected energy (caution - metals only) :          -8331.968568978 eV
  | For reference only, the value of 1 Hartree used in FHI-aims is :             27.211384500 eV

  Before relying on these values, please be sure to understand exactly which
  total energy value is referred to by a given number. Different objects may
  all carry the same name 'total energy'. Definitions:

  Total energy of the DFT / Hartree-Fock s.c.f. calculation:
  | Note that this energy does not include ANY quantities calculated after the
  | s.c.f. cycle, in particular not ANY RPA, MP2, etc. many-body perturbation terms.

  Final zero-broadening corrected energy:
  | For metallic systems only, a broadening of the occupation numbers at the Fermi
  | level can be extrapolated back to zero broadening by an electron-gas inspired
  | formula. For all systems that are not real metals, this value can be
  | meaningless and should be avoided.

------------------------------------------------------------------------------

------------------------------------------------------------
          Leaving FHI-aims.
          Date     :  20150727, Time     :  123728.153

          Computational steps:
          | Number of self-consistency cycles          :           15

          Detailed time accounting                     :  max(cpu_time)    wall_clock(cpu1)
          | Total time                                 :       20.412 s          20.449 s
          | Preparation time                           :        0.167 s           0.542 s
          | Grid partitioning                          :        0.134 s           0.134 s
          | Preloading free-atom quantities on grid    :        0.014 s           0.014 s
          | Free-atom superposition energy             :        0.046 s           0.046 s
          | Total time for integrations                :        8.230 s           8.227 s
          | Total time for solution of K.-S. equations :        0.573 s           0.576 s
          | Total time for density & force components  :        6.642 s           6.641 s
          | Total time for mixing                      :        0.148 s           0.147 s
          | Total time for Hartree multipole update    :        0.062 s           0.064 s
          | Total time for Hartree multipole sum       :        3.814 s           3.817 s
          | Total time for total energy evaluation     :        0.004 s           0.004 s
          | Total time for scaled ZORA corrections     :        0.000 s           0.000 s
          | Total time for TS (2009) vdW correction    :        0.034 s           0.034 s

          Have a nice day.
------------------------------------------------------------
