  MPI-parallelism will be employed.
------------------------------------------------------------
          Invoking FHI-aims ...
          Version 081213
          Compiled on 2013/08/29 at 17:41:06 on host generoso.

          When using FHI-aims, please cite the following reference:

          Volker Blum, Ralf Gehrke, Felix Hanke, Paula Havu,
          Ville Havu, Xinguo Ren, Karsten Reuter, and Matthias Scheffler,
          'Ab Initio Molecular Simulations with Numeric Atom-Centered Orbitals: FHI-aims',
          Computer Physics Communications 180, 2175-2196 (2009)

          For any questions about FHI-aims, please visit the aimsclub website
          with its forums and wiki. Contributions to both the forums and the
          wiki are warmly encouraged - they are for you, and everyone is welcome there.

------------------------------------------------------------

  Date     :  20150727, Time     :  121218.286
  Time zero on CPU 1             :   0.339940000000000E-01  s.
  Internal wall clock time zero  :           207231138.286  s.

  Using        8 parallel tasks.
  Task        0 on host gen60 reporting.
  Task        1 on host gen60 reporting.
  Task        2 on host gen60 reporting.
  Task        3 on host gen60 reporting.
  Task        4 on host gen60 reporting.
  Task        5 on host gen60 reporting.
  Task        6 on host gen60 reporting.
  Task        7 on host gen60 reporting.

  Performing system and environment tests:
  | Environment variable OMP_NUM_THREADS correctly set to 1.
  | Checking for scalapack...
  | No scalapack compiled in.

  Obtaining array dimensions for all initial allocations:
  
  -----------------------------------------------------------------------
  Parsing control.in (first pass over file, find array dimensions only).
  The contents of control.in will be repeated verbatim below
  unless switched off by setting 'verbatim_writeout .false.' .
  in the first line of control.in .
  -----------------------------------------------------------------------
  
  #########################################################################################
  #
  #  Volker Blum, FHI 2008 : Test run input file control.in
  #
  #########################################################################################
  #
  #  Physical model
  #
    xc                 rpbe
    spin               none
    relativistic       atomic_zora scalar
    charge             0.
   vdw_correction_hirshfeld
  #
  #  SCF convergence
  #
    occupation_type    gaussian 0.01
    mixer              pulay
      n_max_pulay        10
      charge_mix_param   0.1
    sc_accuracy_rho    5E-5
    sc_accuracy_eev    5E-3
    sc_accuracy_etot   5E-6
    sc_iter_limit      3000
  #
  #  Eigenvalue solver
  #
    KS_method          lapack
      empty_states       8
      basis_threshold    0.e-5
  #
  #  Efficiency
  #
  #   all previous settings are now default, except stratmann still
  #   undecided. Continue to handle stratmann with care, if at all.
  #
  #  partition_type stratmann
    partition_type rho_r2
  #  hartree_partition_type stratmann
  #
  #  Oprions for large clusters (100's of atoms: memory saving / better scaling)
  #
  # for periodic systems:
  #
    density_update_method orbital
    packed_matrix_format none
  #  k_grid 6 6 6
  #  output k_eigenvalue 1
  #  distributed_spline_storage .true.
  #
  #  Relaxation
  #
  #  relax_geometry   bfgs 5.e-3
    sc_accuracy_forces 5.E-4
    final_forces_cleaned .true.
  #
  #  Output options
  #
  #  output mulliken
    output Hirshfeld
  #  output dipole
  
  #harmonic_length_scale 0.001
  
  ################################################################################
  #
  #  FHI-aims code project
  #  VB, Fritz-Haber Institut, 2007
  #
  #  Suggested "safe" defaults for H atom (to be pasted into control.in file)
  #  Basis constructed for a non-relativistic H2 molecule using the
  #  PW-LDA functional.
  #
  ################################################################################
    species        H
  #     global species definitions
      nucleus             1
      cut_pot             4.0  2.0  1.0
      cut_free_atom       finite 8.0
      logarithmic         0.00010000 100.00  1.0123
      basis_dep_cutoff    1d-4  # 1d-4 is safe default - please check 5d-4 if you wish!
      radial_base         24 7.0
      radial_multiplier   2
      angular_grids       specified
        division   0.2783  110
        division   0.3822  194
        division   0.5626  302
  #      division   0.5922  434
  #      division   0.6227  590
  #      division   0.7206  770
        outer_grid  302
      l_hartree           4
  ################################################################################
  #
  #  Definition of "minimal" basis
  #
  ################################################################################
  #     valence basis states
      valence      1  s   1.
  #     ion occupancy
      ion_occ      1  s   0.5
  ################################################################################
  #
  #  Suggested additional basis functions. For production calculations,
  #  uncomment them one after another (the most important basis functions are
  #  listed first).
  #
  ################################################################################
  #  "First tier" - improvements: -1014.90 meV to -62.69 meV
       hydro 2 s 2.1
       hydro 2 p 3.5
  #  "Second tier" - improvements: -12.89 meV to -1.83 meV
       hydro 1 s 0.85
       hydro 2 p 3.7
       hydro 2 s 1.2
       hydro 3 d 7
  #  "Third tier" - improvements: -0.25 meV to -0.12 meV
  #     hydro 4 f 11.2
  #     hydro 3 p 4.8
  #     hydro 4 d 9
  #     hydro 3 s 3.2
  
  ################################################################################
  #
  #  FHI-aims code project
  #  VB, Fritz-Haber Institut, 2007
  #
  #  Suggested "safe" defaults for O atom (to be pasted into control.in file)
  #  All values have been tested for a non-relativistic, non-spinpolarized O2
  #  molecule using the PW-LDA functional. Validity for PBE is expected.
  #
  #  Constructed for dimers: 1.0 A, 1.208 A, 1.5 A, 2.0 A, 3.0 A
  #
  ################################################################################
    species        O
  #     global species definitions
      nucleus             8
      mass                15.9994
      l_hartree           4
      cut_pot             4.0  2.0  1.0
      cut_free_atom       finite 8.0
      basis_dep_cutoff    1d-4  # 1d-4 is safe default - please check 5d-4 if you wish!
      logarithmic         0.00010000 100.00  1.0123
      radial_base         36 7.0
      radial_multiplier   2
       angular_grids specified
        division   0.4087  110
        division   0.5181  194
        division   0.6184  302
  #      division   0.7315  434
  #      division   0.7934  590
  #      division   0.9656  770
  #      division   1.4041  974
  #      outer_grid 974
        outer_grid 302
  ################################################################################
  #
  #  Definition of "minimal" basis
  #
  ################################################################################
  #     valence basis states
      valence      2  s   2.
      valence      2  p   4.
  #     ion occupancy
      ion_occ      2  s   1.
      ion_occ      2  p   3.
  ################################################################################
  #
  #  Suggested additional basis functions. For production calculations,
  #  uncomment them one after another (the most important basis functions are
  #  listed first).
  #
  ################################################################################
  #  "First tier" - improvements: -699.05 meV to -159.38 meV
       hydro 2 p 1.8
       hydro 3 d 7.6
       hydro 3 s 6.4
  #  "Second tier" - improvements: -49.91 meV to -5.39 meV
       hydro 4 f 11.6
       hydro 3 p 6.2
       hydro 3 d 5.6
       hydro 5 g 17.6
       hydro 1 s 0.75
  #  "Third tier" - improvements: -2.83 meV to -0.50 meV
  #     ionic 2 p auto
  #     hydro 4 f 10.8
  #     hydro 4 d 4.7
  #     hydro 2 s 6.8
  #  "Fourth tier" - improvements: -0.40 meV to -0.12 meV
  #     hydro 3 p 5
  #     hydro 3 s 3.3
  #     hydro 5 g 15.6
  #     hydro 4 f 17.6
  #     hydro 4 d 14
  # Further basis functions - -0.08 meV and below
  #     hydro 3 s 2.1
  #     hydro 4 d 11.6
  #     hydro 3 p 16
  #     hydro 2 s 17.2
  
  
  -----------------------------------------------------------------------
  Completed first pass over input file control.in .
  -----------------------------------------------------------------------
  
  
  -----------------------------------------------------------------------
  Parsing geometry.in (first pass over file, find array dimensions only).
  The contents of geometry.in will be repeated verbatim below
  unless switched off by setting 'verbatim_writeout .false.' .
  in the first line of geometry.in .
  -----------------------------------------------------------------------
  
  atom      -4.053030000      0.065001000     -1.525160000  O
  atom      -4.566710000      0.974813000     -1.912820000  H
  atom      -3.067820000      0.330172000     -1.477310000  H
  atom      -4.581760000     -0.256435000      0.939478000  O
  atom      -4.349860000      0.471090000      1.504340000  H
  atom      -5.393870000     -0.726611000      1.228070000  H
  atom      -1.975360000      2.858040000      0.453140000  O
  atom      -1.223550000      3.375850000      0.786238000  H
  atom      -2.537520000      2.567960000      1.156120000  H
  atom      -5.628340000      3.730740000      1.385610000  O
  atom      -6.090650000      4.418470000      1.860350000  H
  atom      -5.158540000      4.200260000      0.615875000  H
  
  -----------------------------------------------------------------------
  Completed first pass over input file geometry.in .
  -----------------------------------------------------------------------
  
 
  Basic array size parameters: 
  | Number of species                 :        2
  | Number of atoms                   :       12
  | Max. basis fn. angular momentum   :        4
  | Max. atomic/ionic basis occupied n:        2
  | Max. number of basis fn. types    :        2
  | Max. radial fns per species/type  :        8
  | Max. logarithmic grid size        :     1301
  | Max. radial integration grid size :       73
  | Max. angular integration grid size:      302
  | Max. angular grid division number :        8
  | Radial grid for Hartree potential :     1301
  | Number of spin channels           :        1

------------------------------------------------------------
          Reading file control.in.
------------------------------------------------------------
  XC: Using RPBE gradient-corrected functionals.
  Spin treatment: No spin polarisation.
  Scalar relativistic treatment of kinetic energy: on-site free-atom approximation to ZORA.
  Charge =   0.000000E+00: Neutral system requested explicitly.
  Using non-empirical van der Waals correction (Hirshfeld partitioning):
  Occupation type: Gaussian broadening, width =   0.100000E-01 eV.
  Using pulay charge density mixing.
  Pulay mixing - number of memorized iterations:   10
  Charge density mixing - mixing parameter:     0.1000
  Convergence accuracy of self-consistent charge density: 0.5000E-04
  Convergence accuracy of sum of eigenvalues: 0.5000E-02
  Convergence accuracy of total energy: 0.5000E-05
  Maximum number of s.-c. iterations  :  3000
  Kohn-Sham eigenvalues and eigenfunctions calculated by lapack diagonalisation (D&C).
  Number of empty states per atom:        8
  Threshold for basis singularities: 0.0000E+00
  Partition function in integrals calculations: rho / r^2
 Using packed matrix format           0
  Convergence accuracy of forces: 0.5000E-03
  Cleaning forces before final output.
  Hirshfeld charge analysis will be performed.
 
  Reading configuration options for species H                   .
  | Found nuclear charge :   1.0000
  | Found cutoff potl. onset [A], width [A], scale factor :    4.00000    2.00000    1.00000
  | Found cutoff specification for free atom: Cutoff potential begins at    8.00000 A.
  | Found logarithmic grid data [bohr] : 0.1000E-03 0.1000E+03 0.1012E+01
  | Threshold for basis-dependent cutoff potential is   0.100000E-03
  | Found data for basic radial integration grid :    24 points, outermost radius =    7.000 A
  | Found multiplier for basic radial grid :   2
  | Found angular grid specification: user-specified.
  | Specified grid contains     4 separate shells.
  | Check grid settings after all constraints further below.
  | Found l_max for Hartree potential  :   4
  | Found free-atom valence shell :  1 s   1.000
  | No ionic wave fns used. Skipping ion_occ.
  | Found hydrogenic basis function :  2 s   2.100
  | Found hydrogenic basis function :  2 p   3.500
  | Found hydrogenic basis function :  1 s   0.850
  | Found hydrogenic basis function :  2 p   3.700
  | Found hydrogenic basis function :  2 s   1.200
  | Found hydrogenic basis function :  3 d   7.000
  Species H                   : Missing cutoff potential type.
  Defaulting to exp(1/x)/(1-x)^2 type cutoff potential.
  Species H : On-site basis accuracy parameter (for Gram-Schmidt orthonormalisation) not specified.
  Using default value basis_acc =  0.1000000E-03.
  Species H                   : Using default innermost maximum threshold i_radial=  2 for radial functions.
  Species H                   : Basic radial grid will be enhanced according to radial_multiplier =   2, to contain    49 grid points.
 
  Reading configuration options for species O                   .
  | Found nuclear charge :   8.0000
  | Found atomic mass :    15.9994000000000      amu
  | Found l_max for Hartree potential  :   4
  | Found cutoff potl. onset [A], width [A], scale factor :    4.00000    2.00000    1.00000
  | Found cutoff specification for free atom: Cutoff potential begins at    8.00000 A.
  | Threshold for basis-dependent cutoff potential is   0.100000E-03
  | Found logarithmic grid data [bohr] : 0.1000E-03 0.1000E+03 0.1012E+01
  | Found data for basic radial integration grid :    36 points, outermost radius =    7.000 A
  | Found multiplier for basic radial grid :   2
  | Found angular grid specification: user-specified.
  | Specified grid contains     4 separate shells.
  | Check grid settings after all constraints further below.
  | Found free-atom valence shell :  2 s   2.000
  | Found free-atom valence shell :  2 p   4.000
  | No ionic wave fns used. Skipping ion_occ.
  | No ionic wave fns used. Skipping ion_occ.
  | Found hydrogenic basis function :  2 p   1.800
  | Found hydrogenic basis function :  3 d   7.600
  | Found hydrogenic basis function :  3 s   6.400
  | Found hydrogenic basis function :  4 f  11.600
  | Found hydrogenic basis function :  3 p   6.200
  | Found hydrogenic basis function :  3 d   5.600
  | Found hydrogenic basis function :  5 g  17.600
  | Found hydrogenic basis function :  1 s   0.750
  Species O                   : Missing cutoff potential type.
  Defaulting to exp(1/x)/(1-x)^2 type cutoff potential.
  Species O : On-site basis accuracy parameter (for Gram-Schmidt orthonormalisation) not specified.
  Using default value basis_acc =  0.1000000E-03.
  Species O                   : Using default innermost maximum threshold i_radial=  2 for radial functions.
  Species O                   : Basic radial grid will be enhanced according to radial_multiplier =   2, to contain    73 grid points.
 
  Finished reading input file 'control.in'. Consistency checks are next.
 
  Target number of points in a grid batch is not set. Defaulting to  100
  Method for grid partitioning is not set. Defaulting to parallel hash+maxmin partitioning.
  Batch size limit is not set. Defaulting to    200
  By default, will store active basis functions for each batch.
  If in need of memory, prune_basis_once .false. can be used to disable this option.
  communication_type for Hartree potential was not specified.
  Defaulting to calc_hartree .
  Pulay mixer: Number of initial linear mixing iterations not set.
  Defaulting to    0 iterations.
  Work space size for distributed Hartree potential not set.
  Defaulting to   0.200000E+03 MB.
  Algorithm-dependent basis array size parameters:
  | n_max_pulay                         :       10
  Geometry relaxation not requested: no relaxation will be performed.
  Handling of forces: Unphysical translation and rotation will be removed from forces.
  No accuracy limit for integral partition fn. given. Defaulting to 0.1000E-14.
  No threshold value for u(r) in integrations given. Defaulting to 0.1000E-05.
  No accuracy for occupation numbers given. Defaulting to 0.1000E-07.
  No threshold value for occupation numbers given. Defaulting to 0.0000E+00.
  No accuracy for fermi level given. Defaulting to 0.1000E-19.
  Maximum # of iterations to find E_F not set. Defaulting to  200.
  Will not use alltoall communication since running on < 1024 CPUs.
  Partitioning for Hartree potential was not defined. Using partition_type for integrals.
  | Reporting present value of keyword multip_moments_threshold  :       0.10000000E-09
  | This value may affect high angular momentum components of the Hartree potential in periodic systems.
  No q(lm)/r^(l+1) cutoff set for long-range Hartree potential.
  | Using default value of  0.100000E-09 .
  | Verify using the multipole_threshold keyword.
  Defaulting to new monopole extrapolation.
  Density update method: Loop over occupied states selected for charge density update.
------------------------------------------------------------


------------------------------------------------------------
          Reading geometry description geometry.in.
------------------------------------------------------------
  Input structure read successfully.
  The structure contains       12 atoms,  and a total of         40.000 electrons.

  Input geometry:
  | No unit cell requested.
  | Atomic structure:
  |       Atom                x [A]            y [A]            z [A]
  |    1: Species O             -4.053030         0.065001        -1.525160
  |    2: Species H             -4.566710         0.974813        -1.912820
  |    3: Species H             -3.067820         0.330172        -1.477310
  |    4: Species O             -4.581760        -0.256435         0.939478
  |    5: Species H             -4.349860         0.471090         1.504340
  |    6: Species H             -5.393870        -0.726611         1.228070
  |    7: Species O             -1.975360         2.858040         0.453140
  |    8: Species H             -1.223550         3.375850         0.786238
  |    9: Species H             -2.537520         2.567960         1.156120
  |   10: Species O             -5.628340         3.730740         1.385610
  |   11: Species H             -6.090650         4.418470         1.860350
  |   12: Species H             -5.158540         4.200260         0.615875
  |

  | The smallest distance between any two atoms is         0.94570141 AA.
  |
  | The first atom of this pair is atom number                      7 .
  | The second atom of this pair is atom number                     9 .

  Structure-dependent array size parameters: 
  | Maximum number of distinct radial functions  :       18
  | Maximum number of basis functions            :      276
  | Number of Kohn-Sham states (occupied + empty):       68
------------------------------------------------------------

------------------------------------------------------------
          Preparing all fixed parts of the calculation.
------------------------------------------------------------
  Determining machine precision:
    2.225073858507201E-308
  Setting up grids for atomic and cluster calculations.

  Creating wave function, potential, and density for free atoms.

  Species: H

  List of occupied orbitals and eigenvalues:
    n    l              occ      energy [Ha]    energy [eV]
    1    0           1.0000        -0.241408        -6.5691


  Species: O

  List of occupied orbitals and eigenvalues:
    n    l              occ      energy [Ha]    energy [eV]
    1    0           2.0000       -18.944147      -515.4965
    2    0           2.0000        -0.883529       -24.0421
    2    1           4.0000        -0.330176        -8.9845

  Creating fixed part of basis set: Ionic, confined, hydrogenic.
 
  H                    hydrogenic:
 
  List of hydrogenic basis orbitals: 
    n    l      effective z      eigenvalue [eV]  inner max. [A]     outer max. [A]     outer radius [A]   
    2    0         2.100000       -14.9965           0.193241           1.317192           5.372934
    2    1         3.500000       -41.6672           0.602363           0.602363           4.056010
    1    0         0.850000        -9.8292           0.624864           0.624864           5.372934
    2    1         3.700000       -46.5653           0.573616           0.573616           3.909951
    2    0         1.200000        -4.5995           0.334977           2.228160           5.505921
    3    2         7.000000       -74.0753           0.680692           0.680692           3.769152
 
 
  O                    hydrogenic:
 
  List of hydrogenic basis orbitals: 
    n    l      effective z      eigenvalue [eV]  inner max. [A]     outer max. [A]     outer radius [A]   
    2    1         1.800000       -11.0118           1.178546           1.178546           5.432516
    3    2         7.600000       -87.3182           0.624117           0.624117           3.541422
    3    0         6.400000       -61.9209           0.061166           1.081887           4.306510
    4    3        11.600000      -114.4238           0.731621           0.731621           3.584982
    3    1         6.200000       -58.1113           0.255677           1.030255           4.306510
    3    2         5.600000       -47.4081           0.847222           0.847222           4.413102
    5    4        17.600000      -168.5799           0.749730           0.749730           3.372413
    1    0         0.750000        -7.6499           0.705275           0.705275           5.366508
 

  Adding cutoff potential to free-atom effective potential.
  Creating atomic-like basis functions for current effective potential.

  Species H                   :

  List of atomic basis orbitals and eigenvalues:
    n    l      energy [Ha]    energy [eV]    outer radius [A]
    1    0        -0.241374        -6.5681       5.372934


  Species O                   :

  List of atomic basis orbitals and eigenvalues:
    n    l      energy [Ha]    energy [eV]    outer radius [A]
    1    0       -18.944147      -515.4965       1.415745
    2    0        -0.883529       -24.0421       5.048305
    2    1        -0.330173        -8.9845       5.301302

  Assembling full basis from fixed parts.
  | Species H :   atomic orbital   1 s accepted.
  | Species H :    hydro orbital   2 s accepted.
  | Species H :    hydro orbital   1 s accepted.
  | Species H :    hydro orbital   2 s accepted.
  | Species H :    hydro orbital   2 p accepted.
  | Species H :    hydro orbital   2 p accepted.
  | Species H :    hydro orbital   3 d accepted.
  | Species O :   atomic orbital   1 s accepted.
  | Species O :    hydro orbital   3 s accepted.
  | Species O :   atomic orbital   2 s accepted.
  | Species O :    hydro orbital   1 s accepted.
  | Species O :    hydro orbital   3 p accepted.
  | Species O :   atomic orbital   2 p accepted.
  | Species O :    hydro orbital   2 p accepted.
  | Species O :    hydro orbital   3 d accepted.
  | Species O :    hydro orbital   3 d accepted.
  | Species O :    hydro orbital   4 f accepted.
  | Species O :    hydro orbital   5 g accepted.
 
  Basis size parameters after reduction:
  | Total number of radial functions:       18
  | Total number of basis functions :      276
 
  Testing on-site integration grid accuracy.
  |  Species  Function  <phi|h_atom|phi> (log., in eV)  <phi|h_atom|phi> (rad., in eV)
           1        1                 -6.5683835025                 -6.5684759159
           1        2                 13.3711789951                 13.3708738703
           1        3                 23.6590910787                 23.6532055418
           1        4                 16.2963827186                 16.1870710655 ***
           1        5                 28.7627214838                 28.7627215090
           1        6                 59.5965249172                 59.5965950857
           1        7                 60.2220506392                 60.2220503827
           2        8               -515.4964576505               -515.4964530710
           2        9                 15.3030791347                 15.3030722972
           2       10                -21.7296094581                -21.7296135470
           2       11                 14.2969371730                 14.2969701621
           2       12                 21.0679693190                 21.0679697493
           2       13                 -2.3833606469                 -2.3833613176
           2       14                 13.7067136422                 13.7066766629
           2       15                 45.8013116808                 45.8013116965
           2       16                 52.2309815402                 52.2309831494
           2       17                 85.4120732416                 85.4120732763
           2       18                142.1019167745                142.1019167817
 * Note: Onsite integrals marked "***" above are less accurate than
 * onsite_accuracy_threshold =    0.03000 eV. Usually, this is harmless.
 * When in doubt, tighten the "radial" and/or "radial_multiplier" flags to check.

  Preparing densities etc. for the partition functions (integrals / Hartree potential).

  Preparations completed.
  max(cpu_time)          :      0.171 s.
  Wall clock time (cpu1) :      0.805 s.
------------------------------------------------------------

------------------------------------------------------------
          Begin self-consistency loop: Initialization.

          Date     :  20150727, Time     :  121219.124
------------------------------------------------------------

  Initializing index lists of integration centers etc. from given atomic structure:
  | Number of centers in hartree potential         :        12
  | Number of centers in hartree multipole         :        12
  | Number of centers in electron density summation:        12
  | Number of centers in basis integrals           :        12
  | Number of centers in integrals                 :        12
  Partitioning the integration grid into batches with parallel hashing+maxmin method.
  | Number of batches:     1582
  | Maximal batch size:     189
  | Minimal batch size:      53
  | Average batch size:      99.474
  | Standard deviation of batch sizes:      29.251

  Integration load balanced across     8 MPI tasks.
  Work distribution over tasks is as follows:
  Task     0 has      19692 integration points.
  Task     1 has      19727 integration points.
  Task     2 has      19692 integration points.
  Task     3 has      19612 integration points.
  Task     4 has      19667 integration points.
  Task     5 has      19655 integration points.
  Task     6 has      19669 integration points.
  Task     7 has      19654 integration points.
  Initializing partition tables, free-atom densities, potentials, etc. across the integration grid (initialize_grid_storage).
  | Net number of integration points:   157368
  | of which are non-zero points    :   156823
  Obtaining max. number of non-zero basis functions in each batch (get_n_compute_maxes).
  | Maximal number of non-zero basis functions:      273 in task     0
  | Maximal number of non-zero basis functions:      273 in task     1
  | Maximal number of non-zero basis functions:      273 in task     2
  | Maximal number of non-zero basis functions:      274 in task     3
  | Maximal number of non-zero basis functions:      274 in task     4
  | Maximal number of non-zero basis functions:      273 in task     5
  | Maximal number of non-zero basis functions:      273 in task     6
  | Maximal number of non-zero basis functions:      273 in task     7
  Integrating Hamiltonian matrix: batch-based integration.
  Time summed over all CPUs for integration: real work        4.125 s, elapsed        4.223 s
  Integrating overlap matrix.
  Time summed over all CPUs for integration: real work        2.162 s, elapsed        2.222 s

  Updating Kohn-Sham eigenvalues, eigenvectors, occupation numbers, and Fermi level.
  Solving generalized eigenproblem
  Updating Kohn-Sham eigenvalues and eigenfunctions.
  Transforming overlap matrix and checking for singularities.
  Overlap matrix is nonsingular:
  | Lowest eigenvalue:  0.386711E-03
  Solving real generalised eigenvalue problem by standard LAPACK (fast)
  Determining occupation numbers for Kohn-Sham eigenstates.
  | Chemical potential (Fermi level) in eV                 : -.67443101E+01
  | Error in electron count due to remaining E_F inaccuracy: 0.00000000E+00
  | Maximum occupation number of highest empty state:  0.00E+00

  Writing Kohn-Sham eigenvalues.

  State    Occupation    Eigenvalue [Ha]    Eigenvalue [eV]
      1       2.00000         -19.054469         -518.49849
      2       2.00000         -19.051948         -518.42989
      3       2.00000         -19.044521         -518.22778
      4       2.00000         -19.019440         -517.54529
      5       2.00000          -1.103405          -30.02517
      6       2.00000          -1.098547          -29.89299
      7       2.00000          -1.089112          -29.63626
      8       2.00000          -1.043115          -28.38462
      9       2.00000          -0.647012          -17.60610
     10       2.00000          -0.644211          -17.52987
     11       2.00000          -0.618271          -16.82401
     12       2.00000          -0.569968          -15.50963
     13       2.00000          -0.505347          -13.75119
     14       2.00000          -0.501659          -13.65084
     15       2.00000          -0.501085          -13.63520
     16       2.00000          -0.474592          -12.91431
     17       2.00000          -0.438922          -11.94366
     18       2.00000          -0.438094          -11.92114
     19       2.00000          -0.430130          -11.70442
     20       2.00000          -0.402356          -10.94867
     21       0.00000          -0.098369           -2.67676
     22       0.00000          -0.071366           -1.94196
     23       0.00000          -0.059921           -1.63053
     24       0.00000          -0.051216           -1.39365
     25       0.00000          -0.018504           -0.50351
     26       0.00000          -0.011361           -0.30914
     27       0.00000          -0.002457           -0.06686
     28       0.00000           0.046510            1.26560
     29       0.00000           0.068890            1.87458
     30       0.00000           0.076827            2.09057
     31       0.00000           0.091265            2.48344
     32       0.00000           0.098069            2.66860
     33       0.00000           0.104037            2.83099
     34       0.00000           0.110181            2.99818
     35       0.00000           0.112739            3.06778
     36       0.00000           0.119585            3.25407
     37       0.00000           0.129306            3.51860
     38       0.00000           0.140810            3.83163
     39       0.00000           0.145147            3.94964
     40       0.00000           0.162679            4.42673
     41       0.00000           0.177658            4.83431
     42       0.00000           0.188300            5.12390
     43       0.00000           0.209159            5.69150
     44       0.00000           0.225714            6.14199
     45       0.00000           0.257431            7.00506
     46       0.00000           0.261597            7.11842
     47       0.00000           0.274595            7.47212
     48       0.00000           0.284141            7.73187
     49       0.00000           0.321279            8.74244
     50       0.00000           0.335762            9.13655
     51       0.00000           0.347138            9.44612
     52       0.00000           0.373613           10.16654
     53       0.00000           0.391139           10.64343
     54       0.00000           0.402077           10.94108
     55       0.00000           0.408045           11.10347
     56       0.00000           0.417685           11.36579
     57       0.00000           0.427233           11.62561
     58       0.00000           0.434827           11.83225
     59       0.00000           0.453743           12.34697
     60       0.00000           0.473274           12.87844
     61       0.00000           0.475866           12.94898
     62       0.00000           0.490779           13.35476
     63       0.00000           0.509889           13.87478
     64       0.00000           0.550311           14.97473
     65       0.00000           0.557463           15.16935
     66       0.00000           0.569633           15.50051
     67       0.00000           0.593776           16.15747
     68       0.00000           0.624103           16.98270

  Highest occupied state (VBM) at    -10.94866570 eV
  | Occupation number:      2.00000000

  Lowest unoccupied state (CBM) at    -2.67675616 eV
  | Occupation number:      0.00000000

  Overall HOMO-LUMO gap:      8.27190954 eV.
  Calculating total energy contributions from superposition of free atom densities.

  Total energy components:
  | Sum of eigenvalues            :        -173.35241038 Ha       -4717.15909280 eV
  | XC energy correction          :         -36.39008232 Ha        -990.22452191 eV
  | XC potential correction       :          46.48391880 Ha        1264.89178751 eV
  | Free-atom electrostatic energy:        -143.21049271 Ha       -3896.95578154 eV
  | Hartree energy correction     :           0.00000000 Ha           0.00000000 eV
  | van der Waals energy corr.    :           0.00000000 Ha           0.00000000 eV
  | Entropy correction            :           0.00000000 Ha           0.00000000 eV
  | ---------------------------
  | Total energy                  :        -306.46906660 Ha       -8339.44760873 eV
  | Total energy, T -> 0          :        -306.46906660 Ha       -8339.44760873 eV  <-- do not rely on this value for anything but (periodic) metals
  | Electronic free energy        :        -306.46906660 Ha       -8339.44760873 eV

  Derived energy quantities:
  | Kinetic energy                :         303.17850729 Ha        8249.90693395 eV
  | Electrostatic energy          :        -573.25749158 Ha      -15599.13002077 eV
  | Energy correction for multipole
  | error in Hartree potential    :           0.00000000 Ha           0.00000000 eV
  | Sum of eigenvalues per atom                           :        -393.09659107 eV
  | Total energy (T->0) per atom                          :        -694.95396739 eV  <-- do not rely on this value for anything but (periodic) metals
  | Electronic free energy per atom                       :        -694.95396739 eV
  Initialize hartree_potential_storage
  Max. number of atoms included in rho_multipole:           12

  End scf initialization - timings             :  max(cpu_time)    wall_clock(cpu1)
  | Time for scf. initialization               :        1.195 s           1.195 s
  | Boundary condition initialization          :        0.000 s           0.006 s
  | Integration                                :        0.808 s           0.808 s
  | Solution of K.-S. eqns.                    :        0.119 s           0.119 s
  | Grid partitioning                          :        0.114 s           0.114 s
  | Preloading free-atom quantities on grid    :        0.014 s           0.013 s
  | Free-atom superposition energy             :        0.046 s           0.046 s
  | Total energy evaluation                    :        0.000 s           0.000 s
------------------------------------------------------------

------------------------------------------------------------
          Begin self-consistency iteration #    1

  Date     :  20150727, Time     :  121220.319
------------------------------------------------------------
  Evaluating new KS density.
  Integration grid: deviation in total charge (<rho> - N_e) =  -7.105427E-15
  Pulay mixing of updated and previous charge densities.

  Evaluating partitioned Hartree potential by multipole expansion.
  | Analytical far-field extrapolation by fixed multipoles:
  | Hartree multipole sum: apparent total charge =  -0.115646E-05
  Summing up the Hartree potential.
  Time summed over all CPUs for potential: real work        1.654 s, elapsed        1.663 s
  | RMS charge density error from multipole expansion :   0.145043E-02

  Integrating Hamiltonian matrix: batch-based integration.
  Time summed over all CPUs for integration: real work        4.106 s, elapsed        4.205 s

  Updating Kohn-Sham eigenvalues, eigenvectors, occupation numbers, and Fermi level.
  Solving generalized eigenproblem
  Updating Kohn-Sham eigenvalues and eigenfunctions.
  Solving real generalised eigenvalue problem by standard LAPACK (fast)
  Determining occupation numbers for Kohn-Sham eigenstates.
  | Chemical potential (Fermi level) in eV                 : -.62347123E+01
  | Error in electron count due to remaining E_F inaccuracy: 0.00000000E+00
  | Maximum occupation number of highest empty state:  0.00E+00

  Writing Kohn-Sham eigenvalues.

  State    Occupation    Eigenvalue [Ha]    Eigenvalue [eV]
      1       2.00000         -18.975185         -516.34104
      2       2.00000         -18.968395         -516.15630
      3       2.00000         -18.966478         -516.10412
      4       2.00000         -18.940502         -515.39729
      5       2.00000          -1.064846          -28.97592
      6       2.00000          -1.054552          -28.69581
      7       2.00000          -1.052185          -28.63140
      8       2.00000          -1.000861          -27.23482
      9       2.00000          -0.613767          -16.70144
     10       2.00000          -0.606410          -16.50126
     11       2.00000          -0.586965          -15.97213
     12       2.00000          -0.534848          -14.55396
     13       2.00000          -0.464626          -12.64313
     14       2.00000          -0.462102          -12.57444
     15       2.00000          -0.460892          -12.54150
     16       2.00000          -0.432086          -11.75767
     17       2.00000          -0.397813          -10.82503
     18       2.00000          -0.393186          -10.69915
     19       2.00000          -0.391210          -10.64536
     20       2.00000          -0.356709           -9.70653
     21       0.00000          -0.088990           -2.42154
     22       0.00000          -0.061679           -1.67838
     23       0.00000          -0.051776           -1.40891
     24       0.00000          -0.043227           -1.17627
     25       0.00000          -0.007665           -0.20857
     26       0.00000          -0.002758           -0.07506
     27       0.00000           0.004927            0.13406
     28       0.00000           0.054838            1.49221
     29       0.00000           0.077826            2.11776
     30       0.00000           0.086672            2.35848
     31       0.00000           0.100214            2.72697
     32       0.00000           0.106604            2.90085
     33       0.00000           0.110918            3.01823
     34       0.00000           0.118690            3.22973
     35       0.00000           0.121644            3.31010
     36       0.00000           0.127679            3.47431
     37       0.00000           0.137931            3.75328
     38       0.00000           0.148217            4.03318
     39       0.00000           0.154934            4.21597
     40       0.00000           0.174612            4.75143
     41       0.00000           0.186762            5.08204
     42       0.00000           0.196320            5.34214
     43       0.00000           0.216952            5.90357
     44       0.00000           0.235015            6.39508
     45       0.00000           0.267938            7.29098
     46       0.00000           0.272690            7.42027
     47       0.00000           0.284122            7.73135
     48       0.00000           0.294766            8.02100
     49       0.00000           0.331666            9.02509
     50       0.00000           0.343647            9.35110
     51       0.00000           0.354650            9.65051
     52       0.00000           0.383157           10.42624
     53       0.00000           0.400124           10.88794
     54       0.00000           0.411699           11.20289
     55       0.00000           0.417842           11.37007
     56       0.00000           0.428485           11.65968
     57       0.00000           0.438327           11.92749
     58       0.00000           0.445765           12.12988
     59       0.00000           0.463460           12.61140
     60       0.00000           0.483882           13.16709
     61       0.00000           0.486686           13.24340
     62       0.00000           0.502240           13.66664
     63       0.00000           0.522228           14.21053
     64       0.00000           0.564645           15.36477
     65       0.00000           0.569546           15.49814
     66       0.00000           0.581901           15.83432
     67       0.00000           0.606625           16.50711
     68       0.00000           0.640023           17.41590

  Highest occupied state (VBM) at     -9.70653297 eV
  | Occupation number:      2.00000000

  Lowest unoccupied state (CBM) at    -2.42154193 eV
  | Occupation number:      0.00000000

  Overall HOMO-LUMO gap:      7.28499104 eV.

  Total energy components:
  | Sum of eigenvalues            :        -171.44723521 Ha       -4665.31663883 eV
  | XC energy correction          :         -36.59348462 Ha        -995.75938022 eV
  | XC potential correction       :          46.75077227 Ha        1272.15323999 eV
  | Free-atom electrostatic energy:        -143.21049271 Ha       -3896.95578154 eV
  | Hartree energy correction     :          -1.84046572 Ha         -50.08162032 eV
  | van der Waals energy corr.    :           0.00000000 Ha           0.00000000 eV
  | Entropy correction            :           0.00000000 Ha           0.00000000 eV
  | ---------------------------
  | Total energy                  :        -306.34090599 Ha       -8335.96018092 eV
  | Total energy, T -> 0          :        -306.34090599 Ha       -8335.96018092 eV  <-- do not rely on this value for anything but (periodic) metals
  | Electronic free energy        :        -306.34090599 Ha       -8335.96018092 eV

  Derived energy quantities:
  | Kinetic energy                :         304.38591507 Ha        8282.76217140 eV
  | Electrostatic energy          :        -574.13333644 Ha      -15622.96297209 eV
  | Energy correction for multipole
  | error in Hartree potential    :          -0.00010419 Ha          -0.00283524 eV
  | Sum of eigenvalues per atom                           :        -388.77638657 eV
  | Total energy (T->0) per atom                          :        -694.66334841 eV  <-- do not rely on this value for anything but (periodic) metals
  | Electronic free energy per atom                       :        -694.66334841 eV

  Self-consistency convergence accuracy:
  | Change of charge density      : 0.6165E+00
  | Change of sum of eigenvalues  : 0.5184E+02 eV
  | Change of total energy        : 0.3487E+01 eV

  End self-consistency iteration #     1       :  max(cpu_time)    wall_clock(cpu1)
  | Time for this iteration                    :        1.138 s           1.138 s
  | Charge density update                      :        0.364 s           0.364 s
  | Density mixing                             :        0.003 s           0.002 s
  | Hartree multipole update                   :        0.004 s           0.005 s
  | Hartree multipole summation                :        0.209 s           0.208 s
  | Integration                                :        0.527 s           0.527 s
  | Solution of K.-S. eqns.                    :        0.030 s           0.031 s
  | Total energy evaluation                    :        0.000 s           0.001 s
------------------------------------------------------------

------------------------------------------------------------
          Begin self-consistency iteration #    2

  Date     :  20150727, Time     :  121221.457
------------------------------------------------------------
  Evaluating new KS density.
  Integration grid: deviation in total charge (<rho> - N_e) =   3.552714E-14
  Pulay mixing of updated and previous charge densities.

  Evaluating partitioned Hartree potential by multipole expansion.
  | Analytical far-field extrapolation by fixed multipoles:
  | Hartree multipole sum: apparent total charge =  -0.277577E-05
  Summing up the Hartree potential.
  Time summed over all CPUs for potential: real work        1.654 s, elapsed        1.664 s
  | RMS charge density error from multipole expansion :   0.572053E-02

  Integrating Hamiltonian matrix: batch-based integration.
  Time summed over all CPUs for integration: real work        4.102 s, elapsed        4.205 s

  Updating Kohn-Sham eigenvalues, eigenvectors, occupation numbers, and Fermi level.
  Solving generalized eigenproblem
  Updating Kohn-Sham eigenvalues and eigenfunctions.
  Solving real generalised eigenvalue problem by standard LAPACK (fast)
  Determining occupation numbers for Kohn-Sham eigenstates.
  | Chemical potential (Fermi level) in eV                 : -.49696234E+01
  | Error in electron count due to remaining E_F inaccuracy: 0.00000000E+00
  | Maximum occupation number of highest empty state:  0.00E+00

  Highest occupied state (VBM) at     -6.86238902 eV
  | Occupation number:      2.00000000

  Lowest unoccupied state (CBM) at    -1.85484027 eV
  | Occupation number:      0.00000000

  Overall HOMO-LUMO gap:      5.00754875 eV.

  Total energy components:
  | Sum of eigenvalues            :        -167.09973110 Ha       -4547.01503283 eV
  | XC energy correction          :         -37.07921005 Ha       -1008.97664168 eV
  | XC potential correction       :          47.38769180 Ha        1289.48470203 eV
  | Free-atom electrostatic energy:        -143.21049271 Ha       -3896.95578154 eV
  | Hartree energy correction     :          -6.19596982 Ha        -168.60091724 eV
  | van der Waals energy corr.    :           0.00000000 Ha           0.00000000 eV
  | Entropy correction            :           0.00000000 Ha           0.00000000 eV
  | ---------------------------
  | Total energy                  :        -306.19771189 Ha       -8332.06367125 eV
  | Total energy, T -> 0          :        -306.19771189 Ha       -8332.06367125 eV  <-- do not rely on this value for anything but (periodic) metals
  | Electronic free energy        :        -306.19771189 Ha       -8332.06367125 eV

  Derived energy quantities:
  | Kinetic energy                :         306.72507764 Ha        8346.41402354 eV
  | Electrostatic energy          :        -575.84357948 Ha      -15669.50105312 eV
  | Energy correction for multipole
  | error in Hartree potential    :          -0.00092093 Ha          -0.02505985 eV
  | Sum of eigenvalues per atom                           :        -378.91791940 eV
  | Total energy (T->0) per atom                          :        -694.33863927 eV  <-- do not rely on this value for anything but (periodic) metals
  | Electronic free energy per atom                       :        -694.33863927 eV

  Self-consistency convergence accuracy:
  | Change of charge density      : 0.4646E+00
  | Change of sum of eigenvalues  : 0.1183E+03 eV
  | Change of total energy        : 0.3897E+01 eV

  End self-consistency iteration #     2       :  max(cpu_time)    wall_clock(cpu1)
  | Time for this iteration                    :        1.136 s           1.136 s
  | Charge density update                      :        0.361 s           0.360 s
  | Density mixing                             :        0.004 s           0.005 s
  | Hartree multipole update                   :        0.004 s           0.004 s
  | Hartree multipole summation                :        0.209 s           0.209 s
  | Integration                                :        0.527 s           0.526 s
  | Solution of K.-S. eqns.                    :        0.031 s           0.031 s
  | Total energy evaluation                    :        0.000 s           0.000 s
------------------------------------------------------------

------------------------------------------------------------
          Begin self-consistency iteration #    3

  Date     :  20150727, Time     :  121222.593
------------------------------------------------------------
  Evaluating new KS density.
  Integration grid: deviation in total charge (<rho> - N_e) =   2.842171E-14
  Pulay mixing of updated and previous charge densities.

  Evaluating partitioned Hartree potential by multipole expansion.
  | Analytical far-field extrapolation by fixed multipoles:
  | Hartree multipole sum: apparent total charge =  -0.901347E-06
  Summing up the Hartree potential.
  Time summed over all CPUs for potential: real work        1.655 s, elapsed        1.663 s
  | RMS charge density error from multipole expansion :   0.117261E-01

  Integrating Hamiltonian matrix: batch-based integration.
  Time summed over all CPUs for integration: real work        4.099 s, elapsed        4.195 s

  Updating Kohn-Sham eigenvalues, eigenvectors, occupation numbers, and Fermi level.
  Solving generalized eigenproblem
  Updating Kohn-Sham eigenvalues and eigenfunctions.
  Solving real generalised eigenvalue problem by standard LAPACK (fast)
  Determining occupation numbers for Kohn-Sham eigenstates.
  | Chemical potential (Fermi level) in eV                 : -.47542068E+01
  | Error in electron count due to remaining E_F inaccuracy: 0.00000000E+00
  | Maximum occupation number of highest empty state:  0.00E+00

  Highest occupied state (VBM) at     -6.93735268 eV
  | Occupation number:      2.00000000

  Lowest unoccupied state (CBM) at    -1.71990042 eV
  | Occupation number:      0.00000000

  Overall HOMO-LUMO gap:      5.21745226 eV.

  Total energy components:
  | Sum of eigenvalues            :        -167.44209420 Ha       -4556.33120678 eV
  | XC energy correction          :         -37.04088427 Ha       -1007.93374406 eV
  | XC potential correction       :          47.33426816 Ha        1288.03097080 eV
  | Free-atom electrostatic energy:        -143.21049271 Ha       -3896.95578154 eV
  | Hartree energy correction     :          -5.83644007 Ha        -158.81761496 eV
  | van der Waals energy corr.    :           0.00000000 Ha           0.00000000 eV
  | Entropy correction            :           0.00000000 Ha           0.00000000 eV
  | ---------------------------
  | Total energy                  :        -306.19564310 Ha       -8332.00737653 eV
  | Total energy, T -> 0          :        -306.19564310 Ha       -8332.00737653 eV  <-- do not rely on this value for anything but (periodic) metals
  | Electronic free energy        :        -306.19564310 Ha       -8332.00737653 eV

  Derived energy quantities:
  | Kinetic energy                :         304.95601008 Ha        8298.27524594 eV
  | Electrostatic energy          :        -574.11076891 Ha      -15622.34887841 eV
  | Energy correction for multipole
  | error in Hartree potential    :          -0.00410224 Ha          -0.11162762 eV
  | Sum of eigenvalues per atom                           :        -379.69426723 eV
  | Total energy (T->0) per atom                          :        -694.33394804 eV  <-- do not rely on this value for anything but (periodic) metals
  | Electronic free energy per atom                       :        -694.33394804 eV

  Self-consistency convergence accuracy:
  | Change of charge density      : 0.2379E+00
  | Change of sum of eigenvalues  : -.9316E+01 eV
  | Change of total energy        : 0.5629E-01 eV

  End self-consistency iteration #     3       :  max(cpu_time)    wall_clock(cpu1)
  | Time for this iteration                    :        1.133 s           1.132 s
  | Charge density update                      :        0.358 s           0.357 s
  | Density mixing                             :        0.005 s           0.006 s
  | Hartree multipole update                   :        0.004 s           0.004 s
  | Hartree multipole summation                :        0.208 s           0.208 s
  | Integration                                :        0.526 s           0.526 s
  | Solution of K.-S. eqns.                    :        0.030 s           0.031 s
  | Total energy evaluation                    :        0.000 s           0.000 s
------------------------------------------------------------

------------------------------------------------------------
          Begin self-consistency iteration #    4

  Date     :  20150727, Time     :  121223.725
------------------------------------------------------------
  Evaluating new KS density.
  Integration grid: deviation in total charge (<rho> - N_e) =   2.131628E-14
  Pulay mixing of updated and previous charge densities.

  Evaluating partitioned Hartree potential by multipole expansion.
  | Analytical far-field extrapolation by fixed multipoles:
  | Hartree multipole sum: apparent total charge =  -0.868869E-06
  Summing up the Hartree potential.
  Time summed over all CPUs for potential: real work        1.654 s, elapsed        1.663 s
  | RMS charge density error from multipole expansion :   0.152017E-01

  Integrating Hamiltonian matrix: batch-based integration.
  Time summed over all CPUs for integration: real work        4.088 s, elapsed        4.184 s

  Updating Kohn-Sham eigenvalues, eigenvectors, occupation numbers, and Fermi level.
  Solving generalized eigenproblem
  Updating Kohn-Sham eigenvalues and eigenfunctions.
  Solving real generalised eigenvalue problem by standard LAPACK (fast)
  Determining occupation numbers for Kohn-Sham eigenstates.
  | Chemical potential (Fermi level) in eV                 : -.42013763E+01
  | Error in electron count due to remaining E_F inaccuracy: 0.00000000E+00
  | Maximum occupation number of highest empty state:  0.00E+00

  Highest occupied state (VBM) at     -5.86134810 eV
  | Occupation number:      2.00000000

  Lowest unoccupied state (CBM) at    -1.50826300 eV
  | Occupation number:      0.00000000

  Overall HOMO-LUMO gap:      4.35308509 eV.

  Total energy components:
  | Sum of eigenvalues            :        -165.96699355 Ha       -4516.19167571 eV
  | XC energy correction          :         -37.22256976 Ha       -1012.87765791 eV
  | XC potential correction       :          47.57238339 Ha        1294.51041589 eV
  | Free-atom electrostatic energy:        -143.21049271 Ha       -3896.95578154 eV
  | Hartree energy correction     :          -7.35551891 Ha        -200.15385328 eV
  | van der Waals energy corr.    :           0.00000000 Ha           0.00000000 eV
  | Entropy correction            :           0.00000000 Ha           0.00000000 eV
  | ---------------------------
  | Total energy                  :        -306.18319154 Ha       -8331.66855255 eV
  | Total energy, T -> 0          :        -306.18319154 Ha       -8331.66855255 eV  <-- do not rely on this value for anything but (periodic) metals
  | Electronic free energy        :        -306.18319154 Ha       -8331.66855255 eV

  Derived energy quantities:
  | Kinetic energy                :         305.21654040 Ha        8305.36463660 eV
  | Electrostatic energy          :        -574.17716218 Ha      -15624.15553123 eV
  | Energy correction for multipole
  | error in Hartree potential    :          -0.00543378 Ha          -0.14786070 eV
  | Sum of eigenvalues per atom                           :        -376.34930631 eV
  | Total energy (T->0) per atom                          :        -694.30571271 eV  <-- do not rely on this value for anything but (periodic) metals
  | Electronic free energy per atom                       :        -694.30571271 eV

  Self-consistency convergence accuracy:
  | Change of charge density      : 0.1397E+00
  | Change of sum of eigenvalues  : 0.4014E+02 eV
  | Change of total energy        : 0.3388E+00 eV

  End self-consistency iteration #     4       :  max(cpu_time)    wall_clock(cpu1)
  | Time for this iteration                    :        1.132 s           1.132 s
  | Charge density update                      :        0.357 s           0.357 s
  | Density mixing                             :        0.007 s           0.007 s
  | Hartree multipole update                   :        0.004 s           0.004 s
  | Hartree multipole summation                :        0.208 s           0.209 s
  | Integration                                :        0.524 s           0.524 s
  | Solution of K.-S. eqns.                    :        0.030 s           0.030 s
  | Total energy evaluation                    :        0.001 s           0.000 s
------------------------------------------------------------

------------------------------------------------------------
          Begin self-consistency iteration #    5

  Date     :  20150727, Time     :  121224.857
------------------------------------------------------------
  Evaluating new KS density.
  Integration grid: deviation in total charge (<rho> - N_e) =   0.000000E+00
  Pulay mixing of updated and previous charge densities.

  Evaluating partitioned Hartree potential by multipole expansion.
  | Analytical far-field extrapolation by fixed multipoles:
  | Hartree multipole sum: apparent total charge =  -0.632854E-06
  Summing up the Hartree potential.
  Time summed over all CPUs for potential: real work        1.654 s, elapsed        1.662 s
  | RMS charge density error from multipole expansion :   0.157271E-01

  Integrating Hamiltonian matrix: batch-based integration.
  Time summed over all CPUs for integration: real work        4.090 s, elapsed        4.190 s

  Updating Kohn-Sham eigenvalues, eigenvectors, occupation numbers, and Fermi level.
  Solving generalized eigenproblem
  Updating Kohn-Sham eigenvalues and eigenfunctions.
  Solving real generalised eigenvalue problem by standard LAPACK (fast)
  Determining occupation numbers for Kohn-Sham eigenstates.
  | Chemical potential (Fermi level) in eV                 : -.41601237E+01
  | Error in electron count due to remaining E_F inaccuracy: 0.00000000E+00
  | Maximum occupation number of highest empty state:  0.00E+00

  Highest occupied state (VBM) at     -5.67112518 eV
  | Occupation number:      2.00000000

  Lowest unoccupied state (CBM) at    -1.50442199 eV
  | Occupation number:      0.00000000

  Overall HOMO-LUMO gap:      4.16670319 eV.

  Total energy components:
  | Sum of eigenvalues            :        -165.91177465 Ha       -4514.68909318 eV
  | XC energy correction          :         -37.23021175 Ha       -1013.08560695 eV
  | XC potential correction       :          47.58211404 Ha        1294.77520057 eV
  | Free-atom electrostatic energy:        -143.21049271 Ha       -3896.95578154 eV
  | Hartree energy correction     :          -7.41248435 Ha        -201.70396171 eV
  | van der Waals energy corr.    :           0.00000000 Ha           0.00000000 eV
  | Entropy correction            :           0.00000000 Ha           0.00000000 eV
  | ---------------------------
  | Total energy                  :        -306.18284942 Ha       -8331.65924281 eV
  | Total energy, T -> 0          :        -306.18284942 Ha       -8331.65924281 eV  <-- do not rely on this value for anything but (periodic) metals
  | Electronic free energy        :        -306.18284942 Ha       -8331.65924281 eV

  Derived energy quantities:
  | Kinetic energy                :         305.21115689 Ha        8305.21814370 eV
  | Electrostatic energy          :        -574.16379455 Ha      -15623.79177955 eV
  | Energy correction for multipole
  | error in Hartree potential    :          -0.00550537 Ha          -0.14980873 eV
  | Sum of eigenvalues per atom                           :        -376.22409110 eV
  | Total energy (T->0) per atom                          :        -694.30493690 eV  <-- do not rely on this value for anything but (periodic) metals
  | Electronic free energy per atom                       :        -694.30493690 eV

  Self-consistency convergence accuracy:
  | Change of charge density      : 0.3192E-01
  | Change of sum of eigenvalues  : 0.1503E+01 eV
  | Change of total energy        : 0.9310E-02 eV

  End self-consistency iteration #     5       :  max(cpu_time)    wall_clock(cpu1)
  | Time for this iteration                    :        1.134 s           1.134 s
  | Charge density update                      :        0.358 s           0.358 s
  | Density mixing                             :        0.007 s           0.007 s
  | Hartree multipole update                   :        0.005 s           0.005 s
  | Hartree multipole summation                :        0.208 s           0.208 s
  | Integration                                :        0.525 s           0.525 s
  | Solution of K.-S. eqns.                    :        0.031 s           0.031 s
  | Total energy evaluation                    :        0.000 s           0.000 s
------------------------------------------------------------

------------------------------------------------------------
          Begin self-consistency iteration #    6

  Date     :  20150727, Time     :  121225.991
------------------------------------------------------------
  Evaluating new KS density.
  Integration grid: deviation in total charge (<rho> - N_e) =   7.105427E-15
  Pulay mixing of updated and previous charge densities.

  Evaluating partitioned Hartree potential by multipole expansion.
  | Analytical far-field extrapolation by fixed multipoles:
  | Hartree multipole sum: apparent total charge =  -0.581713E-06
  Summing up the Hartree potential.
  Time summed over all CPUs for potential: real work        1.653 s, elapsed        1.662 s
  | RMS charge density error from multipole expansion :   0.160388E-01

  Integrating Hamiltonian matrix: batch-based integration.
  Time summed over all CPUs for integration: real work        4.092 s, elapsed        4.189 s

  Updating Kohn-Sham eigenvalues, eigenvectors, occupation numbers, and Fermi level.
  Solving generalized eigenproblem
  Updating Kohn-Sham eigenvalues and eigenfunctions.
  Solving real generalised eigenvalue problem by standard LAPACK (fast)
  Determining occupation numbers for Kohn-Sham eigenstates.
  | Chemical potential (Fermi level) in eV                 : -.41229741E+01
  | Error in electron count due to remaining E_F inaccuracy: 0.00000000E+00
  | Maximum occupation number of highest empty state:  0.00E+00

  Highest occupied state (VBM) at     -5.61534495 eV
  | Occupation number:      2.00000000

  Lowest unoccupied state (CBM) at    -1.48857300 eV
  | Occupation number:      0.00000000

  Overall HOMO-LUMO gap:      4.12677196 eV.

  Total energy components:
  | Sum of eigenvalues            :        -165.81661368 Ha       -4512.09963145 eV
  | XC energy correction          :         -37.24257692 Ha       -1013.42208032 eV
  | XC potential correction       :          47.59829394 Ha        1295.21547806 eV
  | Free-atom electrostatic energy:        -143.21049271 Ha       -3896.95578154 eV
  | Hartree energy correction     :          -7.51157254 Ha        -204.40028867 eV
  | van der Waals energy corr.    :           0.00000000 Ha           0.00000000 eV
  | Entropy correction            :           0.00000000 Ha           0.00000000 eV
  | ---------------------------
  | Total energy                  :        -306.18296191 Ha       -8331.66230391 eV
  | Total energy, T -> 0          :        -306.18296191 Ha       -8331.66230391 eV  <-- do not rely on this value for anything but (periodic) metals
  | Electronic free energy        :        -306.18296191 Ha       -8331.66230391 eV

  Derived energy quantities:
  | Kinetic energy                :         305.22103429 Ha        8305.48692166 eV
  | Electrostatic energy          :        -574.16141929 Ha      -15623.72714526 eV
  | Energy correction for multipole
  | error in Hartree potential    :          -0.00560602 Ha          -0.15254766 eV
  | Sum of eigenvalues per atom                           :        -376.00830262 eV
  | Total energy (T->0) per atom                          :        -694.30519199 eV  <-- do not rely on this value for anything but (periodic) metals
  | Electronic free energy per atom                       :        -694.30519199 eV

  Self-consistency convergence accuracy:
  | Change of charge density      : 0.7919E-02
  | Change of sum of eigenvalues  : 0.2589E+01 eV
  | Change of total energy        : -.3061E-02 eV

  End self-consistency iteration #     6       :  max(cpu_time)    wall_clock(cpu1)
  | Time for this iteration                    :        1.135 s           1.136 s
  | Charge density update                      :        0.358 s           0.359 s
  | Density mixing                             :        0.008 s           0.008 s
  | Hartree multipole update                   :        0.005 s           0.005 s
  | Hartree multipole summation                :        0.208 s           0.208 s
  | Integration                                :        0.525 s           0.525 s
  | Solution of K.-S. eqns.                    :        0.031 s           0.031 s
  | Total energy evaluation                    :        0.000 s           0.000 s
------------------------------------------------------------

------------------------------------------------------------
          Begin self-consistency iteration #    7

  Date     :  20150727, Time     :  121227.127
------------------------------------------------------------
  Evaluating new KS density.
  Integration grid: deviation in total charge (<rho> - N_e) =   2.131628E-14
  Pulay mixing of updated and previous charge densities.

  Evaluating partitioned Hartree potential by multipole expansion.
  | Analytical far-field extrapolation by fixed multipoles:
  | Hartree multipole sum: apparent total charge =  -0.305293E-06
  Summing up the Hartree potential.
  Time summed over all CPUs for potential: real work        1.654 s, elapsed        1.662 s
  | RMS charge density error from multipole expansion :   0.159941E-01

  Integrating Hamiltonian matrix: batch-based integration.
  Time summed over all CPUs for integration: real work        4.091 s, elapsed        4.189 s

  Updating Kohn-Sham eigenvalues, eigenvectors, occupation numbers, and Fermi level.
  Solving generalized eigenproblem
  Updating Kohn-Sham eigenvalues and eigenfunctions.
  Solving real generalised eigenvalue problem by standard LAPACK (fast)
  Determining occupation numbers for Kohn-Sham eigenstates.
  | Chemical potential (Fermi level) in eV                 : -.41858450E+01
  | Error in electron count due to remaining E_F inaccuracy: 0.00000000E+00
  | Maximum occupation number of highest empty state:  0.00E+00

  Highest occupied state (VBM) at     -5.72774142 eV
  | Occupation number:      2.00000000

  Lowest unoccupied state (CBM) at    -1.51503630 eV
  | Occupation number:      0.00000000

  Overall HOMO-LUMO gap:      4.21270512 eV.

  Total energy components:
  | Sum of eigenvalues            :        -165.95946929 Ha       -4515.98693032 eV
  | XC energy correction          :         -37.22495281 Ha       -1012.94250398 eV
  | XC potential correction       :          47.57475180 Ha        1294.57486372 eV
  | Free-atom electrostatic energy:        -143.21049271 Ha       -3896.95578154 eV
  | Hartree energy correction     :          -7.36267204 Ha        -200.34849970 eV
  | van der Waals energy corr.    :           0.00000000 Ha           0.00000000 eV
  | Entropy correction            :           0.00000000 Ha           0.00000000 eV
  | ---------------------------
  | Total energy                  :        -306.18283505 Ha       -8331.65885181 eV
  | Total energy, T -> 0          :        -306.18283505 Ha       -8331.65885181 eV  <-- do not rely on this value for anything but (periodic) metals
  | Electronic free energy        :        -306.18283505 Ha       -8331.65885181 eV

  Derived energy quantities:
  | Kinetic energy                :         305.26588518 Ha        8306.70737650 eV
  | Electrostatic energy          :        -574.22376742 Ha      -15625.42372433 eV
  | Energy correction for multipole
  | error in Hartree potential    :          -0.00532900 Ha          -0.14500952 eV
  | Sum of eigenvalues per atom                           :        -376.33224419 eV
  | Total energy (T->0) per atom                          :        -694.30490432 eV  <-- do not rely on this value for anything but (periodic) metals
  | Electronic free energy per atom                       :        -694.30490432 eV

  Self-consistency convergence accuracy:
  | Change of charge density      : 0.1087E-01
  | Change of sum of eigenvalues  : -.3887E+01 eV
  | Change of total energy        : 0.3452E-02 eV

  End self-consistency iteration #     7       :  max(cpu_time)    wall_clock(cpu1)
  | Time for this iteration                    :        1.136 s           1.137 s
  | Charge density update                      :        0.358 s           0.359 s
  | Density mixing                             :        0.010 s           0.009 s
  | Hartree multipole update                   :        0.004 s           0.005 s
  | Hartree multipole summation                :        0.208 s           0.208 s
  | Integration                                :        0.525 s           0.525 s
  | Solution of K.-S. eqns.                    :        0.031 s           0.030 s
  | Total energy evaluation                    :        0.000 s           0.000 s
------------------------------------------------------------

------------------------------------------------------------
          Begin self-consistency iteration #    8

  Date     :  20150727, Time     :  121228.264
------------------------------------------------------------
  Evaluating new KS density.
  Integration grid: deviation in total charge (<rho> - N_e) =   1.421085E-14
  Pulay mixing of updated and previous charge densities.

  Evaluating partitioned Hartree potential by multipole expansion.
  | Analytical far-field extrapolation by fixed multipoles:
  | Hartree multipole sum: apparent total charge =  -0.302992E-06
  Summing up the Hartree potential.
  Time summed over all CPUs for potential: real work        1.653 s, elapsed        1.662 s
  | RMS charge density error from multipole expansion :   0.160126E-01

  Integrating Hamiltonian matrix: batch-based integration.
  Time summed over all CPUs for integration: real work        4.084 s, elapsed        4.182 s

  Updating Kohn-Sham eigenvalues, eigenvectors, occupation numbers, and Fermi level.
  Solving generalized eigenproblem
  Updating Kohn-Sham eigenvalues and eigenfunctions.
  Solving real generalised eigenvalue problem by standard LAPACK (fast)
  Determining occupation numbers for Kohn-Sham eigenstates.
  | Chemical potential (Fermi level) in eV                 : -.41832996E+01
  | Error in electron count due to remaining E_F inaccuracy: 0.00000000E+00
  | Maximum occupation number of highest empty state:  0.00E+00

  Highest occupied state (VBM) at     -5.72011382 eV
  | Occupation number:      2.00000000

  Lowest unoccupied state (CBM) at    -1.51420950 eV
  | Occupation number:      0.00000000

  Overall HOMO-LUMO gap:      4.20590432 eV.

  Total energy components:
  | Sum of eigenvalues            :        -165.95389685 Ha       -4515.83529656 eV
  | XC energy correction          :         -37.22566004 Ha       -1012.96174875 eV
  | XC potential correction       :          47.57567749 Ha        1294.60005295 eV
  | Free-atom electrostatic energy:        -143.21049271 Ha       -3896.95578154 eV
  | Hartree energy correction     :          -7.36846323 Ha        -200.50608611 eV
  | van der Waals energy corr.    :           0.00000000 Ha           0.00000000 eV
  | Entropy correction            :           0.00000000 Ha           0.00000000 eV
  | ---------------------------
  | Total energy                  :        -306.18283535 Ha       -8331.65886001 eV
  | Total energy, T -> 0          :        -306.18283535 Ha       -8331.65886001 eV  <-- do not rely on this value for anything but (periodic) metals
  | Electronic free energy        :        -306.18283535 Ha       -8331.65886001 eV

  Derived energy quantities:
  | Kinetic energy                :         305.26617719 Ha        8306.71532248 eV
  | Electrostatic energy          :        -574.22335250 Ha      -15625.41243374 eV
  | Energy correction for multipole
  | error in Hartree potential    :          -0.00533408 Ha          -0.14514776 eV
  | Sum of eigenvalues per atom                           :        -376.31960805 eV
  | Total energy (T->0) per atom                          :        -694.30490500 eV  <-- do not rely on this value for anything but (periodic) metals
  | Electronic free energy per atom                       :        -694.30490500 eV

  Self-consistency convergence accuracy:
  | Change of charge density      : 0.1032E-02
  | Change of sum of eigenvalues  : 0.1516E+00 eV
  | Change of total energy        : -.8202E-05 eV

  End self-consistency iteration #     8       :  max(cpu_time)    wall_clock(cpu1)
  | Time for this iteration                    :        1.138 s           1.137 s
  | Charge density update                      :        0.359 s           0.359 s
  | Density mixing                             :        0.011 s           0.010 s
  | Hartree multipole update                   :        0.004 s           0.005 s
  | Hartree multipole summation                :        0.208 s           0.208 s
  | Integration                                :        0.523 s           0.524 s
  | Solution of K.-S. eqns.                    :        0.031 s           0.031 s
  | Total energy evaluation                    :        0.000 s           0.000 s
------------------------------------------------------------

------------------------------------------------------------
          Begin self-consistency iteration #    9

  Date     :  20150727, Time     :  121229.401
------------------------------------------------------------
  Evaluating new KS density.
  Integration grid: deviation in total charge (<rho> - N_e) =   1.421085E-14
  Pulay mixing of updated and previous charge densities.

  Evaluating partitioned Hartree potential by multipole expansion.
  | Analytical far-field extrapolation by fixed multipoles:
  | Hartree multipole sum: apparent total charge =  -0.298496E-06
  Summing up the Hartree potential.
  Time summed over all CPUs for potential: real work        1.654 s, elapsed        1.664 s
  | RMS charge density error from multipole expansion :   0.160138E-01

  Integrating Hamiltonian matrix: batch-based integration.
  Time summed over all CPUs for integration: real work        4.079 s, elapsed        4.172 s

  Updating Kohn-Sham eigenvalues, eigenvectors, occupation numbers, and Fermi level.
  Solving generalized eigenproblem
  Updating Kohn-Sham eigenvalues and eigenfunctions.
  Solving real generalised eigenvalue problem by standard LAPACK (fast)
  Determining occupation numbers for Kohn-Sham eigenstates.
  | Chemical potential (Fermi level) in eV                 : -.41837773E+01
  | Error in electron count due to remaining E_F inaccuracy: 0.00000000E+00
  | Maximum occupation number of highest empty state:  0.00E+00

  Highest occupied state (VBM) at     -5.72144153 eV
  | Occupation number:      2.00000000

  Lowest unoccupied state (CBM) at    -1.51423402 eV
  | Occupation number:      0.00000000

  Overall HOMO-LUMO gap:      4.20720751 eV.

  Total energy components:
  | Sum of eigenvalues            :        -165.95424430 Ha       -4515.84475110 eV
  | XC energy correction          :         -37.22559772 Ha       -1012.96005270 eV
  | XC potential correction       :          47.57558957 Ha        1294.59766062 eV
  | Free-atom electrostatic energy:        -143.21049271 Ha       -3896.95578154 eV
  | Hartree energy correction     :          -7.36808981 Ha        -200.49592477 eV
  | van der Waals energy corr.    :           0.00000000 Ha           0.00000000 eV
  | Entropy correction            :           0.00000000 Ha           0.00000000 eV
  | ---------------------------
  | Total energy                  :        -306.18283496 Ha       -8331.65884949 eV
  | Total energy, T -> 0          :        -306.18283496 Ha       -8331.65884949 eV  <-- do not rely on this value for anything but (periodic) metals
  | Electronic free energy        :        -306.18283496 Ha       -8331.65884949 eV

  Derived energy quantities:
  | Kinetic energy                :         305.26784446 Ha        8306.76069107 eV
  | Electrostatic energy          :        -574.22508171 Ha      -15625.45948786 eV
  | Energy correction for multipole
  | error in Hartree potential    :          -0.00532799 Ha          -0.14498205 eV
  | Sum of eigenvalues per atom                           :        -376.32039593 eV
  | Total energy (T->0) per atom                          :        -694.30490412 eV  <-- do not rely on this value for anything but (periodic) metals
  | Electronic free energy per atom                       :        -694.30490412 eV

  Self-consistency convergence accuracy:
  | Change of charge density      : 0.6405E-03
  | Change of sum of eigenvalues  : -.9455E-02 eV
  | Change of total energy        : 0.1053E-04 eV

  End self-consistency iteration #     9       :  max(cpu_time)    wall_clock(cpu1)
  | Time for this iteration                    :        1.137 s           1.137 s
  | Charge density update                      :        0.358 s           0.358 s
  | Density mixing                             :        0.012 s           0.012 s
  | Hartree multipole update                   :        0.004 s           0.005 s
  | Hartree multipole summation                :        0.209 s           0.208 s
  | Integration                                :        0.523 s           0.523 s
  | Solution of K.-S. eqns.                    :        0.030 s           0.031 s
  | Total energy evaluation                    :        0.000 s           0.000 s
------------------------------------------------------------

------------------------------------------------------------
          Begin self-consistency iteration #   10

  Date     :  20150727, Time     :  121230.538
------------------------------------------------------------
  Evaluating new KS density.
  Integration grid: deviation in total charge (<rho> - N_e) =   3.552714E-14
  Pulay mixing of updated and previous charge densities.

  Evaluating partitioned Hartree potential by multipole expansion.
  | Analytical far-field extrapolation by fixed multipoles:
  | Hartree multipole sum: apparent total charge =  -0.295277E-06
  Summing up the Hartree potential.
  Time summed over all CPUs for potential: real work        1.654 s, elapsed        1.662 s
  | RMS charge density error from multipole expansion :   0.160162E-01

  Integrating Hamiltonian matrix: batch-based integration.
  Time summed over all CPUs for integration: real work        4.081 s, elapsed        4.171 s

  Updating Kohn-Sham eigenvalues, eigenvectors, occupation numbers, and Fermi level.
  Solving generalized eigenproblem
[...]
  |                                 -0.01056776       0.12160194       0.00701069
  |                                 -0.00557004       0.00701069       0.11414556
  ----------------------------------------------------------------------


  Total energy components:
  | Sum of eigenvalues            :        -165.95352196 Ha       -4515.82509529 eV
  | XC energy correction          :         -37.22565275 Ha       -1012.96155012 eV
  | XC potential correction       :          47.57565875 Ha        1294.59954306 eV
  | Free-atom electrostatic energy:        -143.21049271 Ha       -3896.95578154 eV
  | Hartree energy correction     :          -7.36882616 Ha        -200.51596206 eV
  | van der Waals energy corr.    :          -0.00160009 Ha          -0.04354073 eV
  | Entropy correction            :           0.00000000 Ha           0.00000000 eV
  | ---------------------------
  | Total energy                  :        -306.18443493 Ha       -8331.70238669 eV
  | Total energy, T -> 0          :        -306.18443493 Ha       -8331.70238669 eV  <-- do not rely on this value for anything but (periodic) metals
  | Electronic free energy        :        -306.18443493 Ha       -8331.70238669 eV

  Derived energy quantities:
  | Kinetic energy                :         305.26877093 Ha        8306.78590154 eV
  | Electrostatic energy          :        -574.22595302 Ha      -15625.48319737 eV
  | Energy correction for multipole
  | error in Hartree potential    :          -0.00532275 Ha          -0.14483940 eV
  | Sum of eigenvalues per atom                           :        -376.31875794 eV
  | Total energy (T->0) per atom                          :        -694.30853222 eV  <-- do not rely on this value for anything but (periodic) metals
  | Electronic free energy per atom                       :        -694.30853222 eV

  atomic forces [eV/Ang]:
  -----------------------
  atom #    1
   Hellmann-Feynman + Multipole  : -.754757E+01 -.116997E+02 0.382343E+01
   Pulay + GGA                   : 0.746211E+01 0.154736E+02 -.596283E+01
   Van der Waals               : 0.246192E-02 0.360839E-02 -.153188E-02
   ----------------------------------------------------------------
   Total forces(   1)            : -.829997E-01 0.377756E+01 -.214093E+01
  atom #    2
   Hellmann-Feynman + Multipole  : 0.234850E+01 -.354025E+01 0.154506E+01
   Pulay + GGA                   : -.438325E-01 0.109224E+00 -.617634E-01
   Van der Waals               : 0.790696E-03 0.171906E-02 0.284164E-02
   ----------------------------------------------------------------
   Total forces(   2)            : 0.230546E+01 -.342931E+01 0.148614E+01
  atom #    3
   Hellmann-Feynman + Multipole  : -.216658E+01 -.247803E+00 -.163392E+00
   Pulay + GGA                   : 0.133004E+00 0.336655E-01 -.808555E-02
   Van der Waals               : 0.171967E-02 0.364715E-02 0.169047E-02
   ----------------------------------------------------------------
   Total forces(   3)            : -.203186E+01 -.210491E+00 -.169787E+00
  atom #    4
   Hellmann-Feynman + Multipole  : 0.840626E+01 -.508404E+01 -.151974E+02
   Pulay + GGA                   : -.875934E+01 0.365860E+01 0.147715E+02
   Van der Waals               : -.274991E-04 0.498001E-02 0.634417E-02
   ----------------------------------------------------------------
   Total forces(   4)            : -.353099E+00 -.142046E+01 -.419609E+00
  atom #    5
   Hellmann-Feynman + Multipole  : -.499686E+00 0.406773E+00 0.838930E+00
   Pulay + GGA                   : 0.449214E-01 0.901733E-01 0.114619E+00
   Van der Waals               : -.780932E-03 0.348746E-02 -.937368E-03
   ----------------------------------------------------------------
   Total forces(   5)            : -.455545E+00 0.500434E+00 0.952611E+00
  atom #    6
   Hellmann-Feynman + Multipole  : 0.709477E+00 0.865823E+00 0.261316E+00
   Pulay + GGA                   : -.114743E+00 -.618627E-01 0.605185E-01
   Van der Waals               : 0.973969E-03 0.177179E-02 -.124662E-02
   ----------------------------------------------------------------
   Total forces(   6)            : 0.595708E+00 0.805732E+00 0.320588E+00
  atom #    7
   Hellmann-Feynman + Multipole  : -.204610E+01 -.331104E+01 -.169757E+02
   Pulay + GGA                   : 0.278142E+01 0.366992E+01 0.153957E+02
   Van der Waals               : -.116731E-01 -.572770E-02 -.119693E-02
   ----------------------------------------------------------------
   Total forces(   7)            : 0.723642E+00 0.353149E+00 -.158123E+01
  atom #    8
   Hellmann-Feynman + Multipole  : -.519258E+00 -.321563E+00 0.327425E+00
   Pulay + GGA                   : 0.104728E+00 0.732992E-01 0.562444E-01
   Van der Waals               : -.187471E-02 -.759822E-03 -.286724E-03
   ----------------------------------------------------------------
   Total forces(   8)            : -.416405E+00 -.249023E+00 0.383383E+00
  atom #    9
   Hellmann-Feynman + Multipole  : -.274510E+00 -.326921E-01 0.106115E+01
   Pulay + GGA                   : -.821513E-01 -.488123E-01 0.101388E+00
   Van der Waals               : -.448253E-02 -.300879E-03 -.310156E-02
   ----------------------------------------------------------------
   Total forces(   9)            : -.361144E+00 -.818052E-01 0.115943E+01
  atom #   10
   Hellmann-Feynman + Multipole  : 0.917028E+00 -.160914E+02 0.191998E+01
   Pulay + GGA                   : 0.431981E+00 0.162185E+02 -.372447E+01
   Van der Waals               : 0.704039E-02 -.725812E-02 -.208515E-02
   ----------------------------------------------------------------
   Total forces(  10)            : 0.135605E+01 0.119863E+00 -.180658E+01
  atom #   11
   Hellmann-Feynman + Multipole  : -.235584E+00 0.545760E+00 0.188743E+00
   Pulay + GGA                   : -.784590E-01 0.964867E-01 0.869829E-01
   Van der Waals               : 0.110712E-02 -.108321E-02 -.375395E-03
   ----------------------------------------------------------------
   Total forces(  11)            : -.312936E+00 0.641164E+00 0.275350E+00
  atom #   12
   Hellmann-Feynman + Multipole  : -.101968E+01 -.868595E+00 0.164175E+01
   Pulay + GGA                   : 0.537126E-01 0.710257E-01 -.108537E+00
   Van der Waals               : 0.474500E-02 -.408413E-02 -.114646E-03
   ----------------------------------------------------------------
   Total forces(  12)            : -.961221E+00 -.801653E+00 0.153309E+01
  Timings for vdw_correction_hirshfeld (Tkatchenko-Scheffler 2009):
  | CPU time:        2.989 s, Wall clock time:        2.989 s.
  Removing unitary transformations (pure translations, rotations) from forces on atoms.
  Atomic forces before filtering:
  | Net force on center of mass :  0.565236E-02 0.516505E-02 -.753134E-02 eV/A
  | Net torque on center of mass:  0.957330E-02 -.689662E-02 -.550036E-02 eV
  Atomic forces after filtering:
  | Net force on center of mass :  -.178406E-15 0.624421E-15 0.713624E-15 eV/A
  | Net torque on center of mass:  0.151054E-14 -.151054E-14 -.755268E-15 eV
 
  Energy and forces in a compact form:
  | Total energy uncorrected      :         -0.833170238669159E+04 eV
  | Total energy corrected        :         -0.833170238669159E+04 eV  <-- do not rely on this value for anything but (periodic) metals
  | Electronic free energy        :         -0.833170238669159E+04 eV
  Total atomic forces (unitary forces cleaned) [eV/Ang]:
  |   1         -0.835996935272305E-01          0.377678907555679E+01         -0.213998888146371E+01
  |   2          0.230467085764153E+01         -0.343021338345912E+01          0.148701153171957E+01
  |   3         -0.203248330792949E+01         -0.211126784372084E+00         -0.169076617900087E+00
  |   4         -0.353204462581950E+00         -0.142086512608489E+01         -0.418517195669131E+00
  |   5         -0.455641179075036E+00          0.500155859058264E+00          0.953532964513440E+00
  |   6          0.595715879162236E+00          0.805270990480415E+00          0.321911968214239E+00
  |   7          0.723045635551670E+00          0.352992934231773E+00         -0.158116335706787E+01
  |   8         -0.417006777209445E+00         -0.249024314995655E+00          0.383220286884446E+00
  |   9         -0.361573495640066E+00         -0.819107994174881E-01          0.115965386181501E+01
  |  10          0.135551155388387E+01          0.119399399464527E+00         -0.180599391304938E+01
  |  11         -0.313474766125721E+00          0.640723674000225E+00          0.275898981619977E+00
  |  12         -0.961960244150370E+00         -0.802191524462747E+00          0.153351037038349E+01
 
  ------------------------------------ 
  Start decomposition of the XC Energy 
  ------------------------------------ 
  Hartree-Fock part   :          0.000000000 Ha              0.000000000 eV
  ------------------------------------ 
  X Energy            :        -35.930179074 Ha           -977.709917929 eV
  C Energy GGA        :         -1.295473672 Ha            -35.251632195 eV
  Total XC Energy     :        -37.225652746 Ha          -1012.961550125 eV
  LDA X and C from self-consistent density 
  X Energy LDA        :        -32.346895153 Ha           -880.203801389 eV
  C Energy LDA        :         -2.633892122 Ha            -71.671851253 eV
  ------------------------------------ 
  End decomposition of the XC Energy 
  ------------------------------------ 
  Performing Hirshfeld analysis of fragment charges and moments.
  ----------------------------------------------------------------------
  | Atom     1: O
  |   Hirshfeld charge        :     -0.27680053
  |   Free atom volume        :     23.95238533
  |   Hirshfeld volume        :     22.51999748
  |   Hirshfeld dipole vector :      0.02054660       0.03934911       0.02471816
  |   Hirshfeld dipole moment :      0.05080849
  |   Hirshfeld second moments:      0.05409906      -0.02037990       0.01930716
  |                                 -0.02037990      -0.00359062      -0.03405749
  |                                  0.01930716      -0.03405749      -0.05025437
  ----------------------------------------------------------------------
  | Atom     2: H
  |   Hirshfeld charge        :      0.13831242
  |   Free atom volume        :     10.44207651
  |   Hirshfeld volume        :      6.83352466
  |   Hirshfeld dipole vector :     -0.06450397       0.09237004      -0.03313222
  |   Hirshfeld dipole moment :      0.11743394
  |   Hirshfeld second moments:      0.12069177       0.00495002       0.00542468
  |                                  0.00495002       0.09214259      -0.00740603
  |                                  0.00542468      -0.00740603       0.08882082
  ----------------------------------------------------------------------
  | Atom     3: H
  |   Hirshfeld charge        :      0.13045923
  |   Free atom volume        :     10.44207651
  |   Hirshfeld volume        :      7.17858685
  |   Hirshfeld dipole vector :      0.11212994       0.01718329       0.01396607
  |   Hirshfeld dipole moment :      0.11429541
  |   Hirshfeld second moments:      0.10063303      -0.01782728      -0.00339908
  |                                 -0.01782728       0.09823337      -0.01464830
  |                                 -0.00339908      -0.01464830       0.08333980
  ----------------------------------------------------------------------
  | Atom     4: O
  |   Hirshfeld charge        :     -0.28222010
  |   Free atom volume        :     23.95238533
  |   Hirshfeld volume        :     21.67763405
  |   Hirshfeld dipole vector :     -0.03047451       0.02033559       0.01948665
  |   Hirshfeld dipole moment :      0.04149653
  |   Hirshfeld second moments:      0.03170979       0.05710354      -0.00834523
  |                                  0.05710354       0.03529781       0.02615579
  |                                 -0.00834523       0.02615579       0.00709458
  ----------------------------------------------------------------------
  | Atom     5: H
  |   Hirshfeld charge        :      0.13080992
  |   Free atom volume        :     10.44207651
  |   Hirshfeld volume        :      6.98411973
  |   Hirshfeld dipole vector :      0.03611547       0.08861590       0.06018028
  |   Hirshfeld dipole moment :      0.11304323
  |   Hirshfeld second moments:      0.10934398       0.01907449      -0.00614244
  |                                  0.01907449       0.08680313       0.00115523
  |                                 -0.00614244       0.00115523       0.10029813
  ----------------------------------------------------------------------
  | Atom     6: H
  |   Hirshfeld charge        :      0.14578863
  |   Free atom volume        :     10.44207651
  |   Hirshfeld volume        :      6.40857788
  |   Hirshfeld dipole vector :     -0.10395163      -0.06451179       0.02215971
  |   Hirshfeld dipole moment :      0.12433328
  |   Hirshfeld second moments:      0.10449493       0.01276860       0.00055638
  |                                  0.01276860       0.11837260       0.01348426
  |                                  0.00055638       0.01348426       0.11118670
  ----------------------------------------------------------------------
  | Atom     7: O
  |   Hirshfeld charge        :     -0.29164041
  |   Free atom volume        :     23.95238533
  |   Hirshfeld volume        :     21.47009370
  |   Hirshfeld dipole vector :      0.00666207       0.00653089       0.05676508
  |   Hirshfeld dipole moment :      0.05752661
  |   Hirshfeld second moments:      0.05707782       0.05564464      -0.01562666
  |                                  0.05564464       0.00591621      -0.00298235
  |                                 -0.01562666      -0.00298235       0.01712590
  ----------------------------------------------------------------------
  | Atom     8: H
  |   Hirshfeld charge        :      0.15306309
  |   Free atom volume        :     10.44207651
  |   Hirshfeld volume        :      6.07959068
  |   Hirshfeld dipole vector :      0.10096646       0.06788202       0.03689393
  |   Hirshfeld dipole moment :      0.12713519
  |   Hirshfeld second moments:      0.12168101       0.01128956      -0.01290726
  |                                  0.01128956       0.10912458      -0.00612134
  |                                 -0.01290726      -0.00612134       0.12446941
  ----------------------------------------------------------------------
  | Atom     9: H
  |   Hirshfeld charge        :      0.14465726
  |   Free atom volume        :     10.44207651
  |   Hirshfeld volume        :      6.70233587
  |   Hirshfeld dipole vector :     -0.06714423      -0.04176218       0.08355056
  |   Hirshfeld dipole moment :      0.11503531
  |   Hirshfeld second moments:      0.10468088       0.01507987       0.01198119
  |                                  0.01507987       0.10507648       0.00187185
  |                                  0.01198119       0.00187185       0.10890020
  ----------------------------------------------------------------------
  | Atom    10: O
  |   Hirshfeld charge        :     -0.28787287
  |   Free atom volume        :     23.95238533
  |   Hirshfeld volume        :     21.64948066
  |   Hirshfeld dipole vector :     -0.00151592       0.05046347      -0.00959260
  |   Hirshfeld dipole moment :      0.05138947
  |   Hirshfeld second moments:      0.00517862      -0.01881399      -0.06077661
  |                                 -0.01881399       0.01708490       0.00302498
  |                                 -0.06077661       0.00302498       0.04053109
  ----------------------------------------------------------------------
  | Atom    11: H
  |   Hirshfeld charge        :      0.14388759
  |   Free atom volume        :     10.44207651
  |   Hirshfeld volume        :      6.12613050
  |   Hirshfeld dipole vector :     -0.06369415       0.08679472       0.06614085
  |   Hirshfeld dipole moment :      0.12635221
  |   Hirshfeld second moments:      0.11084504       0.00206354      -0.01703918
  |                                  0.00206354       0.11447022      -0.00860953
  |                                 -0.01703918      -0.00860953       0.12424249
  ----------------------------------------------------------------------
  | Atom    12: H
  |   Hirshfeld charge        :      0.15148700
  |   Free atom volume        :     10.44207651
  |   Hirshfeld volume        :      6.46209618
  |   Hirshfeld dipole vector :      0.05124457       0.05360453      -0.09222191
  |   Hirshfeld dipole moment :      0.11833990
  |   Hirshfeld second moments:      0.09616137      -0.01056776      -0.00557004
  |                                 -0.01056776       0.12160194       0.00701069
  |                                 -0.00557004       0.00701069       0.11414556
  ----------------------------------------------------------------------


------------------------------------------------------------------------------
  Final output of selected total energy values:

  The following output summarizes some interesting total energy values
  at the end of a run (AFTER all relaxation, molecular dynamics, etc.).

  | Total energy of the DFT / Hartree-Fock s.c.f. calculation      :          -8331.702386692 eV
  | Final zero-broadening corrected energy (caution - metals only) :          -8331.702386692 eV
  | For reference only, the value of 1 Hartree used in FHI-aims is :             27.211384500 eV

  Before relying on these values, please be sure to understand exactly which
  total energy value is referred to by a given number. Different objects may
  all carry the same name 'total energy'. Definitions:

  Total energy of the DFT / Hartree-Fock s.c.f. calculation:
  | Note that this energy does not include ANY quantities calculated after the
  | s.c.f. cycle, in particular not ANY RPA, MP2, etc. many-body perturbation terms.

  Final zero-broadening corrected energy:
  | For metallic systems only, a broadening of the occupation numbers at the Fermi
  | level can be extrapolated back to zero broadening by an electron-gas inspired
  | formula. For all systems that are not real metals, this value can be
  | meaningless and should be avoided.

------------------------------------------------------------------------------

------------------------------------------------------------
          Leaving FHI-aims.
          Date     :  20150727, Time     :  121238.517

          Computational steps:
          | Number of self-consistency cycles          :           14

          Detailed time accounting                     :  max(cpu_time)    wall_clock(cpu1)
          | Total time                                 :       20.197 s          20.231 s
          | Preparation time                           :        0.171 s           0.805 s
          | Grid partitioning                          :        0.114 s           0.114 s
          | Preloading free-atom quantities on grid    :        0.014 s           0.013 s
          | Free-atom superposition energy             :        0.046 s           0.046 s
          | Total time for integrations                :        8.143 s           8.143 s
          | Total time for solution of K.-S. equations :        0.549 s           0.551 s
          | Total time for density & force components  :        6.525 s           6.527 s
          | Total time for mixing                      :        0.134 s           0.134 s
          | Total time for Hartree multipole update    :        0.059 s           0.063 s
          | Total time for Hartree multipole sum       :        3.605 s           3.606 s
          | Total time for total energy evaluation     :        0.002 s           0.003 s
          | Total time for scaled ZORA corrections     :        0.000 s           0.000 s
          | Total time for TS (2009) vdW correction    :        0.034 s           0.035 s

          Have a nice day.
------------------------------------------------------------
