  MPI-parallelism will be employed.
------------------------------------------------------------
          Invoking FHI-aims ...
          Version 081213
          Compiled on 2013/08/29 at 17:41:06 on host generoso.

          When using FHI-aims, please cite the following reference:

          Volker Blum, Ralf Gehrke, Felix Hanke, Paula Havu,
          Ville Havu, Xinguo Ren, Karsten Reuter, and Matthias Scheffler,
          'Ab Initio Molecular Simulations with Numeric Atom-Centered Orbitals: FHI-aims',
          Computer Physics Communications 180, 2175-2196 (2009)

          For any questions about FHI-aims, please visit the aimsclub website
          with its forums and wiki. Contributions to both the forums and the
          wiki are warmly encouraged - they are for you, and everyone is welcome there.

------------------------------------------------------------

  Date     :  20150727, Time     :  122350.103
  Time zero on CPU 1             :   0.399930000000000E-01  s.
  Internal wall clock time zero  :           207231830.103  s.

  Using        8 parallel tasks.
  Task        0 on host gen60 reporting.
  Task        1 on host gen60 reporting.
  Task        2 on host gen60 reporting.
  Task        3 on host gen60 reporting.
  Task        4 on host gen60 reporting.
  Task        5 on host gen60 reporting.
  Task        6 on host gen60 reporting.
  Task        7 on host gen60 reporting.

  Performing system and environment tests:
  | Environment variable OMP_NUM_THREADS correctly set to 1.
  | Checking for scalapack...
  | No scalapack compiled in.

  Obtaining array dimensions for all initial allocations:
  
  -----------------------------------------------------------------------
  Parsing control.in (first pass over file, find array dimensions only).
  The contents of control.in will be repeated verbatim below
  unless switched off by setting 'verbatim_writeout .false.' .
  in the first line of control.in .
  -----------------------------------------------------------------------
  
  #########################################################################################
  #
  #  Volker Blum, FHI 2008 : Test run input file control.in
  #
  #########################################################################################
  #
  #  Physical model
  #
    xc                 rpbe
    spin               none
    relativistic       atomic_zora scalar
    charge             0.
   vdw_correction_hirshfeld
  #
  #  SCF convergence
  #
    occupation_type    gaussian 0.01
    mixer              pulay
      n_max_pulay        10
      charge_mix_param   0.1
    sc_accuracy_rho    5E-5
    sc_accuracy_eev    5E-3
    sc_accuracy_etot   5E-6
    sc_iter_limit      3000
  #
  #  Eigenvalue solver
  #
    KS_method          lapack
      empty_states       8
      basis_threshold    0.e-5
  #
  #  Efficiency
  #
  #   all previous settings are now default, except stratmann still
  #   undecided. Continue to handle stratmann with care, if at all.
  #
  #  partition_type stratmann
    partition_type rho_r2
  #  hartree_partition_type stratmann
  #
  #  Oprions for large clusters (100's of atoms: memory saving / better scaling)
  #
  # for periodic systems:
  #
    density_update_method orbital
    packed_matrix_format none
  #  k_grid 6 6 6
  #  output k_eigenvalue 1
  #  distributed_spline_storage .true.
  #
  #  Relaxation
  #
  #  relax_geometry   bfgs 5.e-3
    sc_accuracy_forces 5.E-4
    final_forces_cleaned .true.
  #
  #  Output options
  #
  #  output mulliken
    output Hirshfeld
  #  output dipole
  
  #harmonic_length_scale 0.001
  
  ################################################################################
  #
  #  FHI-aims code project
  #  VB, Fritz-Haber Institut, 2007
  #
  #  Suggested "safe" defaults for H atom (to be pasted into control.in file)
  #  Basis constructed for a non-relativistic H2 molecule using the
  #  PW-LDA functional.
  #
  ################################################################################
    species        H
  #     global species definitions
      nucleus             1
      cut_pot             4.0  2.0  1.0
      cut_free_atom       finite 8.0
      logarithmic         0.00010000 100.00  1.0123
      basis_dep_cutoff    1d-4  # 1d-4 is safe default - please check 5d-4 if you wish!
      radial_base         24 7.0
      radial_multiplier   2
      angular_grids       specified
        division   0.2783  110
        division   0.3822  194
        division   0.5626  302
  #      division   0.5922  434
  #      division   0.6227  590
  #      division   0.7206  770
        outer_grid  302
      l_hartree           4
  ################################################################################
  #
  #  Definition of "minimal" basis
  #
  ################################################################################
  #     valence basis states
      valence      1  s   1.
  #     ion occupancy
      ion_occ      1  s   0.5
  ################################################################################
  #
  #  Suggested additional basis functions. For production calculations,
  #  uncomment them one after another (the most important basis functions are
  #  listed first).
  #
  ################################################################################
  #  "First tier" - improvements: -1014.90 meV to -62.69 meV
       hydro 2 s 2.1
       hydro 2 p 3.5
  #  "Second tier" - improvements: -12.89 meV to -1.83 meV
       hydro 1 s 0.85
       hydro 2 p 3.7
       hydro 2 s 1.2
       hydro 3 d 7
  #  "Third tier" - improvements: -0.25 meV to -0.12 meV
  #     hydro 4 f 11.2
  #     hydro 3 p 4.8
  #     hydro 4 d 9
  #     hydro 3 s 3.2
  
  ################################################################################
  #
  #  FHI-aims code project
  #  VB, Fritz-Haber Institut, 2007
  #
  #  Suggested "safe" defaults for O atom (to be pasted into control.in file)
  #  All values have been tested for a non-relativistic, non-spinpolarized O2
  #  molecule using the PW-LDA functional. Validity for PBE is expected.
  #
  #  Constructed for dimers: 1.0 A, 1.208 A, 1.5 A, 2.0 A, 3.0 A
  #
  ################################################################################
    species        O
  #     global species definitions
      nucleus             8
      mass                15.9994
      l_hartree           4
      cut_pot             4.0  2.0  1.0
      cut_free_atom       finite 8.0
      basis_dep_cutoff    1d-4  # 1d-4 is safe default - please check 5d-4 if you wish!
      logarithmic         0.00010000 100.00  1.0123
      radial_base         36 7.0
      radial_multiplier   2
       angular_grids specified
        division   0.4087  110
        division   0.5181  194
        division   0.6184  302
  #      division   0.7315  434
  #      division   0.7934  590
  #      division   0.9656  770
  #      division   1.4041  974
  #      outer_grid 974
        outer_grid 302
  ################################################################################
  #
  #  Definition of "minimal" basis
  #
  ################################################################################
  #     valence basis states
      valence      2  s   2.
      valence      2  p   4.
  #     ion occupancy
      ion_occ      2  s   1.
      ion_occ      2  p   3.
  ################################################################################
  #
  #  Suggested additional basis functions. For production calculations,
  #  uncomment them one after another (the most important basis functions are
  #  listed first).
  #
  ################################################################################
  #  "First tier" - improvements: -699.05 meV to -159.38 meV
       hydro 2 p 1.8
       hydro 3 d 7.6
       hydro 3 s 6.4
  #  "Second tier" - improvements: -49.91 meV to -5.39 meV
       hydro 4 f 11.6
       hydro 3 p 6.2
       hydro 3 d 5.6
       hydro 5 g 17.6
       hydro 1 s 0.75
  #  "Third tier" - improvements: -2.83 meV to -0.50 meV
  #     ionic 2 p auto
  #     hydro 4 f 10.8
  #     hydro 4 d 4.7
  #     hydro 2 s 6.8
  #  "Fourth tier" - improvements: -0.40 meV to -0.12 meV
  #     hydro 3 p 5
  #     hydro 3 s 3.3
  #     hydro 5 g 15.6
  #     hydro 4 f 17.6
  #     hydro 4 d 14
  # Further basis functions - -0.08 meV and below
  #     hydro 3 s 2.1
  #     hydro 4 d 11.6
  #     hydro 3 p 16
  #     hydro 2 s 17.2
  
  
  -----------------------------------------------------------------------
  Completed first pass over input file control.in .
  -----------------------------------------------------------------------
  
  
  -----------------------------------------------------------------------
  Parsing geometry.in (first pass over file, find array dimensions only).
  The contents of geometry.in will be repeated verbatim below
  unless switched off by setting 'verbatim_writeout .false.' .
  in the first line of geometry.in .
  -----------------------------------------------------------------------
  
  atom      -4.053030000      0.065001000     -1.525160000  O
  atom      -4.566710000      0.974813000     -1.912820000  H
  atom      -3.067820000      0.330172000     -1.477310000  H
  atom      -5.293160000      2.192130000     -2.328800000  O
  atom      -4.829300000      2.988660000     -1.973850000  H
  atom      -5.428570000      2.328640000     -3.235170000  H
  atom      -1.645860000      0.870179000     -1.502250000  O
  atom      -1.568890000      1.501730000     -0.721051000  H
  atom      -0.824432000      0.282220000     -1.377720000  H
  atom      -5.628340000      3.730740000      1.385610000  O
  atom      -6.090650000      4.418470000      1.860350000  H
  atom      -5.158540000      4.200260000      0.615875000  H
  
  -----------------------------------------------------------------------
  Completed first pass over input file geometry.in .
  -----------------------------------------------------------------------
  
 
  Basic array size parameters: 
  | Number of species                 :        2
  | Number of atoms                   :       12
  | Max. basis fn. angular momentum   :        4
  | Max. atomic/ionic basis occupied n:        2
  | Max. number of basis fn. types    :        2
  | Max. radial fns per species/type  :        8
  | Max. logarithmic grid size        :     1301
  | Max. radial integration grid size :       73
  | Max. angular integration grid size:      302
  | Max. angular grid division number :        8
  | Radial grid for Hartree potential :     1301
  | Number of spin channels           :        1

------------------------------------------------------------
          Reading file control.in.
------------------------------------------------------------
  XC: Using RPBE gradient-corrected functionals.
  Spin treatment: No spin polarisation.
  Scalar relativistic treatment of kinetic energy: on-site free-atom approximation to ZORA.
  Charge =   0.000000E+00: Neutral system requested explicitly.
  Using non-empirical van der Waals correction (Hirshfeld partitioning):
  Occupation type: Gaussian broadening, width =   0.100000E-01 eV.
  Using pulay charge density mixing.
  Pulay mixing - number of memorized iterations:   10
  Charge density mixing - mixing parameter:     0.1000
  Convergence accuracy of self-consistent charge density: 0.5000E-04
  Convergence accuracy of sum of eigenvalues: 0.5000E-02
  Convergence accuracy of total energy: 0.5000E-05
  Maximum number of s.-c. iterations  :  3000
  Kohn-Sham eigenvalues and eigenfunctions calculated by lapack diagonalisation (D&C).
  Number of empty states per atom:        8
  Threshold for basis singularities: 0.0000E+00
  Partition function in integrals calculations: rho / r^2
 Using packed matrix format           0
  Convergence accuracy of forces: 0.5000E-03
  Cleaning forces before final output.
  Hirshfeld charge analysis will be performed.
 
  Reading configuration options for species H                   .
  | Found nuclear charge :   1.0000
  | Found cutoff potl. onset [A], width [A], scale factor :    4.00000    2.00000    1.00000
  | Found cutoff specification for free atom: Cutoff potential begins at    8.00000 A.
  | Found logarithmic grid data [bohr] : 0.1000E-03 0.1000E+03 0.1012E+01
  | Threshold for basis-dependent cutoff potential is   0.100000E-03
  | Found data for basic radial integration grid :    24 points, outermost radius =    7.000 A
  | Found multiplier for basic radial grid :   2
  | Found angular grid specification: user-specified.
  | Specified grid contains     4 separate shells.
  | Check grid settings after all constraints further below.
  | Found l_max for Hartree potential  :   4
  | Found free-atom valence shell :  1 s   1.000
  | No ionic wave fns used. Skipping ion_occ.
  | Found hydrogenic basis function :  2 s   2.100
  | Found hydrogenic basis function :  2 p   3.500
  | Found hydrogenic basis function :  1 s   0.850
  | Found hydrogenic basis function :  2 p   3.700
  | Found hydrogenic basis function :  2 s   1.200
  | Found hydrogenic basis function :  3 d   7.000
  Species H                   : Missing cutoff potential type.
  Defaulting to exp(1/x)/(1-x)^2 type cutoff potential.
  Species H : On-site basis accuracy parameter (for Gram-Schmidt orthonormalisation) not specified.
  Using default value basis_acc =  0.1000000E-03.
  Species H                   : Using default innermost maximum threshold i_radial=  2 for radial functions.
  Species H                   : Basic radial grid will be enhanced according to radial_multiplier =   2, to contain    49 grid points.
 
  Reading configuration options for species O                   .
  | Found nuclear charge :   8.0000
  | Found atomic mass :    15.9994000000000      amu
  | Found l_max for Hartree potential  :   4
  | Found cutoff potl. onset [A], width [A], scale factor :    4.00000    2.00000    1.00000
  | Found cutoff specification for free atom: Cutoff potential begins at    8.00000 A.
  | Threshold for basis-dependent cutoff potential is   0.100000E-03
  | Found logarithmic grid data [bohr] : 0.1000E-03 0.1000E+03 0.1012E+01
  | Found data for basic radial integration grid :    36 points, outermost radius =    7.000 A
  | Found multiplier for basic radial grid :   2
  | Found angular grid specification: user-specified.
  | Specified grid contains     4 separate shells.
  | Check grid settings after all constraints further below.
  | Found free-atom valence shell :  2 s   2.000
  | Found free-atom valence shell :  2 p   4.000
  | No ionic wave fns used. Skipping ion_occ.
  | No ionic wave fns used. Skipping ion_occ.
  | Found hydrogenic basis function :  2 p   1.800
  | Found hydrogenic basis function :  3 d   7.600
  | Found hydrogenic basis function :  3 s   6.400
  | Found hydrogenic basis function :  4 f  11.600
  | Found hydrogenic basis function :  3 p   6.200
  | Found hydrogenic basis function :  3 d   5.600
  | Found hydrogenic basis function :  5 g  17.600
  | Found hydrogenic basis function :  1 s   0.750
  Species O                   : Missing cutoff potential type.
  Defaulting to exp(1/x)/(1-x)^2 type cutoff potential.
  Species O : On-site basis accuracy parameter (for Gram-Schmidt orthonormalisation) not specified.
  Using default value basis_acc =  0.1000000E-03.
  Species O                   : Using default innermost maximum threshold i_radial=  2 for radial functions.
  Species O                   : Basic radial grid will be enhanced according to radial_multiplier =   2, to contain    73 grid points.
 
  Finished reading input file 'control.in'. Consistency checks are next.
 
  Target number of points in a grid batch is not set. Defaulting to  100
  Method for grid partitioning is not set. Defaulting to parallel hash+maxmin partitioning.
  Batch size limit is not set. Defaulting to    200
  By default, will store active basis functions for each batch.
  If in need of memory, prune_basis_once .false. can be used to disable this option.
  communication_type for Hartree potential was not specified.
  Defaulting to calc_hartree .
  Pulay mixer: Number of initial linear mixing iterations not set.
  Defaulting to    0 iterations.
  Work space size for distributed Hartree potential not set.
  Defaulting to   0.200000E+03 MB.
  Algorithm-dependent basis array size parameters:
  | n_max_pulay                         :       10
  Geometry relaxation not requested: no relaxation will be performed.
  Handling of forces: Unphysical translation and rotation will be removed from forces.
  No accuracy limit for integral partition fn. given. Defaulting to 0.1000E-14.
  No threshold value for u(r) in integrations given. Defaulting to 0.1000E-05.
  No accuracy for occupation numbers given. Defaulting to 0.1000E-07.
  No threshold value for occupation numbers given. Defaulting to 0.0000E+00.
  No accuracy for fermi level given. Defaulting to 0.1000E-19.
  Maximum # of iterations to find E_F not set. Defaulting to  200.
  Will not use alltoall communication since running on < 1024 CPUs.
  Partitioning for Hartree potential was not defined. Using partition_type for integrals.
  | Reporting present value of keyword multip_moments_threshold  :       0.10000000E-09
  | This value may affect high angular momentum components of the Hartree potential in periodic systems.
  No q(lm)/r^(l+1) cutoff set for long-range Hartree potential.
  | Using default value of  0.100000E-09 .
  | Verify using the multipole_threshold keyword.
  Defaulting to new monopole extrapolation.
  Density update method: Loop over occupied states selected for charge density update.
------------------------------------------------------------


------------------------------------------------------------
          Reading geometry description geometry.in.
------------------------------------------------------------
  Input structure read successfully.
  The structure contains       12 atoms,  and a total of         40.000 electrons.

  Input geometry:
  | No unit cell requested.
  | Atomic structure:
  |       Atom                x [A]            y [A]            z [A]
  |    1: Species O             -4.053030         0.065001        -1.525160
  |    2: Species H             -4.566710         0.974813        -1.912820
  |    3: Species H             -3.067820         0.330172        -1.477310
  |    4: Species O             -5.293160         2.192130        -2.328800
  |    5: Species H             -4.829300         2.988660        -1.973850
  |    6: Species H             -5.428570         2.328640        -3.235170
  |    7: Species O             -1.645860         0.870179        -1.502250
  |    8: Species H             -1.568890         1.501730        -0.721051
  |    9: Species H             -0.824432         0.282220        -1.377720
  |   10: Species O             -5.628340         3.730740         1.385610
  |   11: Species H             -6.090650         4.418470         1.860350
  |   12: Species H             -5.158540         4.200260         0.615875
  |

  | The smallest distance between any two atoms is         0.92654057 AA.
  |
  | The first atom of this pair is atom number                      4 .
  | The second atom of this pair is atom number                     6 .

  Structure-dependent array size parameters: 
  | Maximum number of distinct radial functions  :       18
  | Maximum number of basis functions            :      276
  | Number of Kohn-Sham states (occupied + empty):       68
------------------------------------------------------------

------------------------------------------------------------
          Preparing all fixed parts of the calculation.
------------------------------------------------------------
  Determining machine precision:
    2.225073858507201E-308
  Setting up grids for atomic and cluster calculations.

  Creating wave function, potential, and density for free atoms.

  Species: H

  List of occupied orbitals and eigenvalues:
    n    l              occ      energy [Ha]    energy [eV]
    1    0           1.0000        -0.241408        -6.5691


  Species: O

  List of occupied orbitals and eigenvalues:
    n    l              occ      energy [Ha]    energy [eV]
    1    0           2.0000       -18.944147      -515.4965
    2    0           2.0000        -0.883529       -24.0421
    2    1           4.0000        -0.330176        -8.9845

  Creating fixed part of basis set: Ionic, confined, hydrogenic.
 
  H                    hydrogenic:
 
  List of hydrogenic basis orbitals: 
    n    l      effective z      eigenvalue [eV]  inner max. [A]     outer max. [A]     outer radius [A]   
    2    0         2.100000       -14.9965           0.193241           1.317192           5.372934
    2    1         3.500000       -41.6672           0.602363           0.602363           4.056010
    1    0         0.850000        -9.8292           0.624864           0.624864           5.372934
    2    1         3.700000       -46.5653           0.573616           0.573616           3.909951
    2    0         1.200000        -4.5995           0.334977           2.228160           5.505921
    3    2         7.000000       -74.0753           0.680692           0.680692           3.769152
 
 
  O                    hydrogenic:
 
  List of hydrogenic basis orbitals: 
    n    l      effective z      eigenvalue [eV]  inner max. [A]     outer max. [A]     outer radius [A]   
    2    1         1.800000       -11.0118           1.178546           1.178546           5.432516
    3    2         7.600000       -87.3182           0.624117           0.624117           3.541422
    3    0         6.400000       -61.9209           0.061166           1.081887           4.306510
    4    3        11.600000      -114.4238           0.731621           0.731621           3.584982
    3    1         6.200000       -58.1113           0.255677           1.030255           4.306510
    3    2         5.600000       -47.4081           0.847222           0.847222           4.413102
    5    4        17.600000      -168.5799           0.749730           0.749730           3.372413
    1    0         0.750000        -7.6499           0.705275           0.705275           5.366508
 

  Adding cutoff potential to free-atom effective potential.
  Creating atomic-like basis functions for current effective potential.

  Species H                   :

  List of atomic basis orbitals and eigenvalues:
    n    l      energy [Ha]    energy [eV]    outer radius [A]
    1    0        -0.241374        -6.5681       5.372934


  Species O                   :

  List of atomic basis orbitals and eigenvalues:
    n    l      energy [Ha]    energy [eV]    outer radius [A]
    1    0       -18.944147      -515.4965       1.415745
    2    0        -0.883529       -24.0421       5.048305
    2    1        -0.330173        -8.9845       5.301302

  Assembling full basis from fixed parts.
  | Species H :   atomic orbital   1 s accepted.
  | Species H :    hydro orbital   2 s accepted.
  | Species H :    hydro orbital   1 s accepted.
  | Species H :    hydro orbital   2 s accepted.
  | Species H :    hydro orbital   2 p accepted.
  | Species H :    hydro orbital   2 p accepted.
  | Species H :    hydro orbital   3 d accepted.
  | Species O :   atomic orbital   1 s accepted.
  | Species O :    hydro orbital   3 s accepted.
  | Species O :   atomic orbital   2 s accepted.
  | Species O :    hydro orbital   1 s accepted.
  | Species O :    hydro orbital   3 p accepted.
  | Species O :   atomic orbital   2 p accepted.
  | Species O :    hydro orbital   2 p accepted.
  | Species O :    hydro orbital   3 d accepted.
  | Species O :    hydro orbital   3 d accepted.
  | Species O :    hydro orbital   4 f accepted.
  | Species O :    hydro orbital   5 g accepted.
 
  Basis size parameters after reduction:
  | Total number of radial functions:       18
  | Total number of basis functions :      276
 
  Testing on-site integration grid accuracy.
  |  Species  Function  <phi|h_atom|phi> (log., in eV)  <phi|h_atom|phi> (rad., in eV)
           1        1                 -6.5683835025                 -6.5684759159
           1        2                 13.3711789951                 13.3708738703
           1        3                 23.6590910787                 23.6532055418
           1        4                 16.2963827186                 16.1870710655 ***
           1        5                 28.7627214838                 28.7627215090
           1        6                 59.5965249172                 59.5965950857
           1        7                 60.2220506392                 60.2220503827
           2        8               -515.4964576505               -515.4964530710
           2        9                 15.3030791347                 15.3030722972
           2       10                -21.7296094581                -21.7296135470
           2       11                 14.2969371730                 14.2969701621
           2       12                 21.0679693190                 21.0679697493
           2       13                 -2.3833606469                 -2.3833613176
           2       14                 13.7067136422                 13.7066766629
           2       15                 45.8013116808                 45.8013116965
           2       16                 52.2309815402                 52.2309831494
           2       17                 85.4120732416                 85.4120732763
           2       18                142.1019167745                142.1019167817
 * Note: Onsite integrals marked "***" above are less accurate than
 * onsite_accuracy_threshold =    0.03000 eV. Usually, this is harmless.
 * When in doubt, tighten the "radial" and/or "radial_multiplier" flags to check.

  Preparing densities etc. for the partition functions (integrals / Hartree potential).

  Preparations completed.
  max(cpu_time)          :      0.170 s.
  Wall clock time (cpu1) :      0.555 s.
------------------------------------------------------------

------------------------------------------------------------
          Begin self-consistency loop: Initialization.

          Date     :  20150727, Time     :  122350.683
------------------------------------------------------------

  Initializing index lists of integration centers etc. from given atomic structure:
  | Number of centers in hartree potential         :        12
  | Number of centers in hartree multipole         :        12
  | Number of centers in electron density summation:        12
  | Number of centers in basis integrals           :        12
  | Number of centers in integrals                 :        12
  Partitioning the integration grid into batches with parallel hashing+maxmin method.
  | Number of batches:     1602
  | Maximal batch size:     168
  | Minimal batch size:      57
  | Average batch size:      98.232
  | Standard deviation of batch sizes:      31.918

  Integration load balanced across     8 MPI tasks.
  Work distribution over tasks is as follows:
  Task     0 has      19675 integration points.
  Task     1 has      19693 integration points.
  Task     2 has      19665 integration points.
  Task     3 has      19658 integration points.
  Task     4 has      19670 integration points.
  Task     5 has      19665 integration points.
  Task     6 has      19674 integration points.
  Task     7 has      19668 integration points.
  Initializing partition tables, free-atom densities, potentials, etc. across the integration grid (initialize_grid_storage).
  | Net number of integration points:   157368
  | of which are non-zero points    :   156815
  Obtaining max. number of non-zero basis functions in each batch (get_n_compute_maxes).
  | Maximal number of non-zero basis functions:      273 in task     0
  | Maximal number of non-zero basis functions:      272 in task     1
  | Maximal number of non-zero basis functions:      273 in task     2
  | Maximal number of non-zero basis functions:      273 in task     3
  | Maximal number of non-zero basis functions:      272 in task     4
  | Maximal number of non-zero basis functions:      273 in task     5
  | Maximal number of non-zero basis functions:      272 in task     6
  | Maximal number of non-zero basis functions:      273 in task     7
  Integrating Hamiltonian matrix: batch-based integration.
  Time summed over all CPUs for integration: real work        3.972 s, elapsed        4.016 s
  Integrating overlap matrix.
  Time summed over all CPUs for integration: real work        2.082 s, elapsed        2.125 s

  Updating Kohn-Sham eigenvalues, eigenvectors, occupation numbers, and Fermi level.
  Solving generalized eigenproblem
  Updating Kohn-Sham eigenvalues and eigenfunctions.
  Transforming overlap matrix and checking for singularities.
  Overlap matrix is nonsingular:
  | Lowest eigenvalue:  0.259212E-03
  Solving real generalised eigenvalue problem by standard LAPACK (fast)
  Determining occupation numbers for Kohn-Sham eigenstates.
  | Chemical potential (Fermi level) in eV                 : -.37908311E+01
  | Error in electron count due to remaining E_F inaccuracy: 0.00000000E+00
  | Maximum occupation number of highest empty state:  0.00E+00

  Writing Kohn-Sham eigenvalues.

  State    Occupation    Eigenvalue [Ha]    Eigenvalue [eV]
      1       2.00000         -19.064796         -518.77951
      2       2.00000         -19.044494         -518.22704
      3       2.00000         -19.042417         -518.17053
      4       2.00000         -19.019675         -517.55169
      5       2.00000          -1.121214          -30.50980
      6       2.00000          -1.089070          -29.63511
      7       2.00000          -1.086669          -29.56978
      8       2.00000          -1.042004          -28.35436
      9       2.00000          -0.650222          -17.69345
     10       2.00000          -0.618239          -16.82313
     11       2.00000          -0.608798          -16.56624
     12       2.00000          -0.600548          -16.34173
     13       2.00000          -0.548467          -14.92454
     14       2.00000          -0.501498          -13.64646
     15       2.00000          -0.500696          -13.62463
     16       2.00000          -0.476477          -12.96561
     17       2.00000          -0.441375          -12.01042
     18       2.00000          -0.431363          -11.73798
     19       2.00000          -0.430121          -11.70420
     20       2.00000          -0.409714          -11.14889
     21       0.00000          -0.093656           -2.54850
     22       0.00000          -0.072606           -1.97570
     23       0.00000          -0.052550           -1.42995
     24       0.00000          -0.018763           -0.51056
     25       0.00000          -0.007992           -0.21748
     26       0.00000           0.011213            0.30513
     27       0.00000           0.026472            0.72034
     28       0.00000           0.057460            1.56357
     29       0.00000           0.074299            2.02178
     30       0.00000           0.079264            2.15689
     31       0.00000           0.091884            2.50030
     32       0.00000           0.098615            2.68344
     33       0.00000           0.103167            2.80732
     34       0.00000           0.104846            2.85300
     35       0.00000           0.112845            3.07068
     36       0.00000           0.123327            3.35589
     37       0.00000           0.143907            3.91592
     38       0.00000           0.149379            4.06482
     39       0.00000           0.153051            4.16474
     40       0.00000           0.169495            4.61220
     41       0.00000           0.180894            4.92238
     42       0.00000           0.199830            5.43764
     43       0.00000           0.216102            5.88044
     44       0.00000           0.237138            6.45284
     45       0.00000           0.265965            7.23726
     46       0.00000           0.270129            7.35059
     47       0.00000           0.303753            8.26554
     48       0.00000           0.307836            8.37665
     49       0.00000           0.332878            9.05808
     50       0.00000           0.348084            9.47185
     51       0.00000           0.359141            9.77274
     52       0.00000           0.373037           10.15087
     53       0.00000           0.381228           10.37375
     54       0.00000           0.395588           10.76449
     55       0.00000           0.406681           11.06634
     56       0.00000           0.420681           11.44732
     57       0.00000           0.433291           11.79045
     58       0.00000           0.438497           11.93210
     59       0.00000           0.451618           12.28915
     60       0.00000           0.474188           12.90331
     61       0.00000           0.498780           13.57249
     62       0.00000           0.511689           13.92378
     63       0.00000           0.549526           14.95336
     64       0.00000           0.564972           15.37368
     65       0.00000           0.597949           16.27102
     66       0.00000           0.667084           18.15227
     67       0.00000           0.694304           18.89297
     68       0.00000           0.738152           20.08615

  Highest occupied state (VBM) at    -11.14888576 eV
  | Occupation number:      2.00000000

  Lowest unoccupied state (CBM) at    -2.54849890 eV
  | Occupation number:      0.00000000

  Overall HOMO-LUMO gap:      8.60038685 eV.
  Calculating total energy contributions from superposition of free atom densities.

  Total energy components:
  | Sum of eigenvalues            :        -173.45571666 Ha       -4719.97019968 eV
  | XC energy correction          :         -36.44989844 Ha        -991.85220142 eV
  | XC potential correction       :          46.57501231 Ha        1267.37056803 eV
  | Free-atom electrostatic energy:        -143.13382383 Ha       -3894.86951514 eV
  | Hartree energy correction     :           0.00000000 Ha           0.00000000 eV
  | van der Waals energy corr.    :           0.00000000 Ha           0.00000000 eV
  | Entropy correction            :           0.00000000 Ha           0.00000000 eV
  | ---------------------------
  | Total energy                  :        -306.46442662 Ha       -8339.32134820 eV
  | Total energy, T -> 0          :        -306.46442662 Ha       -8339.32134820 eV  <-- do not rely on this value for anything but (periodic) metals
  | Electronic free energy        :        -306.46442662 Ha       -8339.32134820 eV

  Derived energy quantities:
  | Kinetic energy                :         303.32049514 Ha        8253.77062002 eV
  | Electrostatic energy          :        -573.33502332 Ha      -15601.23976680 eV
  | Energy correction for multipole
  | error in Hartree potential    :           0.00000000 Ha           0.00000000 eV
  | Sum of eigenvalues per atom                           :        -393.33084997 eV
  | Total energy (T->0) per atom                          :        -694.94344568 eV  <-- do not rely on this value for anything but (periodic) metals
  | Electronic free energy per atom                       :        -694.94344568 eV
  Initialize hartree_potential_storage
  Max. number of atoms included in rho_multipole:           12

  End scf initialization - timings             :  max(cpu_time)    wall_clock(cpu1)
  | Time for scf. initialization               :        1.163 s           1.162 s
  | Boundary condition initialization          :        0.000 s           0.000 s
  | Integration                                :        0.770 s           0.770 s
  | Solution of K.-S. eqns.                    :        0.118 s           0.118 s
  | Grid partitioning                          :        0.128 s           0.128 s
  | Preloading free-atom quantities on grid    :        0.013 s           0.013 s
  | Free-atom superposition energy             :        0.046 s           0.046 s
  | Total energy evaluation                    :        0.000 s           0.000 s
------------------------------------------------------------

------------------------------------------------------------
          Begin self-consistency iteration #    1

  Date     :  20150727, Time     :  122351.846
------------------------------------------------------------
  Evaluating new KS density.
  Integration grid: deviation in total charge (<rho> - N_e) =  -7.105427E-15
  Pulay mixing of updated and previous charge densities.

  Evaluating partitioned Hartree potential by multipole expansion.
  | Analytical far-field extrapolation by fixed multipoles:
  | Hartree multipole sum: apparent total charge =  -0.168313E-05
  Summing up the Hartree potential.
  Time summed over all CPUs for potential: real work        1.652 s, elapsed        1.659 s
  | RMS charge density error from multipole expansion :   0.144342E-02

  Integrating Hamiltonian matrix: batch-based integration.
  Time summed over all CPUs for integration: real work        3.963 s, elapsed        4.008 s

  Updating Kohn-Sham eigenvalues, eigenvectors, occupation numbers, and Fermi level.
  Solving generalized eigenproblem
  Updating Kohn-Sham eigenvalues and eigenfunctions.
  Solving real generalised eigenvalue problem by standard LAPACK (fast)
  Determining occupation numbers for Kohn-Sham eigenstates.
  | Chemical potential (Fermi level) in eV                 : -.34216622E+01
  | Error in electron count due to remaining E_F inaccuracy: 0.00000000E+00
  | Maximum occupation number of highest empty state:  0.00E+00

  Writing Kohn-Sham eigenvalues.

  State    Occupation    Eigenvalue [Ha]    Eigenvalue [eV]
      1       2.00000         -18.997283         -516.94237
      2       2.00000         -18.977364         -516.40035
      3       2.00000         -18.967396         -516.12912
      4       2.00000         -18.923068         -514.92287
      5       2.00000          -1.089509          -29.64706
      6       2.00000          -1.054822          -28.70316
      7       2.00000          -1.051440          -28.61115
      8       2.00000          -0.988754          -26.90537
      9       2.00000          -0.623211          -16.95844
     10       2.00000          -0.586426          -15.95745
     11       2.00000          -0.578655          -15.74599
     12       2.00000          -0.565771          -15.39542
     13       2.00000          -0.513524          -13.97371
     14       2.00000          -0.463388          -12.60944
     15       2.00000          -0.462924          -12.59680
     16       2.00000          -0.436708          -11.88344
     17       2.00000          -0.400688          -10.90327
     18       2.00000          -0.390559          -10.62766
     19       2.00000          -0.390171          -10.61708
     20       2.00000          -0.354850           -9.65597
     21       0.00000          -0.087786           -2.38877
     22       0.00000          -0.066700           -1.81500
     23       0.00000          -0.046350           -1.26124
     24       0.00000          -0.013444           -0.36584
     25       0.00000          -0.002077           -0.05653
     26       0.00000           0.023252            0.63273
     27       0.00000           0.032579            0.88652
     28       0.00000           0.065794            1.79035
     29       0.00000           0.083983            2.28530
     30       0.00000           0.087840            2.39026
     31       0.00000           0.100941            2.74674
     32       0.00000           0.106095            2.88699
     33       0.00000           0.109378            2.97631
     34       0.00000           0.117839            3.20655
     35       0.00000           0.124213            3.38000
     36       0.00000           0.130145            3.54143
     37       0.00000           0.156103            4.24779
     38       0.00000           0.157677            4.29061
     39       0.00000           0.176090            4.79166
     40       0.00000           0.179806            4.89277
     41       0.00000           0.194568            5.29446
     42       0.00000           0.207999            5.65994
     43       0.00000           0.224673            6.11367
     44       0.00000           0.246730            6.71387
     45       0.00000           0.272745            7.42177
     46       0.00000           0.278554            7.57983
     47       0.00000           0.312907            8.51463
     48       0.00000           0.318683            8.67181
     49       0.00000           0.340047            9.25314
     50       0.00000           0.360368            9.80610
     51       0.00000           0.368239           10.02030
     52       0.00000           0.381590           10.38360
     53       0.00000           0.390877           10.63629
     54       0.00000           0.405221           11.02662
     55       0.00000           0.416009           11.32018
     56       0.00000           0.428962           11.67265
     57       0.00000           0.440498           11.98655
     58       0.00000           0.446590           12.15234
     59       0.00000           0.460373           12.52738
     60       0.00000           0.481969           13.11504
     61       0.00000           0.508009           13.82362
     62       0.00000           0.522614           14.22105
     63       0.00000           0.560787           15.25980
     64       0.00000           0.577269           15.70829
     65       0.00000           0.613300           16.68874
     66       0.00000           0.682073           18.56015
     67       0.00000           0.708567           19.28109
     68       0.00000           0.749218           20.38725

  Highest occupied state (VBM) at     -9.65596997 eV
  | Occupation number:      2.00000000

  Lowest unoccupied state (CBM) at    -2.38876543 eV
  | Occupation number:      0.00000000

  Overall HOMO-LUMO gap:      7.26720454 eV.

  Total energy components:
  | Sum of eigenvalues            :        -171.63302545 Ha       -4670.37224833 eV
  | XC energy correction          :         -36.64314737 Ha        -997.11077237 eV
  | XC potential correction       :          46.82812802 Ha        1274.25819699 eV
  | Free-atom electrostatic energy:        -143.13382383 Ha       -3894.86951514 eV
  | Hartree energy correction     :          -1.76089837 Ha         -47.91648251 eV
  | van der Waals energy corr.    :           0.00000000 Ha           0.00000000 eV
  | Entropy correction            :           0.00000000 Ha           0.00000000 eV
  | ---------------------------
  | Total energy                  :        -306.34276699 Ha       -8336.01082136 eV
  | Total energy, T -> 0          :        -306.34276699 Ha       -8336.01082136 eV  <-- do not rely on this value for anything but (periodic) metals
  | Electronic free energy        :        -306.34276699 Ha       -8336.01082136 eV

  Derived energy quantities:
  | Kinetic energy                :         304.47087662 Ha        8285.07409274 eV
  | Electrostatic energy          :        -574.17049624 Ha      -15623.97414173 eV
  | Energy correction for multipole
  | error in Hartree potential    :          -0.00021384 Ha          -0.00581875 eV
  | Sum of eigenvalues per atom                           :        -389.19768736 eV
  | Total energy (T->0) per atom                          :        -694.66756845 eV  <-- do not rely on this value for anything but (periodic) metals
  | Electronic free energy per atom                       :        -694.66756845 eV

  Self-consistency convergence accuracy:
  | Change of charge density      : 0.5916E+00
  | Change of sum of eigenvalues  : 0.4960E+02 eV
  | Change of total energy        : 0.3311E+01 eV

  End self-consistency iteration #     1       :  max(cpu_time)    wall_clock(cpu1)
  | Time for this iteration                    :        1.094 s           1.094 s
  | Charge density update                      :        0.345 s           0.345 s
  | Density mixing                             :        0.003 s           0.003 s
  | Hartree multipole update                   :        0.004 s           0.004 s
  | Hartree multipole summation                :        0.208 s           0.209 s
  | Integration                                :        0.502 s           0.502 s
  | Solution of K.-S. eqns.                    :        0.030 s           0.030 s
  | Total energy evaluation                    :        0.000 s           0.000 s
------------------------------------------------------------

------------------------------------------------------------
          Begin self-consistency iteration #    2

  Date     :  20150727, Time     :  122352.940
------------------------------------------------------------
  Evaluating new KS density.
  Integration grid: deviation in total charge (<rho> - N_e) =   3.552714E-14
  Pulay mixing of updated and previous charge densities.

  Evaluating partitioned Hartree potential by multipole expansion.
  | Analytical far-field extrapolation by fixed multipoles:
  | Hartree multipole sum: apparent total charge =  -0.499157E-05
  Summing up the Hartree potential.
  Time summed over all CPUs for potential: real work        1.652 s, elapsed        1.659 s
  | RMS charge density error from multipole expansion :   0.576942E-02

  Integrating Hamiltonian matrix: batch-based integration.
  Time summed over all CPUs for integration: real work        3.946 s, elapsed        3.996 s

  Updating Kohn-Sham eigenvalues, eigenvectors, occupation numbers, and Fermi level.
  Solving generalized eigenproblem
  Updating Kohn-Sham eigenvalues and eigenfunctions.
  Solving real generalised eigenvalue problem by standard LAPACK (fast)
  Determining occupation numbers for Kohn-Sham eigenstates.
  | Chemical potential (Fermi level) in eV                 : -.25972435E+01
  | Error in electron count due to remaining E_F inaccuracy: 0.00000000E+00
  | Maximum occupation number of highest empty state:  0.00E+00

  Highest occupied state (VBM) at     -6.08192812 eV
  | Occupation number:      2.00000000

  Lowest unoccupied state (CBM) at    -2.03207073 eV
  | Occupation number:      0.00000000

  Overall HOMO-LUMO gap:      4.04985740 eV.

  Total energy components:
  | Sum of eigenvalues            :        -167.32985129 Ha       -4553.27692188 eV
  | XC energy correction          :         -37.11834179 Ha       -1010.04147035 eV
  | XC potential correction       :          47.45001966 Ha        1291.18072938 eV
  | Free-atom electrostatic energy:        -143.13382383 Ha       -3894.86951514 eV
  | Hartree energy correction     :          -6.06673420 Ha        -165.08423685 eV
  | van der Waals energy corr.    :           0.00000000 Ha           0.00000000 eV
  | Entropy correction            :           0.00000000 Ha           0.00000000 eV
  | ---------------------------
  | Total energy                  :        -306.19873145 Ha       -8332.09141485 eV
  | Total energy, T -> 0          :        -306.19873145 Ha       -8332.09141485 eV  <-- do not rely on this value for anything but (periodic) metals
  | Electronic free energy        :        -306.19873145 Ha       -8332.09141485 eV

  Derived energy quantities:
  | Kinetic energy                :         306.77117726 Ha        8347.66845797 eV
  | Electrostatic energy          :        -575.85156692 Ha      -15669.71840246 eV
  | Energy correction for multipole
  | error in Hartree potential    :          -0.00140063 Ha          -0.03811316 eV
  | Sum of eigenvalues per atom                           :        -379.43974349 eV
  | Total energy (T->0) per atom                          :        -694.34095124 eV  <-- do not rely on this value for anything but (periodic) metals
  | Electronic free energy per atom                       :        -694.34095124 eV

  Self-consistency convergence accuracy:
  | Change of charge density      : 0.4469E+00
  | Change of sum of eigenvalues  : 0.1171E+03 eV
  | Change of total energy        : 0.3919E+01 eV

  End self-consistency iteration #     2       :  max(cpu_time)    wall_clock(cpu1)
  | Time for this iteration                    :        1.092 s           1.092 s
  | Charge density update                      :        0.343 s           0.344 s
  | Density mixing                             :        0.005 s           0.004 s
  | Hartree multipole update                   :        0.004 s           0.005 s
  | Hartree multipole summation                :        0.208 s           0.208 s
  | Integration                                :        0.501 s           0.500 s
  | Solution of K.-S. eqns.                    :        0.030 s           0.031 s
  | Total energy evaluation                    :        0.001 s           0.000 s
------------------------------------------------------------

------------------------------------------------------------
          Begin self-consistency iteration #    3

  Date     :  20150727, Time     :  122354.032
------------------------------------------------------------
  Evaluating new KS density.
  Integration grid: deviation in total charge (<rho> - N_e) =   1.421085E-14
  Pulay mixing of updated and previous charge densities.

  Evaluating partitioned Hartree potential by multipole expansion.
  | Analytical far-field extrapolation by fixed multipoles:
  | Hartree multipole sum: apparent total charge =  -0.516675E-05
  Summing up the Hartree potential.
  Time summed over all CPUs for potential: real work        1.652 s, elapsed        1.659 s
  | RMS charge density error from multipole expansion :   0.115633E-01

  Integrating Hamiltonian matrix: batch-based integration.
  Time summed over all CPUs for integration: real work        3.946 s, elapsed        3.994 s

  Updating Kohn-Sham eigenvalues, eigenvectors, occupation numbers, and Fermi level.
  Solving generalized eigenproblem
  Updating Kohn-Sham eigenvalues and eigenfunctions.
  Solving real generalised eigenvalue problem by standard LAPACK (fast)
  Determining occupation numbers for Kohn-Sham eigenstates.
  | Chemical potential (Fermi level) in eV                 : -.24371110E+01
  | Error in electron count due to remaining E_F inaccuracy: 0.00000000E+00
  | Maximum occupation number of highest empty state:  0.00E+00

  Highest occupied state (VBM) at     -5.77836309 eV
  | Occupation number:      2.00000000

  Lowest unoccupied state (CBM) at    -1.98453794 eV
  | Occupation number:      0.00000000

  Overall HOMO-LUMO gap:      3.79382515 eV.

  Total energy components:
  | Sum of eigenvalues            :        -167.53734329 Ha       -4558.92306636 eV
  | XC energy correction          :         -37.08438451 Ha       -1009.11744579 eV
  | XC potential correction       :          47.40189866 Ha        1289.87129044 eV
  | Free-atom electrostatic energy:        -143.13382383 Ha       -3894.86951514 eV
  | Hartree energy correction     :          -5.83972022 Ha        -158.90687227 eV
  | van der Waals energy corr.    :           0.00000000 Ha           0.00000000 eV
  | Entropy correction            :           0.00000000 Ha           0.00000000 eV
  | ---------------------------
  | Total energy                  :        -306.19337319 Ha       -8331.94560914 eV
  | Total energy, T -> 0          :        -306.19337319 Ha       -8331.94560914 eV  <-- do not rely on this value for anything but (periodic) metals
  | Electronic free energy        :        -306.19337319 Ha       -8331.94560914 eV

  Derived energy quantities:
  | Kinetic energy                :         305.08875125 Ha        8301.88731690 eV
  | Electrostatic energy          :        -574.19773993 Ha      -15624.71548024 eV
  | Energy correction for multipole
  | error in Hartree potential    :          -0.00504049 Ha          -0.13715879 eV
  | Sum of eigenvalues per atom                           :        -379.91025553 eV
  | Total energy (T->0) per atom                          :        -694.32880076 eV  <-- do not rely on this value for anything but (periodic) metals
  | Electronic free energy per atom                       :        -694.32880076 eV

  Self-consistency convergence accuracy:
  | Change of charge density      : 0.2241E+00
  | Change of sum of eigenvalues  : -.5646E+01 eV
  | Change of total energy        : 0.1458E+00 eV

  End self-consistency iteration #     3       :  max(cpu_time)    wall_clock(cpu1)
  | Time for this iteration                    :        1.090 s           1.091 s
  | Charge density update                      :        0.341 s           0.341 s
  | Density mixing                             :        0.005 s           0.006 s
  | Hartree multipole update                   :        0.005 s           0.004 s
  | Hartree multipole summation                :        0.208 s           0.208 s
  | Integration                                :        0.500 s           0.501 s
  | Solution of K.-S. eqns.                    :        0.031 s           0.030 s
  | Total energy evaluation                    :        0.000 s           0.001 s
------------------------------------------------------------

------------------------------------------------------------
          Begin self-consistency iteration #    4

  Date     :  20150727, Time     :  122355.123
------------------------------------------------------------
  Evaluating new KS density.
  Integration grid: deviation in total charge (<rho> - N_e) =  -1.421085E-14
  Pulay mixing of updated and previous charge densities.

  Evaluating partitioned Hartree potential by multipole expansion.
  | Analytical far-field extrapolation by fixed multipoles:
  | Hartree multipole sum: apparent total charge =  -0.634348E-05
  Summing up the Hartree potential.
  Time summed over all CPUs for potential: real work        1.651 s, elapsed        1.658 s
  | RMS charge density error from multipole expansion :   0.153788E-01

  Integrating Hamiltonian matrix: batch-based integration.
  Time summed over all CPUs for integration: real work        3.934 s, elapsed        3.976 s

  Updating Kohn-Sham eigenvalues, eigenvectors, occupation numbers, and Fermi level.
  Solving generalized eigenproblem
  Updating Kohn-Sham eigenvalues and eigenfunctions.
  Solving real generalised eigenvalue problem by standard LAPACK (fast)
  Determining occupation numbers for Kohn-Sham eigenstates.
  | Chemical potential (Fermi level) in eV                 : -.21017085E+01
  | Error in electron count due to remaining E_F inaccuracy: 0.00000000E+00
  | Maximum occupation number of highest empty state:  0.00E+00

  Highest occupied state (VBM) at     -4.39305061 eV
  | Occupation number:      2.00000000

  Lowest unoccupied state (CBM) at    -1.85102020 eV
  | Occupation number:      0.00000000

  Overall HOMO-LUMO gap:      2.54203041 eV.

  Total energy components:
  | Sum of eigenvalues            :        -166.07475746 Ha       -4519.12408095 eV
  | XC energy correction          :         -37.26052198 Ha       -1013.91039021 eV
  | XC potential correction       :          47.63180152 Ha        1296.12726553 eV
  | Free-atom electrostatic energy:        -143.13382383 Ha       -3894.86951514 eV
  | Hartree energy correction     :          -7.34511470 Ha        -199.87074037 eV
  | van der Waals energy corr.    :           0.00000000 Ha           0.00000000 eV
  | Entropy correction            :           0.00000000 Ha           0.00000000 eV
  | ---------------------------
  | Total energy                  :        -306.18241645 Ha       -8331.64746115 eV
  | Total energy, T -> 0          :        -306.18241645 Ha       -8331.64746115 eV  <-- do not rely on this value for anything but (periodic) metals
  | Electronic free energy        :        -306.18241645 Ha       -8331.64746115 eV

  Derived energy quantities:
  | Kinetic energy                :         305.24001515 Ha        8306.00341702 eV
  | Electrostatic energy          :        -574.16190962 Ha      -15623.74048796 eV
  | Energy correction for multipole
  | error in Hartree potential    :          -0.00692767 Ha          -0.18851141 eV
  | Sum of eigenvalues per atom                           :        -376.59367341 eV
  | Total energy (T->0) per atom                          :        -694.30395510 eV  <-- do not rely on this value for anything but (periodic) metals
  | Electronic free energy per atom                       :        -694.30395510 eV

  Self-consistency convergence accuracy:
  | Change of charge density      : 0.1292E+00
  | Change of sum of eigenvalues  : 0.3980E+02 eV
  | Change of total energy        : 0.2981E+00 eV

  End self-consistency iteration #     4       :  max(cpu_time)    wall_clock(cpu1)
  | Time for this iteration                    :        1.090 s           1.090 s
  | Charge density update                      :        0.342 s           0.342 s
  | Density mixing                             :        0.007 s           0.006 s
  | Hartree multipole update                   :        0.004 s           0.005 s
  | Hartree multipole summation                :        0.208 s           0.208 s
  | Integration                                :        0.498 s           0.498 s
  | Solution of K.-S. eqns.                    :        0.031 s           0.030 s
  | Total energy evaluation                    :        0.000 s           0.001 s
------------------------------------------------------------

------------------------------------------------------------
          Begin self-consistency iteration #    5

  Date     :  20150727, Time     :  122356.213
------------------------------------------------------------
  Evaluating new KS density.
  Integration grid: deviation in total charge (<rho> - N_e) =   1.421085E-14
  Pulay mixing of updated and previous charge densities.

  Evaluating partitioned Hartree potential by multipole expansion.
  | Analytical far-field extrapolation by fixed multipoles:
  | Hartree multipole sum: apparent total charge =  -0.628690E-05
  Summing up the Hartree potential.
  Time summed over all CPUs for potential: real work        1.651 s, elapsed        1.658 s
  | RMS charge density error from multipole expansion :   0.157681E-01

  Integrating Hamiltonian matrix: batch-based integration.
  Time summed over all CPUs for integration: real work        3.936 s, elapsed        3.976 s

  Updating Kohn-Sham eigenvalues, eigenvectors, occupation numbers, and Fermi level.
  Solving generalized eigenproblem
  Updating Kohn-Sham eigenvalues and eigenfunctions.
  Solving real generalised eigenvalue problem by standard LAPACK (fast)
  Determining occupation numbers for Kohn-Sham eigenstates.
  | Chemical potential (Fermi level) in eV                 : -.21023252E+01
  | Error in electron count due to remaining E_F inaccuracy: 0.00000000E+00
  | Maximum occupation number of highest empty state:  0.00E+00

  Highest occupied state (VBM) at     -4.38059330 eV
  | Occupation number:      2.00000000

  Lowest unoccupied state (CBM) at    -1.85077096 eV
  | Occupation number:      0.00000000

  Overall HOMO-LUMO gap:      2.52982234 eV.

  Total energy components:
  | Sum of eigenvalues            :        -166.05529283 Ha       -4518.59442141 eV
  | XC energy correction          :         -37.26790743 Ha       -1014.11135861 eV
  | XC potential correction       :          47.64096973 Ha        1296.37674522 eV
  | Free-atom electrostatic energy:        -143.13382383 Ha       -3894.86951514 eV
  | Hartree energy correction     :          -7.36617626 Ha        -200.44385447 eV
  | van der Waals energy corr.    :           0.00000000 Ha           0.00000000 eV
  | Entropy correction            :           0.00000000 Ha           0.00000000 eV
  | ---------------------------
  | Total energy                  :        -306.18223062 Ha       -8331.64240441 eV
  | Total energy, T -> 0          :        -306.18223062 Ha       -8331.64240441 eV  <-- do not rely on this value for anything but (periodic) metals
  | Electronic free energy        :        -306.18223062 Ha       -8331.64240441 eV

  Derived energy quantities:
  | Kinetic energy                :         305.28967243 Ha        8307.35466050 eV
  | Electrostatic energy          :        -574.20399562 Ha      -15624.88570631 eV
  | Energy correction for multipole
  | error in Hartree potential    :          -0.00690418 Ha          -0.18787222 eV
  | Sum of eigenvalues per atom                           :        -376.54953512 eV
  | Total energy (T->0) per atom                          :        -694.30353370 eV  <-- do not rely on this value for anything but (periodic) metals
  | Electronic free energy per atom                       :        -694.30353370 eV

  Self-consistency convergence accuracy:
  | Change of charge density      : 0.2476E-01
  | Change of sum of eigenvalues  : 0.5297E+00 eV
  | Change of total energy        : 0.5057E-02 eV

  End self-consistency iteration #     5       :  max(cpu_time)    wall_clock(cpu1)
  | Time for this iteration                    :        1.091 s           1.091 s
  | Charge density update                      :        0.341 s           0.341 s
  | Density mixing                             :        0.008 s           0.008 s
  | Hartree multipole update                   :        0.004 s           0.004 s
  | Hartree multipole summation                :        0.208 s           0.208 s
  | Integration                                :        0.498 s           0.498 s
  | Solution of K.-S. eqns.                    :        0.031 s           0.031 s
  | Total energy evaluation                    :        0.000 s           0.001 s
------------------------------------------------------------

------------------------------------------------------------
          Begin self-consistency iteration #    6

  Date     :  20150727, Time     :  122357.304
------------------------------------------------------------
  Evaluating new KS density.
  Integration grid: deviation in total charge (<rho> - N_e) =   3.552714E-14
  Pulay mixing of updated and previous charge densities.

  Evaluating partitioned Hartree potential by multipole expansion.
  | Analytical far-field extrapolation by fixed multipoles:
  | Hartree multipole sum: apparent total charge =  -0.629024E-05
  Summing up the Hartree potential.
  Time summed over all CPUs for potential: real work        1.651 s, elapsed        1.658 s
  | RMS charge density error from multipole expansion :   0.159298E-01

  Integrating Hamiltonian matrix: batch-based integration.
  Time summed over all CPUs for integration: real work        3.932 s, elapsed        3.977 s

  Updating Kohn-Sham eigenvalues, eigenvectors, occupation numbers, and Fermi level.
  Solving generalized eigenproblem
  Updating Kohn-Sham eigenvalues and eigenfunctions.
  Solving real generalised eigenvalue problem by standard LAPACK (fast)
  Determining occupation numbers for Kohn-Sham eigenstates.
  | Chemical potential (Fermi level) in eV                 : -.20994144E+01
  | Error in electron count due to remaining E_F inaccuracy: 0.00000000E+00
  | Maximum occupation number of highest empty state:  0.00E+00

  Highest occupied state (VBM) at     -4.37098188 eV
  | Occupation number:      2.00000000

  Lowest unoccupied state (CBM) at    -1.84803457 eV
  | Occupation number:      0.00000000

  Overall HOMO-LUMO gap:      2.52294731 eV.

  Total energy components:
  | Sum of eigenvalues            :        -166.03851564 Ha       -4518.13789086 eV
  | XC energy correction          :         -37.27127801 Ha       -1014.20307672 eV
  | XC potential correction       :          47.64522786 Ha        1296.49261486 eV
  | Free-atom electrostatic energy:        -143.13382383 Ha       -3894.86951514 eV
  | Hartree energy correction     :          -7.38386896 Ha        -200.92529748 eV
  | van der Waals energy corr.    :           0.00000000 Ha           0.00000000 eV
  | Entropy correction            :           0.00000000 Ha           0.00000000 eV
  | ---------------------------
  | Total energy                  :        -306.18225858 Ha       -8331.64316534 eV
  | Total energy, T -> 0          :        -306.18225858 Ha       -8331.64316534 eV  <-- do not rely on this value for anything but (periodic) metals
  | Electronic free energy        :        -306.18225858 Ha       -8331.64316534 eV

  Derived energy quantities:
  | Kinetic energy                :         305.29930230 Ha        8307.61670234 eV
  | Electrostatic energy          :        -574.21028287 Ha      -15625.05679096 eV
  | Energy correction for multipole
  | error in Hartree potential    :          -0.00692312 Ha          -0.18838767 eV
  | Sum of eigenvalues per atom                           :        -376.51149090 eV
  | Total energy (T->0) per atom                          :        -694.30359711 eV  <-- do not rely on this value for anything but (periodic) metals
  | Electronic free energy per atom                       :        -694.30359711 eV

  Self-consistency convergence accuracy:
  | Change of charge density      : 0.1089E-01
  | Change of sum of eigenvalues  : 0.4565E+00 eV
  | Change of total energy        : -.7609E-03 eV

  End self-consistency iteration #     6       :  max(cpu_time)    wall_clock(cpu1)
  | Time for this iteration                    :        1.091 s           1.091 s
  | Charge density update                      :        0.340 s           0.340 s
  | Density mixing                             :        0.009 s           0.009 s
  | Hartree multipole update                   :        0.004 s           0.004 s
  | Hartree multipole summation                :        0.208 s           0.208 s
  | Integration                                :        0.499 s           0.499 s
  | Solution of K.-S. eqns.                    :        0.030 s           0.030 s
  | Total energy evaluation                    :        0.000 s           0.000 s
------------------------------------------------------------

------------------------------------------------------------
          Begin self-consistency iteration #    7

  Date     :  20150727, Time     :  122358.395
------------------------------------------------------------
  Evaluating new KS density.
  Integration grid: deviation in total charge (<rho> - N_e) =   3.552714E-14
  Pulay mixing of updated and previous charge densities.

  Evaluating partitioned Hartree potential by multipole expansion.
  | Analytical far-field extrapolation by fixed multipoles:
  | Hartree multipole sum: apparent total charge =  -0.610563E-05
  Summing up the Hartree potential.
  Time summed over all CPUs for potential: real work        1.652 s, elapsed        1.660 s
  | RMS charge density error from multipole expansion :   0.158620E-01

  Integrating Hamiltonian matrix: batch-based integration.
  Time summed over all CPUs for integration: real work        3.930 s, elapsed        3.982 s

  Updating Kohn-Sham eigenvalues, eigenvectors, occupation numbers, and Fermi level.
  Solving generalized eigenproblem
  Updating Kohn-Sham eigenvalues and eigenfunctions.
  Solving real generalised eigenvalue problem by standard LAPACK (fast)
  Determining occupation numbers for Kohn-Sham eigenstates.
  | Chemical potential (Fermi level) in eV                 : -.21299667E+01
  | Error in electron count due to remaining E_F inaccuracy: 0.00000000E+00
  | Maximum occupation number of highest empty state:  0.00E+00

  Highest occupied state (VBM) at     -4.54545781 eV
  | Occupation number:      2.00000000

  Lowest unoccupied state (CBM) at    -1.86323712 eV
  | Occupation number:      0.00000000

  Overall HOMO-LUMO gap:      2.68222069 eV.

  Total energy components:
  | Sum of eigenvalues            :        -166.17815212 Ha       -4521.93759270 eV
  | XC energy correction          :         -37.25762817 Ha       -1013.83164577 eV
  | XC potential correction       :          47.62689637 Ha        1295.99378969 eV
  | Free-atom electrostatic energy:        -143.13382383 Ha       -3894.86951514 eV
  | Hartree energy correction     :          -7.23942161 Ha        -196.99468496 eV
  | van der Waals energy corr.    :           0.00000000 Ha           0.00000000 eV
  | Entropy correction            :           0.00000000 Ha           0.00000000 eV
  | ---------------------------
  | Total energy                  :        -306.18212935 Ha       -8331.63964889 eV
  | Total energy, T -> 0          :        -306.18212935 Ha       -8331.63964889 eV  <-- do not rely on this value for anything but (periodic) metals
  | Electronic free energy        :        -306.18212935 Ha       -8331.63964889 eV

  Derived energy quantities:
  | Kinetic energy                :         305.34581943 Ha        8308.88249789 eV
  | Electrostatic energy          :        -574.27032061 Ha      -15626.69050101 eV
  | Energy correction for multipole
  | error in Hartree potential    :          -0.00665024 Ha          -0.18096236 eV
  | Sum of eigenvalues per atom                           :        -376.82813273 eV
  | Total energy (T->0) per atom                          :        -694.30330407 eV  <-- do not rely on this value for anything but (periodic) metals
  | Electronic free energy per atom                       :        -694.30330407 eV

  Self-consistency convergence accuracy:
  | Change of charge density      : 0.1088E-01
  | Change of sum of eigenvalues  : -.3800E+01 eV
  | Change of total energy        : 0.3516E-02 eV

  End self-consistency iteration #     7       :  max(cpu_time)    wall_clock(cpu1)
  | Time for this iteration                    :        1.092 s           1.092 s
  | Charge density update                      :        0.341 s           0.340 s
  | Density mixing                             :        0.009 s           0.010 s
  | Hartree multipole update                   :        0.005 s           0.004 s
  | Hartree multipole summation                :        0.208 s           0.209 s
  | Integration                                :        0.499 s           0.498 s
  | Solution of K.-S. eqns.                    :        0.030 s           0.031 s
  | Total energy evaluation                    :        0.000 s           0.000 s
------------------------------------------------------------

------------------------------------------------------------
          Begin self-consistency iteration #    8

  Date     :  20150727, Time     :  122359.487
------------------------------------------------------------
  Evaluating new KS density.
  Integration grid: deviation in total charge (<rho> - N_e) =  -7.105427E-15
  Pulay mixing of updated and previous charge densities.

  Evaluating partitioned Hartree potential by multipole expansion.
  | Analytical far-field extrapolation by fixed multipoles:
  | Hartree multipole sum: apparent total charge =  -0.611424E-05
  Summing up the Hartree potential.
  Time summed over all CPUs for potential: real work        1.651 s, elapsed        1.658 s
  | RMS charge density error from multipole expansion :   0.159308E-01

  Integrating Hamiltonian matrix: batch-based integration.
  Time summed over all CPUs for integration: real work        3.938 s, elapsed        4.022 s

  Updating Kohn-Sham eigenvalues, eigenvectors, occupation numbers, and Fermi level.
  Solving generalized eigenproblem
  Updating Kohn-Sham eigenvalues and eigenfunctions.
  Solving real generalised eigenvalue problem by standard LAPACK (fast)
  Determining occupation numbers for Kohn-Sham eigenstates.
  | Chemical potential (Fermi level) in eV                 : -.21247074E+01
  | Error in electron count due to remaining E_F inaccuracy: 0.00000000E+00
  | Maximum occupation number of highest empty state:  0.00E+00

  Highest occupied state (VBM) at     -4.50582000 eV
  | Occupation number:      2.00000000

  Lowest unoccupied state (CBM) at    -1.86174184 eV
  | Occupation number:      0.00000000

  Overall HOMO-LUMO gap:      2.64407815 eV.

  Total energy components:
  | Sum of eigenvalues            :        -166.15252388 Ha       -4521.24021305 eV
  | XC energy correction          :         -37.26032598 Ha       -1013.90505676 eV
  | XC potential correction       :          47.63042256 Ha        1296.08974222 eV
  | Free-atom electrostatic energy:        -143.13382383 Ha       -3894.86951514 eV
  | Hartree energy correction     :          -7.26587744 Ha        -197.71458489 eV
  | van der Waals energy corr.    :           0.00000000 Ha           0.00000000 eV
  | Entropy correction            :           0.00000000 Ha           0.00000000 eV
  | ---------------------------
  | Total energy                  :        -306.18212857 Ha       -8331.63962762 eV
  | Total energy, T -> 0          :        -306.18212857 Ha       -8331.63962762 eV  <-- do not rely on this value for anything but (periodic) metals
  | Electronic free energy        :        -306.18212857 Ha       -8331.63962762 eV

  Derived energy quantities:
  | Kinetic energy                :         305.34731701 Ha        8308.92324917 eV
  | Electrostatic energy          :        -574.26911960 Ha      -15626.65782003 eV
  | Energy correction for multipole
  | error in Hartree potential    :          -0.00670044 Ha          -0.18232832 eV
  | Sum of eigenvalues per atom                           :        -376.77001775 eV
  | Total energy (T->0) per atom                          :        -694.30330230 eV  <-- do not rely on this value for anything but (periodic) metals
  | Electronic free energy per atom                       :        -694.30330230 eV

  Self-consistency convergence accuracy:
  | Change of charge density      : 0.2144E-02
  | Change of sum of eigenvalues  : 0.6974E+00 eV
  | Change of total energy        : 0.2127E-04 eV

  End self-consistency iteration #     8       :  max(cpu_time)    wall_clock(cpu1)
  | Time for this iteration                    :        1.099 s           1.099 s
  | Charge density update                      :        0.341 s           0.341 s
  | Density mixing                             :        0.010 s           0.011 s
  | Hartree multipole update                   :        0.005 s           0.004 s
  | Hartree multipole summation                :        0.208 s           0.208 s
  | Integration                                :        0.504 s           0.504 s
  | Solution of K.-S. eqns.                    :        0.030 s           0.031 s
  | Total energy evaluation                    :        0.000 s           0.000 s
------------------------------------------------------------

------------------------------------------------------------
          Begin self-consistency iteration #    9

  Date     :  20150727, Time     :  122400.586
------------------------------------------------------------
  Evaluating new KS density.
  Integration grid: deviation in total charge (<rho> - N_e) =  -2.131628E-14
  Pulay mixing of updated and previous charge densities.

  Evaluating partitioned Hartree potential by multipole expansion.
  | Analytical far-field extrapolation by fixed multipoles:
  | Hartree multipole sum: apparent total charge =  -0.611023E-05
  Summing up the Hartree potential.
  Time summed over all CPUs for potential: real work        1.652 s, elapsed        1.658 s
  | RMS charge density error from multipole expansion :   0.159289E-01

  Integrating Hamiltonian matrix: batch-based integration.
  Time summed over all CPUs for integration: real work        3.932 s, elapsed        3.980 s

  Updating Kohn-Sham eigenvalues, eigenvectors, occupation numbers, and Fermi level.
  Solving generalized eigenproblem
  Updating Kohn-Sham eigenvalues and eigenfunctions.
  Solving real generalised eigenvalue problem by standard LAPACK (fast)
  Determining occupation numbers for Kohn-Sham eigenstates.
  | Chemical potential (Fermi level) in eV                 : -.21249061E+01
  | Error in electron count due to remaining E_F inaccuracy: 0.00000000E+00
  | Maximum occupation number of highest empty state:  0.00E+00

  Highest occupied state (VBM) at     -4.50756265 eV
  | Occupation number:      2.00000000

  Lowest unoccupied state (CBM) at    -1.86212619 eV
  | Occupation number:      0.00000000

  Overall HOMO-LUMO gap:      2.64543647 eV.

  Total energy components:
  | Sum of eigenvalues            :        -166.15321508 Ha       -4521.25902140 eV
  | XC energy correction          :         -37.26017020 Ha       -1013.90081771 eV
  | XC potential correction       :          47.63020999 Ha        1296.08395777 eV
  | Free-atom electrostatic energy:        -143.13382383 Ha       -3894.86951514 eV
  | Hartree energy correction     :          -7.26512857 Ha        -197.69420704 eV
  | van der Waals energy corr.    :           0.00000000 Ha           0.00000000 eV
  | Entropy correction            :           0.00000000 Ha           0.00000000 eV
  | ---------------------------
  | Total energy                  :        -306.18212769 Ha       -8331.63960352 eV
  | Total energy, T -> 0          :        -306.18212769 Ha       -8331.63960352 eV  <-- do not rely on this value for anything but (periodic) metals
  | Electronic free energy        :        -306.18212769 Ha       -8331.63960352 eV

  Derived energy quantities:
  | Kinetic energy                :         305.35058408 Ha        8309.01215079 eV
  | Electrostatic energy          :        -574.27254158 Ha      -15626.75093660 eV
  | Energy correction for multipole
  | error in Hartree potential    :          -0.00669611 Ha          -0.18221039 eV
  | Sum of eigenvalues per atom                           :        -376.77158512 eV
  | Total energy (T->0) per atom                          :        -694.30330029 eV  <-- do not rely on this value for anything but (periodic) metals
  | Electronic free energy per atom                       :        -694.30330029 eV

  Self-consistency convergence accuracy:
  | Change of charge density      : 0.1096E-02
  | Change of sum of eigenvalues  : -.1881E-01 eV
  | Change of total energy        : 0.2409E-04 eV

  End self-consistency iteration #     9       :  max(cpu_time)    wall_clock(cpu1)
  | Time for this iteration                    :        1.094 s           1.094 s
  | Charge density update                      :        0.340 s           0.341 s
  | Density mixing                             :        0.012 s           0.011 s
  | Hartree multipole update                   :        0.004 s           0.005 s
  | Hartree multipole summation                :        0.208 s           0.208 s
  | Integration                                :        0.499 s           0.498 s
  | Solution of K.-S. eqns.                    :        0.030 s           0.031 s
  | Total energy evaluation                    :        0.001 s           0.000 s
------------------------------------------------------------

------------------------------------------------------------
          Begin self-consistency iteration #   10

  Date     :  20150727, Time     :  122401.680
------------------------------------------------------------
  Evaluating new KS density.
  Integration grid: deviation in total charge (<rho> - N_e) =   1.421085E-14
  Pulay mixing of updated and previous charge densities.

  Evaluating partitioned Hartree potential by multipole expansion.
  | Analytical far-field extrapolation by fixed multipoles:
  | Hartree multipole sum: apparent total charge =  -0.609789E-05
  Summing up the Hartree potential.
  Time summed over all CPUs for potential: real work        1.651 s, elapsed        1.658 s
  | RMS charge density error from multipole expansion :   0.159215E-01

  Integrating Hamiltonian matrix: batch-based integration.
  Time summed over all CPUs for integration: real work        3.948 s, elapsed        4.094 s

  Updating Kohn-Sham eigenvalues, eigenvectors, occupation numbers, and Fermi level.
  Solving generalized eigenproblem
[...]
  |                                 -0.01063182       0.11511656       0.00854759
  |                                 -0.01383479       0.00854759       0.10714122
  ----------------------------------------------------------------------


  Total energy components:
  | Sum of eigenvalues            :        -166.16171712 Ha       -4521.49037364 eV
  | XC energy correction          :         -37.25914815 Ha       -1013.87300651 eV
  | XC potential correction       :          47.62884711 Ha        1296.04687190 eV
  | Free-atom electrostatic energy:        -143.13382383 Ha       -3894.86951514 eV
  | Hartree energy correction     :          -7.25628400 Ha        -197.45353393 eV
  | van der Waals energy corr.    :          -0.00116458 Ha          -0.03168979 eV
  | Entropy correction            :           0.00000000 Ha           0.00000000 eV
  | ---------------------------
  | Total energy                  :        -306.18329057 Ha       -8331.67124711 eV
  | Total energy, T -> 0          :        -306.18329057 Ha       -8331.67124711 eV  <-- do not rely on this value for anything but (periodic) metals
  | Electronic free energy        :        -306.18329057 Ha       -8331.67124711 eV

  Derived energy quantities:
  | Kinetic energy                :         305.35235849 Ha        8309.06043475 eV
  | Electrostatic energy          :        -574.27533632 Ha      -15626.82698556 eV
  | Energy correction for multipole
  | error in Hartree potential    :          -0.00669000 Ha          -0.18204409 eV
  | Sum of eigenvalues per atom                           :        -376.79086447 eV
  | Total energy (T->0) per atom                          :        -694.30593726 eV  <-- do not rely on this value for anything but (periodic) metals
  | Electronic free energy per atom                       :        -694.30593726 eV

  atomic forces [eV/Ang]:
  -----------------------
  atom #    1
   Hellmann-Feynman + Multipole  : -.669563E+01 -.102384E+02 0.268690E+01
   Pulay + GGA                   : 0.612194E+01 0.127360E+02 -.357280E+01
   Van der Waals               : -.221183E-02 -.581740E-02 0.957430E-03
   ----------------------------------------------------------------
   Total forces(   1)            : -.575901E+00 0.249172E+01 -.884940E+00
  atom #    2
   Hellmann-Feynman + Multipole  : 0.190627E+01 -.339161E+01 0.139160E+01
   Pulay + GGA                   : 0.639794E-03 0.588080E-01 -.242666E-01
   Van der Waals               : -.166101E-02 0.846140E-03 0.145468E-02
   ----------------------------------------------------------------
   Total forces(   2)            : 0.190525E+01 -.333196E+01 0.136879E+01
  atom #    3
   Hellmann-Feynman + Multipole  : -.215675E+01 -.655581E+00 -.249793E+00
   Pulay + GGA                   : 0.590559E-01 0.189753E-01 0.291553E-01
   Van der Waals               : 0.932426E-04 -.121460E-03 0.341730E-03
   ----------------------------------------------------------------
   Total forces(   3)            : -.209760E+01 -.636727E+00 -.220296E+00
  atom #    4
   Hellmann-Feynman + Multipole  : -.614901E+01 -.919422E+01 0.932240E+01
   Pulay + GGA                   : 0.627263E+01 0.103535E+02 -.677607E+01
   Van der Waals               : -.530148E-03 0.479453E-02 0.360639E-02
   ----------------------------------------------------------------
   Total forces(   4)            : 0.123095E+00 0.116408E+01 0.254993E+01
  atom #    5
   Hellmann-Feynman + Multipole  : -.499201E+00 -.792939E+00 -.509133E+00
   Pulay + GGA                   : 0.546519E-01 0.125493E+00 0.406115E-01
   Van der Waals               : 0.131106E-02 0.130808E-02 0.255403E-02
   ----------------------------------------------------------------
   Total forces(   5)            : -.443238E+00 -.666138E+00 -.465967E+00
  atom #    6
   Hellmann-Feynman + Multipole  : -.242017E+00 0.410498E+00 -.233554E+01
   Pulay + GGA                   : -.369913E-01 0.414346E-01 -.124491E+00
   Van der Waals               : 0.101611E-02 0.151264E-04 0.854368E-03
   ----------------------------------------------------------------
   Total forces(   6)            : -.277992E+00 0.451948E+00 -.245918E+01
  atom #    7
   Hellmann-Feynman + Multipole  : -.648209E+01 0.505860E+00 -.101526E+02
   Pulay + GGA                   : 0.949354E+01 -.594894E-01 0.116535E+02
   Van der Waals               : 0.853825E-03 0.215453E-02 -.115853E-03
   ----------------------------------------------------------------
   Total forces(   7)            : 0.301230E+01 0.448525E+00 0.150078E+01
  atom #    8
   Hellmann-Feynman + Multipole  : -.171532E+00 -.103055E+01 -.121810E+01
   Pulay + GGA                   : 0.380074E-01 0.949595E-01 0.925264E-01
   Van der Waals               : -.413871E-04 0.242261E-02 0.298981E-04
   ----------------------------------------------------------------
   Total forces(   8)            : -.133566E+00 -.933166E+00 -.112555E+01
  atom #    9
   Hellmann-Feynman + Multipole  : -.163653E+01 0.102904E+01 -.316957E+00
   Pulay + GGA                   : 0.127829E+00 -.532367E-01 0.210860E-01
   Van der Waals               : -.115231E-02 0.256633E-03 -.196746E-03
   ----------------------------------------------------------------
   Total forces(   9)            : -.150985E+01 0.976056E+00 -.296068E+00
  atom #   10
   Hellmann-Feynman + Multipole  : 0.111871E+01 -.165340E+02 0.222802E+01
   Pulay + GGA                   : 0.233616E+00 0.166722E+02 -.408988E+01
   Van der Waals               : 0.166604E-02 -.296038E-02 -.608432E-02
   ----------------------------------------------------------------
   Total forces(  10)            : 0.135399E+01 0.135230E+00 -.186794E+01
  atom #   11
   Hellmann-Feynman + Multipole  : -.252720E+00 0.563460E+00 0.187686E+00
   Pulay + GGA                   : -.700547E-01 0.103816E+00 0.865508E-01
   Van der Waals               : 0.237102E-03 -.435409E-03 -.697711E-03
   ----------------------------------------------------------------
   Total forces(  11)            : -.322537E+00 0.666841E+00 0.273539E+00
  atom #   12
   Hellmann-Feynman + Multipole  : -.109187E+01 -.829265E+00 0.175038E+01
   Pulay + GGA                   : 0.631926E-01 0.750699E-01 -.125140E+00
   Van der Waals               : 0.419320E-03 -.246300E-02 -.270389E-02
   ----------------------------------------------------------------
   Total forces(  12)            : -.102825E+01 -.756658E+00 0.162253E+01
  Timings for vdw_correction_hirshfeld (Tkatchenko-Scheffler 2009):
  | CPU time:        2.873 s, Wall clock time:        2.872 s.
  Removing unitary transformations (pure translations, rotations) from forces on atoms.
  Atomic forces before filtering:
  | Net force on center of mass :  0.569668E-02 0.974378E-02 -.436864E-02 eV/A
  | Net torque on center of mass:  -.114319E-01 0.573110E-02 -.237135E-02 eV
  Atomic forces after filtering:
  | Net force on center of mass :  -.535218E-15 -.802828E-15 -.713624E-15 eV/A
  | Net torque on center of mass:  -.566451E-15 0.755268E-15 -.320989E-14 eV
 
  Energy and forces in a compact form:
  | Total energy uncorrected      :         -0.833167124711322E+04 eV
  | Total energy corrected        :         -0.833167124711322E+04 eV  <-- do not rely on this value for anything but (periodic) metals
  | Electronic free energy        :         -0.833167124711322E+04 eV
  Total atomic forces (unitary forces cleaned) [eV/Ang]:
  |   1         -0.576377862898960E+00          0.249107147363426E+01         -0.885198935042997E+00
  |   2          0.190491616000837E+01         -0.333245350218629E+01          0.136870734110366E+01
  |   3         -0.209806787396985E+01         -0.637448700004496E+00         -0.220249376478165E+00
  |   4          0.122927157329424E+00          0.116375897478777E+01          0.255007577310295E+01
  |   5         -0.443437971019519E+00         -0.666594867038194E+00         -0.465467913367306E+00
  |   6         -0.277949096974882E+00          0.451929225138973E+00         -0.245902550122293E+01
  |   7          0.301186930451594E+01          0.447725537395884E+00          0.150131386376213E+01
  |   8         -0.134136377444329E+00         -0.934219532110797E+00         -0.112479222408738E+01
  |   9         -0.151035040011565E+01          0.975167044322965E+00         -0.295533553423805E+00
  |  10          0.135308011569075E+01          0.133749553947746E+00         -0.186738547932522E+01
  |  11         -0.323510937939700E+00          0.665236569404063E+00          0.274211833413376E+00
  |  12         -0.102896221718159E+01         -0.757921777291893E+00          0.162334417156569E+01
 
  ------------------------------------ 
  Start decomposition of the XC Energy 
  ------------------------------------ 
  Hartree-Fock part   :          0.000000000 Ha              0.000000000 eV
  ------------------------------------ 
  X Energy            :        -35.950971689 Ha           -978.275713774 eV
  C Energy GGA        :         -1.308176463 Ha            -35.597292737 eV
  Total XC Energy     :        -37.259148152 Ha          -1013.873006510 eV
  LDA X and C from self-consistent density 
  X Energy LDA        :        -32.395286763 Ha           -881.520604101 eV
  C Energy LDA        :         -2.638460135 Ha            -71.796153225 eV
  ------------------------------------ 
  End decomposition of the XC Energy 
  ------------------------------------ 
  Performing Hirshfeld analysis of fragment charges and moments.
  ----------------------------------------------------------------------
  | Atom     1: O
  |   Hirshfeld charge        :     -0.42746774
  |   Free atom volume        :     23.95238533
  |   Hirshfeld volume        :     25.34194184
  |   Hirshfeld dipole vector :      0.03701069       0.07451571      -0.02079437
  |   Hirshfeld dipole moment :      0.08576006
  |   Hirshfeld second moments:     -0.02307000      -0.02851840       0.02831809
  |                                 -0.02851840      -0.08830079      -0.02268553
  |                                  0.02831809      -0.02268553      -0.13535963
  ----------------------------------------------------------------------
  | Atom     2: H
  |   Hirshfeld charge        :      0.05531353
  |   Free atom volume        :     10.44207651
  |   Hirshfeld volume        :      8.82399086
  |   Hirshfeld dipole vector :     -0.02176646       0.04501096      -0.02053405
  |   Hirshfeld dipole moment :      0.05405009
  |   Hirshfeld second moments:      0.06452206       0.02679967       0.00264209
  |                                  0.02679967       0.01943764       0.01487515
  |                                  0.00264209       0.01487515       0.04902272
  ----------------------------------------------------------------------
  | Atom     3: H
  |   Hirshfeld charge        :      0.03882436
  |   Free atom volume        :     10.44207651
  |   Hirshfeld volume        :      8.97345632
  |   Hirshfeld dipole vector :      0.05359682       0.01566254       0.00526259
  |   Hirshfeld dipole moment :      0.05608591
  |   Hirshfeld second moments:      0.01422995      -0.03006208       0.00713843
  |                                 -0.03006208       0.06186358      -0.00325759
  |                                  0.00713843      -0.00325759       0.04298428
  ----------------------------------------------------------------------
  | Atom     4: O
  |   Hirshfeld charge        :     -0.17104573
  |   Free atom volume        :     23.95238533
  |   Hirshfeld volume        :     19.97210697
  |   Hirshfeld dipole vector :      0.02759149      -0.01200577      -0.01615340
  |   Hirshfeld dipole moment :      0.03415203
  |   Hirshfeld second moments:      0.05111945       0.02091134       0.02867670
  |                                  0.02091134       0.09359152       0.01317978
  |                                  0.02867670       0.01317978       0.10975238
  ----------------------------------------------------------------------
  | Atom     5: H
  |   Hirshfeld charge        :      0.17530218
  |   Free atom volume        :     10.44207651
  |   Hirshfeld volume        :      6.01877911
  |   Hirshfeld dipole vector :      0.05954456       0.08967478       0.04232988
  |   Hirshfeld dipole moment :      0.11566737
  |   Hirshfeld second moments:      0.11662494       0.00024332       0.00685572
  |                                  0.00024332       0.12330332      -0.00345535
  |                                  0.00685572      -0.00345535       0.13721141
  ----------------------------------------------------------------------
  | Atom     6: H
  |   Hirshfeld charge        :      0.17426852
  |   Free atom volume        :     10.44207651
  |   Hirshfeld volume        :      5.67035034
  |   Hirshfeld dipole vector :     -0.01867428       0.00749098      -0.12018872
  |   Hirshfeld dipole moment :      0.12186128
  |   Hirshfeld second moments:      0.12759190       0.01115088       0.00804449
  |                                  0.01115088       0.14120757       0.00475797
  |                                  0.00804449       0.00475797       0.12986689
  ----------------------------------------------------------------------
  | Atom     7: O
  |   Hirshfeld charge        :     -0.18565917
  |   Free atom volume        :     23.95238533
  |   Hirshfeld volume        :     20.54833556
  |   Hirshfeld dipole vector :     -0.01793291      -0.02913999       0.03007382
  |   Hirshfeld dipole moment :      0.04555396
  |   Hirshfeld second moments:      0.06901620      -0.02861784       0.00776301
  |                                 -0.02861784       0.07835633       0.03930321
  |                                  0.00776301       0.03930321       0.04688283
  ----------------------------------------------------------------------
  | Atom     8: H
  |   Hirshfeld charge        :      0.16686376
  |   Free atom volume        :     10.44207651
  |   Hirshfeld volume        :      6.02047271
  |   Hirshfeld dipole vector :      0.00250821       0.07259111       0.09367518
  |   Hirshfeld dipole moment :      0.11853607
  |   Hirshfeld second moments:      0.12766140      -0.01222179       0.00749941
  |                                 -0.01222179       0.12932039       0.00192515
  |                                  0.00749941       0.00192515       0.11337160
  ----------------------------------------------------------------------
  | Atom     9: H
  |   Hirshfeld charge        :      0.17252020
  |   Free atom volume        :     10.44207651
  |   Hirshfeld volume        :      5.76293760
  |   Hirshfeld dipole vector :      0.09025767      -0.07921268       0.01286064
  |   Hirshfeld dipole moment :      0.12077455
  |   Hirshfeld second moments:      0.12404421       0.00098967       0.00073482
  |                                  0.00098967       0.12979117       0.01577798
  |                                  0.00073482       0.01577798       0.13269781
  ----------------------------------------------------------------------
  | Atom    10: O
  |   Hirshfeld charge        :     -0.28495902
  |   Free atom volume        :     23.95238533
  |   Hirshfeld volume        :     21.94535838
  |   Hirshfeld dipole vector :     -0.00837217       0.05088894      -0.00653652
  |   Hirshfeld dipole moment :      0.05198561
  |   Hirshfeld second moments:     -0.00006780      -0.01214897      -0.06428839
  |                                 -0.01214897       0.00693128       0.00565917
  |                                 -0.06428839       0.00565917       0.03983471
  ----------------------------------------------------------------------
  | Atom    11: H
  |   Hirshfeld charge        :      0.14357746
  |   Free atom volume        :     10.44207651
  |   Hirshfeld volume        :      6.22068712
  |   Hirshfeld dipole vector :     -0.06478987       0.08583833       0.06772406
  |   Hirshfeld dipole moment :      0.12709246
  |   Hirshfeld second moments:      0.10923205       0.00379197      -0.01728903
  |                                  0.00379197       0.11233087      -0.00826987
  |                                 -0.01728903      -0.00826987       0.12390112
  ----------------------------------------------------------------------
  | Atom    12: H
  |   Hirshfeld charge        :      0.14246443
  |   Free atom volume        :     10.44207651
  |   Hirshfeld volume        :      6.45922589
  |   Hirshfeld dipole vector :      0.05717936       0.05303421      -0.09172164
  |   Hirshfeld dipole moment :      0.12039504
  |   Hirshfeld second moments:      0.10826607      -0.01063182      -0.01383479
  |                                 -0.01063182       0.11511656       0.00854759
  |                                 -0.01383479       0.00854759       0.10714122
  ----------------------------------------------------------------------


------------------------------------------------------------------------------
  Final output of selected total energy values:

  The following output summarizes some interesting total energy values
  at the end of a run (AFTER all relaxation, molecular dynamics, etc.).

  | Total energy of the DFT / Hartree-Fock s.c.f. calculation      :          -8331.671247113 eV
  | Final zero-broadening corrected energy (caution - metals only) :          -8331.671247113 eV
  | For reference only, the value of 1 Hartree used in FHI-aims is :             27.211384500 eV

  Before relying on these values, please be sure to understand exactly which
  total energy value is referred to by a given number. Different objects may
  all carry the same name 'total energy'. Definitions:

  Total energy of the DFT / Hartree-Fock s.c.f. calculation:
  | Note that this energy does not include ANY quantities calculated after the
  | s.c.f. cycle, in particular not ANY RPA, MP2, etc. many-body perturbation terms.

  Final zero-broadening corrected energy:
  | For metallic systems only, a broadening of the occupation numbers at the Fermi
  | level can be extrapolated back to zero broadening by an electron-gas inspired
  | formula. For all systems that are not real metals, this value can be
  | meaningless and should be avoided.

------------------------------------------------------------------------------

------------------------------------------------------------
          Leaving FHI-aims.
          Date     :  20150727, Time     :  122409.415

          Computational steps:
          | Number of self-consistency cycles          :           14

          Detailed time accounting                     :  max(cpu_time)    wall_clock(cpu1)
          | Total time                                 :       19.279 s          19.312 s
          | Preparation time                           :        0.170 s           0.555 s
          | Grid partitioning                          :        0.128 s           0.128 s
          | Preloading free-atom quantities on grid    :        0.013 s           0.013 s
          | Free-atom superposition energy             :        0.046 s           0.046 s
          | Total time for integrations                :        7.774 s           7.773 s
          | Total time for solution of K.-S. equations :        0.545 s           0.547 s
          | Total time for density & force components  :        6.233 s           6.234 s
          | Total time for mixing                      :        0.135 s           0.136 s
          | Total time for Hartree multipole update    :        0.061 s           0.060 s
          | Total time for Hartree multipole sum       :        3.601 s           3.604 s
          | Total time for total energy evaluation     :        0.002 s           0.005 s
          | Total time for scaled ZORA corrections     :        0.000 s           0.000 s
          | Total time for TS (2009) vdW correction    :        0.034 s           0.035 s

          Have a nice day.
------------------------------------------------------------
