  MPI-parallelism will be employed.
------------------------------------------------------------
          Invoking FHI-aims ...
          Version 081213
          Compiled on 2013/08/29 at 17:41:06 on host generoso.

          When using FHI-aims, please cite the following reference:

          Volker Blum, Ralf Gehrke, Felix Hanke, Paula Havu,
          Ville Havu, Xinguo Ren, Karsten Reuter, and Matthias Scheffler,
          'Ab Initio Molecular Simulations with Numeric Atom-Centered Orbitals: FHI-aims',
          Computer Physics Communications 180, 2175-2196 (2009)

          For any questions about FHI-aims, please visit the aimsclub website
          with its forums and wiki. Contributions to both the forums and the
          wiki are warmly encouraged - they are for you, and everyone is welcome there.

------------------------------------------------------------

  Date     :  20150727, Time     :  123056.960
  Time zero on CPU 1             :   0.429930000000000E-01  s.
  Internal wall clock time zero  :           207232256.960  s.

  Using        8 parallel tasks.
  Task        0 on host gen60 reporting.
  Task        1 on host gen60 reporting.
  Task        2 on host gen60 reporting.
  Task        3 on host gen60 reporting.
  Task        4 on host gen60 reporting.
  Task        5 on host gen60 reporting.
  Task        6 on host gen60 reporting.
  Task        7 on host gen60 reporting.

  Performing system and environment tests:
  | Environment variable OMP_NUM_THREADS correctly set to 1.
  | Checking for scalapack...
  | No scalapack compiled in.

  Obtaining array dimensions for all initial allocations:
  
  -----------------------------------------------------------------------
  Parsing control.in (first pass over file, find array dimensions only).
  The contents of control.in will be repeated verbatim below
  unless switched off by setting 'verbatim_writeout .false.' .
  in the first line of control.in .
  -----------------------------------------------------------------------
  
  #########################################################################################
  #
  #  Volker Blum, FHI 2008 : Test run input file control.in
  #
  #########################################################################################
  #
  #  Physical model
  #
    xc                 rpbe
    spin               none
    relativistic       atomic_zora scalar
    charge             0.
   vdw_correction_hirshfeld
  #
  #  SCF convergence
  #
    occupation_type    gaussian 0.01
    mixer              pulay
      n_max_pulay        10
      charge_mix_param   0.1
    sc_accuracy_rho    5E-5
    sc_accuracy_eev    5E-3
    sc_accuracy_etot   5E-6
    sc_iter_limit      3000
  #
  #  Eigenvalue solver
  #
    KS_method          lapack
      empty_states       8
      basis_threshold    0.e-5
  #
  #  Efficiency
  #
  #   all previous settings are now default, except stratmann still
  #   undecided. Continue to handle stratmann with care, if at all.
  #
  #  partition_type stratmann
    partition_type rho_r2
  #  hartree_partition_type stratmann
  #
  #  Oprions for large clusters (100's of atoms: memory saving / better scaling)
  #
  # for periodic systems:
  #
    density_update_method orbital
    packed_matrix_format none
  #  k_grid 6 6 6
  #  output k_eigenvalue 1
  #  distributed_spline_storage .true.
  #
  #  Relaxation
  #
  #  relax_geometry   bfgs 5.e-3
    sc_accuracy_forces 5.E-4
    final_forces_cleaned .true.
  #
  #  Output options
  #
  #  output mulliken
    output Hirshfeld
  #  output dipole
  
  #harmonic_length_scale 0.001
  
  ################################################################################
  #
  #  FHI-aims code project
  #  VB, Fritz-Haber Institut, 2007
  #
  #  Suggested "safe" defaults for H atom (to be pasted into control.in file)
  #  Basis constructed for a non-relativistic H2 molecule using the
  #  PW-LDA functional.
  #
  ################################################################################
    species        H
  #     global species definitions
      nucleus             1
      cut_pot             4.0  2.0  1.0
      cut_free_atom       finite 8.0
      logarithmic         0.00010000 100.00  1.0123
      basis_dep_cutoff    1d-4  # 1d-4 is safe default - please check 5d-4 if you wish!
      radial_base         24 7.0
      radial_multiplier   2
      angular_grids       specified
        division   0.2783  110
        division   0.3822  194
        division   0.5626  302
  #      division   0.5922  434
  #      division   0.6227  590
  #      division   0.7206  770
        outer_grid  302
      l_hartree           4
  ################################################################################
  #
  #  Definition of "minimal" basis
  #
  ################################################################################
  #     valence basis states
      valence      1  s   1.
  #     ion occupancy
      ion_occ      1  s   0.5
  ################################################################################
  #
  #  Suggested additional basis functions. For production calculations,
  #  uncomment them one after another (the most important basis functions are
  #  listed first).
  #
  ################################################################################
  #  "First tier" - improvements: -1014.90 meV to -62.69 meV
       hydro 2 s 2.1
       hydro 2 p 3.5
  #  "Second tier" - improvements: -12.89 meV to -1.83 meV
       hydro 1 s 0.85
       hydro 2 p 3.7
       hydro 2 s 1.2
       hydro 3 d 7
  #  "Third tier" - improvements: -0.25 meV to -0.12 meV
  #     hydro 4 f 11.2
  #     hydro 3 p 4.8
  #     hydro 4 d 9
  #     hydro 3 s 3.2
  
  ################################################################################
  #
  #  FHI-aims code project
  #  VB, Fritz-Haber Institut, 2007
  #
  #  Suggested "safe" defaults for O atom (to be pasted into control.in file)
  #  All values have been tested for a non-relativistic, non-spinpolarized O2
  #  molecule using the PW-LDA functional. Validity for PBE is expected.
  #
  #  Constructed for dimers: 1.0 A, 1.208 A, 1.5 A, 2.0 A, 3.0 A
  #
  ################################################################################
    species        O
  #     global species definitions
      nucleus             8
      mass                15.9994
      l_hartree           4
      cut_pot             4.0  2.0  1.0
      cut_free_atom       finite 8.0
      basis_dep_cutoff    1d-4  # 1d-4 is safe default - please check 5d-4 if you wish!
      logarithmic         0.00010000 100.00  1.0123
      radial_base         36 7.0
      radial_multiplier   2
       angular_grids specified
        division   0.4087  110
        division   0.5181  194
        division   0.6184  302
  #      division   0.7315  434
  #      division   0.7934  590
  #      division   0.9656  770
  #      division   1.4041  974
  #      outer_grid 974
        outer_grid 302
  ################################################################################
  #
  #  Definition of "minimal" basis
  #
  ################################################################################
  #     valence basis states
      valence      2  s   2.
      valence      2  p   4.
  #     ion occupancy
      ion_occ      2  s   1.
      ion_occ      2  p   3.
  ################################################################################
  #
  #  Suggested additional basis functions. For production calculations,
  #  uncomment them one after another (the most important basis functions are
  #  listed first).
  #
  ################################################################################
  #  "First tier" - improvements: -699.05 meV to -159.38 meV
       hydro 2 p 1.8
       hydro 3 d 7.6
       hydro 3 s 6.4
  #  "Second tier" - improvements: -49.91 meV to -5.39 meV
       hydro 4 f 11.6
       hydro 3 p 6.2
       hydro 3 d 5.6
       hydro 5 g 17.6
       hydro 1 s 0.75
  #  "Third tier" - improvements: -2.83 meV to -0.50 meV
  #     ionic 2 p auto
  #     hydro 4 f 10.8
  #     hydro 4 d 4.7
  #     hydro 2 s 6.8
  #  "Fourth tier" - improvements: -0.40 meV to -0.12 meV
  #     hydro 3 p 5
  #     hydro 3 s 3.3
  #     hydro 5 g 15.6
  #     hydro 4 f 17.6
  #     hydro 4 d 14
  # Further basis functions - -0.08 meV and below
  #     hydro 3 s 2.1
  #     hydro 4 d 11.6
  #     hydro 3 p 16
  #     hydro 2 s 17.2
  
  
  -----------------------------------------------------------------------
  Completed first pass over input file control.in .
  -----------------------------------------------------------------------
  
  
  -----------------------------------------------------------------------
  Parsing geometry.in (first pass over file, find array dimensions only).
  The contents of geometry.in will be repeated verbatim below
  unless switched off by setting 'verbatim_writeout .false.' .
  in the first line of geometry.in .
  -----------------------------------------------------------------------
  
  atom      -4.053030000      0.065001000     -1.525160000  O
  atom      -4.566710000      0.974813000     -1.912820000  H
  atom      -3.067820000      0.330172000     -1.477310000  H
  atom      -5.293160000      2.192130000     -2.328800000  O
  atom      -4.829300000      2.988660000     -1.973850000  H
  atom      -5.428570000      2.328640000     -3.235170000  H
  atom      -5.628340000      3.730740000      1.385610000  O
  atom      -6.090650000      4.418470000      1.860350000  H
  atom      -5.158540000      4.200260000      0.615875000  H
  
  -----------------------------------------------------------------------
  Completed first pass over input file geometry.in .
  -----------------------------------------------------------------------
  
 
  Basic array size parameters: 
  | Number of species                 :        2
  | Number of atoms                   :        9
  | Max. basis fn. angular momentum   :        4
  | Max. atomic/ionic basis occupied n:        2
  | Max. number of basis fn. types    :        2
  | Max. radial fns per species/type  :        8
  | Max. logarithmic grid size        :     1301
  | Max. radial integration grid size :       73
  | Max. angular integration grid size:      302
  | Max. angular grid division number :        8
  | Radial grid for Hartree potential :     1301
  | Number of spin channels           :        1

------------------------------------------------------------
          Reading file control.in.
------------------------------------------------------------
  XC: Using RPBE gradient-corrected functionals.
  Spin treatment: No spin polarisation.
  Scalar relativistic treatment of kinetic energy: on-site free-atom approximation to ZORA.
  Charge =   0.000000E+00: Neutral system requested explicitly.
  Using non-empirical van der Waals correction (Hirshfeld partitioning):
  Occupation type: Gaussian broadening, width =   0.100000E-01 eV.
  Using pulay charge density mixing.
  Pulay mixing - number of memorized iterations:   10
  Charge density mixing - mixing parameter:     0.1000
  Convergence accuracy of self-consistent charge density: 0.5000E-04
  Convergence accuracy of sum of eigenvalues: 0.5000E-02
  Convergence accuracy of total energy: 0.5000E-05
  Maximum number of s.-c. iterations  :  3000
  Kohn-Sham eigenvalues and eigenfunctions calculated by lapack diagonalisation (D&C).
  Number of empty states per atom:        8
  Threshold for basis singularities: 0.0000E+00
  Partition function in integrals calculations: rho / r^2
 Using packed matrix format           0
  Convergence accuracy of forces: 0.5000E-03
  Cleaning forces before final output.
  Hirshfeld charge analysis will be performed.
 
  Reading configuration options for species H                   .
  | Found nuclear charge :   1.0000
  | Found cutoff potl. onset [A], width [A], scale factor :    4.00000    2.00000    1.00000
  | Found cutoff specification for free atom: Cutoff potential begins at    8.00000 A.
  | Found logarithmic grid data [bohr] : 0.1000E-03 0.1000E+03 0.1012E+01
  | Threshold for basis-dependent cutoff potential is   0.100000E-03
  | Found data for basic radial integration grid :    24 points, outermost radius =    7.000 A
  | Found multiplier for basic radial grid :   2
  | Found angular grid specification: user-specified.
  | Specified grid contains     4 separate shells.
  | Check grid settings after all constraints further below.
  | Found l_max for Hartree potential  :   4
  | Found free-atom valence shell :  1 s   1.000
  | No ionic wave fns used. Skipping ion_occ.
  | Found hydrogenic basis function :  2 s   2.100
  | Found hydrogenic basis function :  2 p   3.500
  | Found hydrogenic basis function :  1 s   0.850
  | Found hydrogenic basis function :  2 p   3.700
  | Found hydrogenic basis function :  2 s   1.200
  | Found hydrogenic basis function :  3 d   7.000
  Species H                   : Missing cutoff potential type.
  Defaulting to exp(1/x)/(1-x)^2 type cutoff potential.
  Species H : On-site basis accuracy parameter (for Gram-Schmidt orthonormalisation) not specified.
  Using default value basis_acc =  0.1000000E-03.
  Species H                   : Using default innermost maximum threshold i_radial=  2 for radial functions.
  Species H                   : Basic radial grid will be enhanced according to radial_multiplier =   2, to contain    49 grid points.
 
  Reading configuration options for species O                   .
  | Found nuclear charge :   8.0000
  | Found atomic mass :    15.9994000000000      amu
  | Found l_max for Hartree potential  :   4
  | Found cutoff potl. onset [A], width [A], scale factor :    4.00000    2.00000    1.00000
  | Found cutoff specification for free atom: Cutoff potential begins at    8.00000 A.
  | Threshold for basis-dependent cutoff potential is   0.100000E-03
  | Found logarithmic grid data [bohr] : 0.1000E-03 0.1000E+03 0.1012E+01
  | Found data for basic radial integration grid :    36 points, outermost radius =    7.000 A
  | Found multiplier for basic radial grid :   2
  | Found angular grid specification: user-specified.
  | Specified grid contains     4 separate shells.
  | Check grid settings after all constraints further below.
  | Found free-atom valence shell :  2 s   2.000
  | Found free-atom valence shell :  2 p   4.000
  | No ionic wave fns used. Skipping ion_occ.
  | No ionic wave fns used. Skipping ion_occ.
  | Found hydrogenic basis function :  2 p   1.800
  | Found hydrogenic basis function :  3 d   7.600
  | Found hydrogenic basis function :  3 s   6.400
  | Found hydrogenic basis function :  4 f  11.600
  | Found hydrogenic basis function :  3 p   6.200
  | Found hydrogenic basis function :  3 d   5.600
  | Found hydrogenic basis function :  5 g  17.600
  | Found hydrogenic basis function :  1 s   0.750
  Species O                   : Missing cutoff potential type.
  Defaulting to exp(1/x)/(1-x)^2 type cutoff potential.
  Species O : On-site basis accuracy parameter (for Gram-Schmidt orthonormalisation) not specified.
  Using default value basis_acc =  0.1000000E-03.
  Species O                   : Using default innermost maximum threshold i_radial=  2 for radial functions.
  Species O                   : Basic radial grid will be enhanced according to radial_multiplier =   2, to contain    73 grid points.
 
  Finished reading input file 'control.in'. Consistency checks are next.
 
  Target number of points in a grid batch is not set. Defaulting to  100
  Method for grid partitioning is not set. Defaulting to parallel hash+maxmin partitioning.
  Batch size limit is not set. Defaulting to    200
  By default, will store active basis functions for each batch.
  If in need of memory, prune_basis_once .false. can be used to disable this option.
  communication_type for Hartree potential was not specified.
  Defaulting to calc_hartree .
  Pulay mixer: Number of initial linear mixing iterations not set.
  Defaulting to    0 iterations.
  Work space size for distributed Hartree potential not set.
  Defaulting to   0.200000E+03 MB.
  Algorithm-dependent basis array size parameters:
  | n_max_pulay                         :       10
  Geometry relaxation not requested: no relaxation will be performed.
  Handling of forces: Unphysical translation and rotation will be removed from forces.
  No accuracy limit for integral partition fn. given. Defaulting to 0.1000E-14.
  No threshold value for u(r) in integrations given. Defaulting to 0.1000E-05.
  No accuracy for occupation numbers given. Defaulting to 0.1000E-07.
  No threshold value for occupation numbers given. Defaulting to 0.0000E+00.
  No accuracy for fermi level given. Defaulting to 0.1000E-19.
  Maximum # of iterations to find E_F not set. Defaulting to  200.
  Will not use alltoall communication since running on < 1024 CPUs.
  Partitioning for Hartree potential was not defined. Using partition_type for integrals.
  | Reporting present value of keyword multip_moments_threshold  :       0.10000000E-09
  | This value may affect high angular momentum components of the Hartree potential in periodic systems.
  No q(lm)/r^(l+1) cutoff set for long-range Hartree potential.
  | Using default value of  0.100000E-09 .
  | Verify using the multipole_threshold keyword.
  Defaulting to new monopole extrapolation.
  Density update method: Loop over occupied states selected for charge density update.
------------------------------------------------------------


------------------------------------------------------------
          Reading geometry description geometry.in.
------------------------------------------------------------
  Input structure read successfully.
  The structure contains        9 atoms,  and a total of         30.000 electrons.

  Input geometry:
  | No unit cell requested.
  | Atomic structure:
  |       Atom                x [A]            y [A]            z [A]
  |    1: Species O             -4.053030         0.065001        -1.525160
  |    2: Species H             -4.566710         0.974813        -1.912820
  |    3: Species H             -3.067820         0.330172        -1.477310
  |    4: Species O             -5.293160         2.192130        -2.328800
  |    5: Species H             -4.829300         2.988660        -1.973850
  |    6: Species H             -5.428570         2.328640        -3.235170
  |    7: Species O             -5.628340         3.730740         1.385610
  |    8: Species H             -6.090650         4.418470         1.860350
  |    9: Species H             -5.158540         4.200260         0.615875
  |

  | The smallest distance between any two atoms is         0.92654057 AA.
  |
  | The first atom of this pair is atom number                      4 .
  | The second atom of this pair is atom number                     6 .

  Structure-dependent array size parameters: 
  | Maximum number of distinct radial functions  :       18
  | Maximum number of basis functions            :      207
  | Number of Kohn-Sham states (occupied + empty):       51
------------------------------------------------------------

------------------------------------------------------------
          Preparing all fixed parts of the calculation.
------------------------------------------------------------
  Determining machine precision:
    2.225073858507201E-308
  Setting up grids for atomic and cluster calculations.

  Creating wave function, potential, and density for free atoms.

  Species: H

  List of occupied orbitals and eigenvalues:
    n    l              occ      energy [Ha]    energy [eV]
    1    0           1.0000        -0.241408        -6.5691


  Species: O

  List of occupied orbitals and eigenvalues:
    n    l              occ      energy [Ha]    energy [eV]
    1    0           2.0000       -18.944147      -515.4965
    2    0           2.0000        -0.883529       -24.0421
    2    1           4.0000        -0.330176        -8.9845

  Creating fixed part of basis set: Ionic, confined, hydrogenic.
 
  H                    hydrogenic:
 
  List of hydrogenic basis orbitals: 
    n    l      effective z      eigenvalue [eV]  inner max. [A]     outer max. [A]     outer radius [A]   
    2    0         2.100000       -14.9965           0.193241           1.317192           5.372934
    2    1         3.500000       -41.6672           0.602363           0.602363           4.056010
    1    0         0.850000        -9.8292           0.624864           0.624864           5.372934
    2    1         3.700000       -46.5653           0.573616           0.573616           3.909951
    2    0         1.200000        -4.5995           0.334977           2.228160           5.505921
    3    2         7.000000       -74.0753           0.680692           0.680692           3.769152
 
 
  O                    hydrogenic:
 
  List of hydrogenic basis orbitals: 
    n    l      effective z      eigenvalue [eV]  inner max. [A]     outer max. [A]     outer radius [A]   
    2    1         1.800000       -11.0118           1.178546           1.178546           5.432516
    3    2         7.600000       -87.3182           0.624117           0.624117           3.541422
    3    0         6.400000       -61.9209           0.061166           1.081887           4.306510
    4    3        11.600000      -114.4238           0.731621           0.731621           3.584982
    3    1         6.200000       -58.1113           0.255677           1.030255           4.306510
    3    2         5.600000       -47.4081           0.847222           0.847222           4.413102
    5    4        17.600000      -168.5799           0.749730           0.749730           3.372413
    1    0         0.750000        -7.6499           0.705275           0.705275           5.366508
 

  Adding cutoff potential to free-atom effective potential.
  Creating atomic-like basis functions for current effective potential.

  Species H                   :

  List of atomic basis orbitals and eigenvalues:
    n    l      energy [Ha]    energy [eV]    outer radius [A]
    1    0        -0.241374        -6.5681       5.372934


  Species O                   :

  List of atomic basis orbitals and eigenvalues:
    n    l      energy [Ha]    energy [eV]    outer radius [A]
    1    0       -18.944147      -515.4965       1.415745
    2    0        -0.883529       -24.0421       5.048305
    2    1        -0.330173        -8.9845       5.301302

  Assembling full basis from fixed parts.
  | Species H :   atomic orbital   1 s accepted.
  | Species H :    hydro orbital   2 s accepted.
  | Species H :    hydro orbital   1 s accepted.
  | Species H :    hydro orbital   2 s accepted.
  | Species H :    hydro orbital   2 p accepted.
  | Species H :    hydro orbital   2 p accepted.
  | Species H :    hydro orbital   3 d accepted.
  | Species O :   atomic orbital   1 s accepted.
  | Species O :    hydro orbital   3 s accepted.
  | Species O :   atomic orbital   2 s accepted.
  | Species O :    hydro orbital   1 s accepted.
  | Species O :    hydro orbital   3 p accepted.
  | Species O :   atomic orbital   2 p accepted.
  | Species O :    hydro orbital   2 p accepted.
  | Species O :    hydro orbital   3 d accepted.
  | Species O :    hydro orbital   3 d accepted.
  | Species O :    hydro orbital   4 f accepted.
  | Species O :    hydro orbital   5 g accepted.
 
  Basis size parameters after reduction:
  | Total number of radial functions:       18
  | Total number of basis functions :      207
 
  Testing on-site integration grid accuracy.
  |  Species  Function  <phi|h_atom|phi> (log., in eV)  <phi|h_atom|phi> (rad., in eV)
           1        1                 -6.5683835025                 -6.5684759159
           1        2                 13.3711789951                 13.3708738703
           1        3                 23.6590910787                 23.6532055418
           1        4                 16.2963827186                 16.1870710655 ***
           1        5                 28.7627214838                 28.7627215090
           1        6                 59.5965249172                 59.5965950857
           1        7                 60.2220506392                 60.2220503827
           2        8               -515.4964576505               -515.4964530710
           2        9                 15.3030791347                 15.3030722972
           2       10                -21.7296094581                -21.7296135470
           2       11                 14.2969371730                 14.2969701621
           2       12                 21.0679693190                 21.0679697493
           2       13                 -2.3833606469                 -2.3833613176
           2       14                 13.7067136422                 13.7066766629
           2       15                 45.8013116808                 45.8013116965
           2       16                 52.2309815402                 52.2309831494
           2       17                 85.4120732416                 85.4120732763
           2       18                142.1019167745                142.1019167817
 * Note: Onsite integrals marked "***" above are less accurate than
 * onsite_accuracy_threshold =    0.03000 eV. Usually, this is harmless.
 * When in doubt, tighten the "radial" and/or "radial_multiplier" flags to check.

  Preparing densities etc. for the partition functions (integrals / Hartree potential).

  Preparations completed.
  max(cpu_time)          :      0.173 s.
  Wall clock time (cpu1) :      0.475 s.
------------------------------------------------------------

------------------------------------------------------------
          Begin self-consistency loop: Initialization.

          Date     :  20150727, Time     :  123057.449
------------------------------------------------------------

  Initializing index lists of integration centers etc. from given atomic structure:
  | Number of centers in hartree potential         :         9
  | Number of centers in hartree multipole         :         9
  | Number of centers in electron density summation:         9
  | Number of centers in basis integrals           :         9
  | Number of centers in integrals                 :         9
  Partitioning the integration grid into batches with parallel hashing+maxmin method.
  | Number of batches:     1211
  | Maximal batch size:     200
  | Minimal batch size:      49
  | Average batch size:      97.462
  | Standard deviation of batch sizes:      26.773

  Integration load balanced across     8 MPI tasks.
  Work distribution over tasks is as follows:
  Task     0 has      14791 integration points.
  Task     1 has      14804 integration points.
  Task     2 has      14715 integration points.
  Task     3 has      14777 integration points.
  Task     4 has      14717 integration points.
  Task     5 has      14759 integration points.
  Task     6 has      14707 integration points.
  Task     7 has      14756 integration points.
  Initializing partition tables, free-atom densities, potentials, etc. across the integration grid (initialize_grid_storage).
  | Net number of integration points:   118026
  | of which are non-zero points    :   117521
  Obtaining max. number of non-zero basis functions in each batch (get_n_compute_maxes).
  | Maximal number of non-zero basis functions:      206 in task     0
  | Maximal number of non-zero basis functions:      205 in task     1
  | Maximal number of non-zero basis functions:      206 in task     2
  | Maximal number of non-zero basis functions:      206 in task     3
  | Maximal number of non-zero basis functions:      205 in task     4
  | Maximal number of non-zero basis functions:      205 in task     5
  | Maximal number of non-zero basis functions:      205 in task     6
  | Maximal number of non-zero basis functions:      206 in task     7
  Integrating Hamiltonian matrix: batch-based integration.
  Time summed over all CPUs for integration: real work        2.232 s, elapsed        2.294 s
  Integrating overlap matrix.
  Time summed over all CPUs for integration: real work        1.144 s, elapsed        1.189 s

  Updating Kohn-Sham eigenvalues, eigenvectors, occupation numbers, and Fermi level.
  Solving generalized eigenproblem
  Updating Kohn-Sham eigenvalues and eigenfunctions.
  Transforming overlap matrix and checking for singularities.
  Overlap matrix is nonsingular:
  | Lowest eigenvalue:  0.369248E-03
  Solving real generalised eigenvalue problem by standard LAPACK (fast)
  Determining occupation numbers for Kohn-Sham eigenstates.
  | Chemical potential (Fermi level) in eV                 : -.58086708E+01
  | Error in electron count due to remaining E_F inaccuracy: 0.00000000E+00
  | Maximum occupation number of highest empty state:  0.00E+00

  Writing Kohn-Sham eigenvalues.

  State    Occupation    Eigenvalue [Ha]    Eigenvalue [eV]
      1       2.00000         -19.064793         -518.77942
      2       2.00000         -19.044494         -518.22704
      3       2.00000         -19.019411         -517.54451
      4       2.00000          -1.121161          -30.50834
      5       2.00000          -1.089070          -29.63510
      6       2.00000          -1.043095          -28.38405
      7       2.00000          -0.650169          -17.69201
      8       2.00000          -0.618236          -16.82306
      9       2.00000          -0.596116          -16.22113
     10       2.00000          -0.524308          -14.26714
     11       2.00000          -0.501474          -13.64581
     12       2.00000          -0.481927          -13.11391
     13       2.00000          -0.440906          -11.99767
     14       2.00000          -0.430122          -11.70423
     15       2.00000          -0.409541          -11.14419
     16       0.00000          -0.090998           -2.47617
     17       0.00000          -0.060209           -1.63838
     18       0.00000          -0.039230           -1.06749
     19       0.00000          -0.013721           -0.37336
     20       0.00000           0.027131            0.73827
     21       0.00000           0.037744            1.02706
     22       0.00000           0.077048            2.09659
     23       0.00000           0.086967            2.36649
     24       0.00000           0.093819            2.55293
     25       0.00000           0.102541            2.79029
     26       0.00000           0.105093            2.85971
     27       0.00000           0.109538            2.98069
     28       0.00000           0.121808            3.31456
     29       0.00000           0.142016            3.86446
     30       0.00000           0.145463            3.95826
     31       0.00000           0.175492            4.77538
     32       0.00000           0.189859            5.16634
     33       0.00000           0.203051            5.52529
     34       0.00000           0.262247            7.13609
     35       0.00000           0.270375            7.35729
     36       0.00000           0.277937            7.56305
     37       0.00000           0.335231            9.12211
     38       0.00000           0.347874            9.46613
     39       0.00000           0.371002           10.09549
     40       0.00000           0.375381           10.21464
     41       0.00000           0.391633           10.65688
     42       0.00000           0.410365           11.16659
     43       0.00000           0.429528           11.68806
     44       0.00000           0.438582           11.93442
     45       0.00000           0.463413           12.61011
     46       0.00000           0.474716           12.91768
     47       0.00000           0.503381           13.69770
     48       0.00000           0.514733           14.00660
     49       0.00000           0.542807           14.77053
     50       0.00000           0.578310           15.73660
     51       0.00000           0.661908           18.01142

  Highest occupied state (VBM) at    -11.14418694 eV
  | Occupation number:      2.00000000

  Lowest unoccupied state (CBM) at    -2.47616819 eV
  | Occupation number:      0.00000000

  Overall HOMO-LUMO gap:      8.66801875 eV.
  Calculating total energy contributions from superposition of free atom densities.

  Total energy components:
  | Sum of eigenvalues            :        -130.06964950 Ha       -3539.37524425 eV
  | XC energy correction          :         -27.32127524 Ha        -743.44972549 eV
  | XC potential correction       :          34.90673816 Ha         949.86067380 eV
  | Free-atom electrostatic energy:        -107.36553013 Ha       -2921.56472241 eV
  | Hartree energy correction     :           0.00000000 Ha           0.00000000 eV
  | van der Waals energy corr.    :           0.00000000 Ha           0.00000000 eV
  | Entropy correction            :           0.00000000 Ha           0.00000000 eV
  | ---------------------------
  | Total energy                  :        -229.84971670 Ha       -6254.52901834 eV
  | Total energy, T -> 0          :        -229.84971670 Ha       -6254.52901834 eV  <-- do not rely on this value for anything but (periodic) metals
  | Electronic free energy        :        -229.84971670 Ha       -6254.52901834 eV

  Derived energy quantities:
  | Kinetic energy                :         227.45139516 Ha        6189.26736867 eV
  | Electrostatic energy          :        -429.97983662 Ha      -11700.34666152 eV
  | Energy correction for multipole
  | error in Hartree potential    :           0.00000000 Ha           0.00000000 eV
  | Sum of eigenvalues per atom                           :        -393.26391603 eV
  | Total energy (T->0) per atom                          :        -694.94766870 eV  <-- do not rely on this value for anything but (periodic) metals
  | Electronic free energy per atom                       :        -694.94766870 eV
  Initialize hartree_potential_storage
  Max. number of atoms included in rho_multipole:            9

  End scf initialization - timings             :  max(cpu_time)    wall_clock(cpu1)
  | Time for scf. initialization               :        0.686 s           0.686 s
  | Boundary condition initialization          :        0.000 s           0.000 s
  | Integration                                :        0.437 s           0.437 s
  | Solution of K.-S. eqns.                    :        0.065 s           0.065 s
  | Grid partitioning                          :        0.091 s           0.091 s
  | Preloading free-atom quantities on grid    :        0.014 s           0.014 s
  | Free-atom superposition energy             :        0.029 s           0.029 s
  | Total energy evaluation                    :        0.000 s           0.000 s
------------------------------------------------------------

------------------------------------------------------------
          Begin self-consistency iteration #    1

  Date     :  20150727, Time     :  123058.136
------------------------------------------------------------
  Evaluating new KS density.
  Integration grid: deviation in total charge (<rho> - N_e) =  -1.421085E-14
  Pulay mixing of updated and previous charge densities.

  Evaluating partitioned Hartree potential by multipole expansion.
  | Analytical far-field extrapolation by fixed multipoles:
  | Hartree multipole sum: apparent total charge =  -0.109073E-05
  Summing up the Hartree potential.
  Time summed over all CPUs for potential: real work        0.942 s, elapsed        0.950 s
  | RMS charge density error from multipole expansion :   0.125317E-02

  Integrating Hamiltonian matrix: batch-based integration.
  Time summed over all CPUs for integration: real work        2.223 s, elapsed        2.291 s

  Updating Kohn-Sham eigenvalues, eigenvectors, occupation numbers, and Fermi level.
  Solving generalized eigenproblem
  Updating Kohn-Sham eigenvalues and eigenfunctions.
  Solving real generalised eigenvalue problem by standard LAPACK (fast)
  Determining occupation numbers for Kohn-Sham eigenstates.
  | Chemical potential (Fermi level) in eV                 : -.54155792E+01
  | Error in electron count due to remaining E_F inaccuracy: 0.00000000E+00
  | Maximum occupation number of highest empty state:  0.00E+00

  Writing Kohn-Sham eigenvalues.

  State    Occupation    Eigenvalue [Ha]    Eigenvalue [eV]
      1       2.00000         -18.999383         -516.99952
      2       2.00000         -18.967547         -516.13321
      3       2.00000         -18.933932         -515.21849
      4       2.00000          -1.091547          -29.70252
      5       2.00000          -1.051579          -28.61492
      6       2.00000          -0.997453          -27.14209
      7       2.00000          -0.625142          -17.01097
      8       2.00000          -0.586570          -15.96139
      9       2.00000          -0.562456          -15.30521
     10       2.00000          -0.487569          -13.26741
     11       2.00000          -0.463485          -12.61206
     12       2.00000          -0.444955          -12.10785
     13       2.00000          -0.401651          -10.92948
     14       2.00000          -0.390490          -10.62577
     15       2.00000          -0.362295           -9.85855
     16       0.00000          -0.085830           -2.33554
     17       0.00000          -0.052657           -1.43287
     18       0.00000          -0.031438           -0.85546
     19       0.00000          -0.009180           -0.24979
     20       0.00000           0.032559            0.88598
     21       0.00000           0.046774            1.27277
     22       0.00000           0.086506            2.35395
     23       0.00000           0.095163            2.58951
     24       0.00000           0.105512            2.87113
     25       0.00000           0.110191            2.99845
     26       0.00000           0.114087            3.10447
     27       0.00000           0.121001            3.29260
     28       0.00000           0.127002            3.45590
     29       0.00000           0.149944            4.08018
     30       0.00000           0.155996            4.24486
     31       0.00000           0.185496            5.04761
     32       0.00000           0.197559            5.37584
     33       0.00000           0.210878            5.73828
     34       0.00000           0.271401            7.38520
     35       0.00000           0.277479            7.55059
     36       0.00000           0.285675            7.77362
     37       0.00000           0.341731            9.29896
     38       0.00000           0.356682            9.70582
     39       0.00000           0.378458           10.29838
     40       0.00000           0.382547           10.40963
     41       0.00000           0.400232           10.89087
     42       0.00000           0.417762           11.36789
     43       0.00000           0.438807           11.94054
     44       0.00000           0.445798           12.13079
     45       0.00000           0.472048           12.84507
     46       0.00000           0.488035           13.28009
     47       0.00000           0.512720           13.95182
     48       0.00000           0.524439           14.27071
     49       0.00000           0.551527           15.00782
     50       0.00000           0.589299           16.03564
     51       0.00000           0.673987           18.34012

  Highest occupied state (VBM) at     -9.85854704 eV
  | Occupation number:      2.00000000

  Lowest unoccupied state (CBM) at    -2.33554176 eV
  | Occupation number:      0.00000000

  Overall HOMO-LUMO gap:      7.52300528 eV.

  Total energy components:
  | Sum of eigenvalues            :        -128.73210551 Ha       -3502.97882066 eV
  | XC energy correction          :         -27.46827925 Ha        -747.44990830 eV
  | XC potential correction       :          35.09942925 Ha         955.10406498 eV
  | Free-atom electrostatic energy:        -107.36553013 Ha       -2921.56472241 eV
  | Hartree energy correction     :          -1.29174388 Ha         -35.15013937 eV
  | van der Waals energy corr.    :           0.00000000 Ha           0.00000000 eV
  | Entropy correction            :           0.00000000 Ha           0.00000000 eV
  | ---------------------------
  | Total energy                  :        -229.75822953 Ha       -6252.03952575 eV
  | Total energy, T -> 0          :        -229.75822953 Ha       -6252.03952575 eV  <-- do not rely on this value for anything but (periodic) metals
  | Electronic free energy        :        -229.75822953 Ha       -6252.03952575 eV

  Derived energy quantities:
  | Kinetic energy                :         228.32414697 Ha        6213.01615373 eV
  | Electrostatic energy          :        -430.61409724 Ha      -11717.60577118 eV
  | Energy correction for multipole
  | error in Hartree potential    :          -0.00014214 Ha          -0.00386781 eV
  | Sum of eigenvalues per atom                           :        -389.21986896 eV
  | Total energy (T->0) per atom                          :        -694.67105842 eV  <-- do not rely on this value for anything but (periodic) metals
  | Electronic free energy per atom                       :        -694.67105842 eV

  Self-consistency convergence accuracy:
  | Change of charge density      : 0.5174E+00
  | Change of sum of eigenvalues  : 0.3640E+02 eV
  | Change of total energy        : 0.2489E+01 eV

  End self-consistency iteration #     1       :  max(cpu_time)    wall_clock(cpu1)
  | Time for this iteration                    :        0.642 s           0.641 s
  | Charge density update                      :        0.213 s           0.212 s
  | Density mixing                             :        0.001 s           0.001 s
  | Hartree multipole update                   :        0.004 s           0.004 s
  | Hartree multipole summation                :        0.120 s           0.120 s
  | Integration                                :        0.287 s           0.287 s
  | Solution of K.-S. eqns.                    :        0.016 s           0.016 s
  | Total energy evaluation                    :        0.000 s           0.000 s
------------------------------------------------------------

------------------------------------------------------------
          Begin self-consistency iteration #    2

  Date     :  20150727, Time     :  123058.777
------------------------------------------------------------
  Evaluating new KS density.
  Integration grid: deviation in total charge (<rho> - N_e) =   1.776357E-14
  Pulay mixing of updated and previous charge densities.

  Evaluating partitioned Hartree potential by multipole expansion.
  | Analytical far-field extrapolation by fixed multipoles:
  | Hartree multipole sum: apparent total charge =  -0.300587E-05
  Summing up the Hartree potential.
  Time summed over all CPUs for potential: real work        0.942 s, elapsed        0.950 s
  | RMS charge density error from multipole expansion :   0.496764E-02

  Integrating Hamiltonian matrix: batch-based integration.
  Time summed over all CPUs for integration: real work        2.222 s, elapsed        2.297 s

  Updating Kohn-Sham eigenvalues, eigenvectors, occupation numbers, and Fermi level.
  Solving generalized eigenproblem
  Updating Kohn-Sham eigenvalues and eigenfunctions.
  Solving real generalised eigenvalue problem by standard LAPACK (fast)
  Determining occupation numbers for Kohn-Sham eigenstates.
  | Chemical potential (Fermi level) in eV                 : -.44422513E+01
  | Error in electron count due to remaining E_F inaccuracy: 0.00000000E+00
  | Maximum occupation number of highest empty state:  0.00E+00

  Highest occupied state (VBM) at     -6.86084328 eV
  | Occupation number:      2.00000000

  Lowest unoccupied state (CBM) at    -2.03405557 eV
  | Occupation number:      0.00000000

  Overall HOMO-LUMO gap:      4.82678772 eV.

  Total energy components:
  | Sum of eigenvalues            :        -125.63982505 Ha       -3418.83358802 eV
  | XC energy correction          :         -27.82418037 Ha        -757.13447046 eV
  | XC potential correction       :          35.56558079 Ha         967.78869374 eV
  | Free-atom electrostatic energy:        -107.36553013 Ha       -2921.56472241 eV
  | Hartree energy correction     :          -4.38881773 Ha        -119.42580683 eV
  | van der Waals energy corr.    :           0.00000000 Ha           0.00000000 eV
  | Entropy correction            :           0.00000000 Ha           0.00000000 eV
  | ---------------------------
  | Total energy                  :        -229.65277250 Ha       -6249.16989398 eV
  | Total energy, T -> 0          :        -229.65277250 Ha       -6249.16989398 eV  <-- do not rely on this value for anything but (periodic) metals
  | Electronic free energy        :        -229.65277250 Ha       -6249.16989398 eV

  Derived energy quantities:
  | Kinetic energy                :         230.04216623 Ha        6259.76583655 eV
  | Electrostatic energy          :        -431.87075836 Ha      -11751.80126007 eV
  | Energy correction for multipole
  | error in Hartree potential    :          -0.00095838 Ha          -0.02607884 eV
  | Sum of eigenvalues per atom                           :        -379.87039867 eV
  | Total energy (T->0) per atom                          :        -694.35221044 eV  <-- do not rely on this value for anything but (periodic) metals
  | Electronic free energy per atom                       :        -694.35221044 eV

  Self-consistency convergence accuracy:
  | Change of charge density      : 0.3902E+00
  | Change of sum of eigenvalues  : 0.8415E+02 eV
  | Change of total energy        : 0.2870E+01 eV

  End self-consistency iteration #     2       :  max(cpu_time)    wall_clock(cpu1)
  | Time for this iteration                    :        0.640 s           0.640 s
  | Charge density update                      :        0.209 s           0.209 s
  | Density mixing                             :        0.003 s           0.003 s
  | Hartree multipole update                   :        0.004 s           0.004 s
  | Hartree multipole summation                :        0.119 s           0.119 s
  | Integration                                :        0.288 s           0.288 s
  | Solution of K.-S. eqns.                    :        0.016 s           0.016 s
  | Total energy evaluation                    :        0.001 s           0.000 s
------------------------------------------------------------

------------------------------------------------------------
          Begin self-consistency iteration #    3

  Date     :  20150727, Time     :  123059.417
------------------------------------------------------------
  Evaluating new KS density.
  Integration grid: deviation in total charge (<rho> - N_e) =   0.000000E+00
  Pulay mixing of updated and previous charge densities.

  Evaluating partitioned Hartree potential by multipole expansion.
  | Analytical far-field extrapolation by fixed multipoles:
  | Hartree multipole sum: apparent total charge =  -0.251165E-05
  Summing up the Hartree potential.
  Time summed over all CPUs for potential: real work        0.942 s, elapsed        0.948 s
  | RMS charge density error from multipole expansion :   0.102622E-01

  Integrating Hamiltonian matrix: batch-based integration.
  Time summed over all CPUs for integration: real work        2.223 s, elapsed        2.302 s

  Updating Kohn-Sham eigenvalues, eigenvectors, occupation numbers, and Fermi level.
  Solving generalized eigenproblem
  Updating Kohn-Sham eigenvalues and eigenfunctions.
  Solving real generalised eigenvalue problem by standard LAPACK (fast)
  Determining occupation numbers for Kohn-Sham eigenstates.
  | Chemical potential (Fermi level) in eV                 : -.42109062E+01
  | Error in electron count due to remaining E_F inaccuracy: 0.00000000E+00
  | Maximum occupation number of highest empty state:  0.00E+00

  Highest occupied state (VBM) at     -6.67387252 eV
  | Occupation number:      2.00000000

  Lowest unoccupied state (CBM) at    -2.01798095 eV
  | Occupation number:      0.00000000

  Overall HOMO-LUMO gap:      4.65589158 eV.

  Total energy components:
  | Sum of eigenvalues            :        -125.82316354 Ha       -3423.82248221 eV
  | XC energy correction          :         -27.80551198 Ha        -756.62647764 eV
  | XC potential correction       :          35.53846765 Ha         967.05090769 eV
  | Free-atom electrostatic energy:        -107.36553013 Ha       -2921.56472241 eV
  | Hartree energy correction     :          -4.19278848 Ha        -114.09157946 eV
  | van der Waals energy corr.    :           0.00000000 Ha           0.00000000 eV
  | Entropy correction            :           0.00000000 Ha           0.00000000 eV
  | ---------------------------
  | Total energy                  :        -229.64852648 Ha       -6249.05435402 eV
  | Total energy, T -> 0          :        -229.64852648 Ha       -6249.05435402 eV  <-- do not rely on this value for anything but (periodic) metals
  | Electronic free energy        :        -229.64852648 Ha       -6249.05435402 eV

  Derived energy quantities:
  | Kinetic energy                :         228.76207177 Ha        6224.93269386 eV
  | Electrostatic energy          :        -430.60508627 Ha      -11717.36057024 eV
  | Energy correction for multipole
  | error in Hartree potential    :          -0.00374668 Ha          -0.10195230 eV
  | Sum of eigenvalues per atom                           :        -380.42472025 eV
  | Total energy (T->0) per atom                          :        -694.33937267 eV  <-- do not rely on this value for anything but (periodic) metals
  | Electronic free energy per atom                       :        -694.33937267 eV

  Self-consistency convergence accuracy:
  | Change of charge density      : 0.1980E+00
  | Change of sum of eigenvalues  : -.4989E+01 eV
  | Change of total energy        : 0.1155E+00 eV

  End self-consistency iteration #     3       :  max(cpu_time)    wall_clock(cpu1)
  | Time for this iteration                    :        0.642 s           0.642 s
  | Charge density update                      :        0.210 s           0.210 s
  | Density mixing                             :        0.004 s           0.004 s
  | Hartree multipole update                   :        0.003 s           0.003 s
  | Hartree multipole summation                :        0.120 s           0.119 s
  | Integration                                :        0.288 s           0.289 s
  | Solution of K.-S. eqns.                    :        0.016 s           0.016 s
  | Total energy evaluation                    :        0.001 s           0.000 s
------------------------------------------------------------

------------------------------------------------------------
          Begin self-consistency iteration #    4

  Date     :  20150727, Time     :  123100.059
------------------------------------------------------------
  Evaluating new KS density.
  Integration grid: deviation in total charge (<rho> - N_e) =  -3.552714E-15
  Pulay mixing of updated and previous charge densities.

  Evaluating partitioned Hartree potential by multipole expansion.
  | Analytical far-field extrapolation by fixed multipoles:
  | Hartree multipole sum: apparent total charge =  -0.291953E-05
  Summing up the Hartree potential.
  Time summed over all CPUs for potential: real work        0.941 s, elapsed        0.948 s
  | RMS charge density error from multipole expansion :   0.129603E-01

  Integrating Hamiltonian matrix: batch-based integration.
  Time summed over all CPUs for integration: real work        2.217 s, elapsed        2.291 s

  Updating Kohn-Sham eigenvalues, eigenvectors, occupation numbers, and Fermi level.
  Solving generalized eigenproblem
  Updating Kohn-Sham eigenvalues and eigenfunctions.
  Solving real generalised eigenvalue problem by standard LAPACK (fast)
  Determining occupation numbers for Kohn-Sham eigenstates.
  | Chemical potential (Fermi level) in eV                 : -.38564863E+01
  | Error in electron count due to remaining E_F inaccuracy: 0.00000000E+00
  | Maximum occupation number of highest empty state:  0.00E+00

  Highest occupied state (VBM) at     -5.67204944 eV
  | Occupation number:      2.00000000

  Lowest unoccupied state (CBM) at    -1.93600185 eV
  | Occupation number:      0.00000000

  Overall HOMO-LUMO gap:      3.73604759 eV.

  Total energy components:
  | Sum of eigenvalues            :        -124.92161518 Ha       -3399.29010294 eV
  | XC energy correction          :         -27.92117252 Ha        -759.77376109 eV
  | XC potential correction       :          35.68971702 Ha         971.16661259 eV
  | Free-atom electrostatic energy:        -107.36553013 Ha       -2921.56472241 eV
  | Hartree energy correction     :          -5.12182945 Ha        -139.37207057 eV
  | van der Waals energy corr.    :           0.00000000 Ha           0.00000000 eV
  | Entropy correction            :           0.00000000 Ha           0.00000000 eV
  | ---------------------------
  | Total energy                  :        -229.64043026 Ha       -6248.83404442 eV
  | Total energy, T -> 0          :        -229.64043026 Ha       -6248.83404442 eV  <-- do not rely on this value for anything but (periodic) metals
  | Electronic free energy        :        -229.64043026 Ha       -6248.83404442 eV

  Derived energy quantities:
  | Kinetic energy                :         228.90410033 Ha        6228.79748777 eV
  | Electrostatic energy          :        -430.62335807 Ha      -11717.85777110 eV
  | Energy correction for multipole
  | error in Hartree potential    :          -0.00484147 Ha          -0.13174312 eV
  | Sum of eigenvalues per atom                           :        -377.69890033 eV
  | Total energy (T->0) per atom                          :        -694.31489382 eV  <-- do not rely on this value for anything but (periodic) metals
  | Electronic free energy per atom                       :        -694.31489382 eV

  Self-consistency convergence accuracy:
  | Change of charge density      : 0.1111E+00
  | Change of sum of eigenvalues  : 0.2453E+02 eV
  | Change of total energy        : 0.2203E+00 eV

  End self-consistency iteration #     4       :  max(cpu_time)    wall_clock(cpu1)
  | Time for this iteration                    :        0.640 s           0.639 s
  | Charge density update                      :        0.208 s           0.208 s
  | Density mixing                             :        0.004 s           0.005 s
  | Hartree multipole update                   :        0.004 s           0.004 s
  | Hartree multipole summation                :        0.119 s           0.119 s
  | Integration                                :        0.287 s           0.287 s
  | Solution of K.-S. eqns.                    :        0.016 s           0.016 s
  | Total energy evaluation                    :        0.001 s           0.000 s
------------------------------------------------------------

------------------------------------------------------------
          Begin self-consistency iteration #    5

  Date     :  20150727, Time     :  123100.699
------------------------------------------------------------
  Evaluating new KS density.
  Integration grid: deviation in total charge (<rho> - N_e) =   1.065814E-14
  Pulay mixing of updated and previous charge densities.

  Evaluating partitioned Hartree potential by multipole expansion.
  | Analytical far-field extrapolation by fixed multipoles:
  | Hartree multipole sum: apparent total charge =  -0.288895E-05
  Summing up the Hartree potential.
  Time summed over all CPUs for potential: real work        0.942 s, elapsed        0.949 s
  | RMS charge density error from multipole expansion :   0.136118E-01

  Integrating Hamiltonian matrix: batch-based integration.
  Time summed over all CPUs for integration: real work        2.213 s, elapsed        2.290 s

  Updating Kohn-Sham eigenvalues, eigenvectors, occupation numbers, and Fermi level.
  Solving generalized eigenproblem
  Updating Kohn-Sham eigenvalues and eigenfunctions.
  Solving real generalised eigenvalue problem by standard LAPACK (fast)
  Determining occupation numbers for Kohn-Sham eigenstates.
  | Chemical potential (Fermi level) in eV                 : -.38300723E+01
  | Error in electron count due to remaining E_F inaccuracy: 0.00000000E+00
  | Maximum occupation number of highest empty state:  0.00E+00

  Highest occupied state (VBM) at     -5.44197227 eV
  | Occupation number:      2.00000000

  Lowest unoccupied state (CBM) at    -1.92969193 eV
  | Occupation number:      0.00000000

  Overall HOMO-LUMO gap:      3.51228034 eV.

  Total energy components:
  | Sum of eigenvalues            :        -124.79886029 Ha       -3395.94977240 eV
  | XC energy correction          :         -27.93913234 Ha        -760.26247275 eV
  | XC potential correction       :          35.71297059 Ha         971.79937427 eV
  | Free-atom electrostatic energy:        -107.36553013 Ha       -2921.56472241 eV
  | Hartree energy correction     :          -5.24967216 Ha        -142.85084771 eV
  | van der Waals energy corr.    :           0.00000000 Ha           0.00000000 eV
  | Entropy correction            :           0.00000000 Ha           0.00000000 eV
  | ---------------------------
  | Total energy                  :        -229.64022433 Ha       -6248.82844101 eV
  | Total energy, T -> 0          :        -229.64022433 Ha       -6248.82844101 eV  <-- do not rely on this value for anything but (periodic) metals
  | Electronic free energy        :        -229.64022433 Ha       -6248.82844101 eV

  Derived energy quantities:
  | Kinetic energy                :         228.93555801 Ha        6229.65349484 eV
  | Electrostatic energy          :        -430.63665001 Ha      -11718.21946310 eV
  | Energy correction for multipole
  | error in Hartree potential    :          -0.00501225 Ha          -0.13639015 eV
  | Sum of eigenvalues per atom                           :        -377.32775249 eV
  | Total energy (T->0) per atom                          :        -694.31427122 eV  <-- do not rely on this value for anything but (periodic) metals
  | Electronic free energy per atom                       :        -694.31427122 eV

  Self-consistency convergence accuracy:
  | Change of charge density      : 0.2794E-01
  | Change of sum of eigenvalues  : 0.3340E+01 eV
  | Change of total energy        : 0.5603E-02 eV

  End self-consistency iteration #     5       :  max(cpu_time)    wall_clock(cpu1)
  | Time for this iteration                    :        0.640 s           0.640 s
  | Charge density update                      :        0.208 s           0.208 s
  | Density mixing                             :        0.006 s           0.006 s
  | Hartree multipole update                   :        0.004 s           0.003 s
  | Hartree multipole summation                :        0.119 s           0.119 s
  | Integration                                :        0.287 s           0.286 s
  | Solution of K.-S. eqns.                    :        0.016 s           0.016 s
  | Total energy evaluation                    :        0.000 s           0.000 s
------------------------------------------------------------

------------------------------------------------------------
          Begin self-consistency iteration #    6

  Date     :  20150727, Time     :  123101.339
------------------------------------------------------------
  Evaluating new KS density.
  Integration grid: deviation in total charge (<rho> - N_e) =  -3.552714E-15
  Pulay mixing of updated and previous charge densities.

  Evaluating partitioned Hartree potential by multipole expansion.
  | Analytical far-field extrapolation by fixed multipoles:
  | Hartree multipole sum: apparent total charge =  -0.288215E-05
  Summing up the Hartree potential.
  Time summed over all CPUs for potential: real work        0.959 s, elapsed        1.057 s
  | RMS charge density error from multipole expansion :   0.139298E-01

  Integrating Hamiltonian matrix: batch-based integration.
  Time summed over all CPUs for integration: real work        2.230 s, elapsed        2.333 s

  Updating Kohn-Sham eigenvalues, eigenvectors, occupation numbers, and Fermi level.
  Solving generalized eigenproblem
  Updating Kohn-Sham eigenvalues and eigenfunctions.
  Solving real generalised eigenvalue problem by standard LAPACK (fast)
  Determining occupation numbers for Kohn-Sham eigenstates.
  | Chemical potential (Fermi level) in eV                 : -.38060939E+01
  | Error in electron count due to remaining E_F inaccuracy: 0.00000000E+00
  | Maximum occupation number of highest empty state:  0.00E+00

  Highest occupied state (VBM) at     -5.36953442 eV
  | Occupation number:      2.00000000

  Lowest unoccupied state (CBM) at    -1.91941385 eV
  | Occupation number:      0.00000000

  Overall HOMO-LUMO gap:      3.45012057 eV.

  Total energy components:
  | Sum of eigenvalues            :        -124.73326895 Ha       -3394.16494136 eV
  | XC energy correction          :         -27.94843836 Ha        -760.51570229 eV
  | XC potential correction       :          35.72504608 Ha         972.12796510 eV
  | Free-atom electrostatic energy:        -107.36553013 Ha       -2921.56472241 eV
  | Hartree energy correction     :          -5.31815103 Ha        -144.71425255 eV
  | van der Waals energy corr.    :           0.00000000 Ha           0.00000000 eV
  | Entropy correction            :           0.00000000 Ha           0.00000000 eV
  | ---------------------------
  | Total energy                  :        -229.64034239 Ha       -6248.83165350 eV
  | Total energy, T -> 0          :        -229.64034239 Ha       -6248.83165350 eV  <-- do not rely on this value for anything but (periodic) metals
  | Electronic free energy        :        -229.64034239 Ha       -6248.83165350 eV

  Derived energy quantities:
  | Kinetic energy                :         228.95024946 Ha        6230.05326936 eV
  | Electrostatic energy          :        -430.64215349 Ha      -11718.36922057 eV
  | Energy correction for multipole
  | error in Hartree potential    :          -0.00509423 Ha          -0.13862094 eV
  | Sum of eigenvalues per atom                           :        -377.12943793 eV
  | Total energy (T->0) per atom                          :        -694.31462817 eV  <-- do not rely on this value for anything but (periodic) metals
  | Electronic free energy per atom                       :        -694.31462817 eV

  Self-consistency convergence accuracy:
  | Change of charge density      : 0.8341E-02
  | Change of sum of eigenvalues  : 0.1785E+01 eV
  | Change of total energy        : -.3212E-02 eV

  End self-consistency iteration #     6       :  max(cpu_time)    wall_clock(cpu1)
  | Time for this iteration                    :        0.662 s           0.662 s
  | Charge density update                      :        0.208 s           0.209 s
  | Density mixing                             :        0.007 s           0.006 s
  | Hartree multipole update                   :        0.003 s           0.004 s
  | Hartree multipole summation                :        0.135 s           0.134 s
  | Integration                                :        0.292 s           0.293 s
  | Solution of K.-S. eqns.                    :        0.016 s           0.016 s
  | Total energy evaluation                    :        0.001 s           0.000 s
------------------------------------------------------------

------------------------------------------------------------
          Begin self-consistency iteration #    7

  Date     :  20150727, Time     :  123102.001
------------------------------------------------------------
  Evaluating new KS density.
  Integration grid: deviation in total charge (<rho> - N_e) =   7.105427E-15
  Pulay mixing of updated and previous charge densities.

  Evaluating partitioned Hartree potential by multipole expansion.
  | Analytical far-field extrapolation by fixed multipoles:
  | Hartree multipole sum: apparent total charge =  -0.274381E-05
  Summing up the Hartree potential.
  Time summed over all CPUs for potential: real work        0.942 s, elapsed        0.949 s
  | RMS charge density error from multipole expansion :   0.137698E-01

  Integrating Hamiltonian matrix: batch-based integration.
  Time summed over all CPUs for integration: real work        2.214 s, elapsed        2.291 s

  Updating Kohn-Sham eigenvalues, eigenvectors, occupation numbers, and Fermi level.
  Solving generalized eigenproblem
  Updating Kohn-Sham eigenvalues and eigenfunctions.
  Solving real generalised eigenvalue problem by standard LAPACK (fast)
  Determining occupation numbers for Kohn-Sham eigenstates.
  | Chemical potential (Fermi level) in eV                 : -.38539118E+01
  | Error in electron count due to remaining E_F inaccuracy: 0.00000000E+00
  | Maximum occupation number of highest empty state:  0.00E+00

  Highest occupied state (VBM) at     -5.53852852 eV
  | Occupation number:      2.00000000

  Lowest unoccupied state (CBM) at    -1.93133659 eV
  | Occupation number:      0.00000000

  Overall HOMO-LUMO gap:      3.60719193 eV.

  Total energy components:
  | Sum of eigenvalues            :        -124.84682687 Ha       -3397.25500963 eV
  | XC energy correction          :         -27.93431813 Ha        -760.13147129 eV
  | XC potential correction       :          35.70628708 Ha         971.61750687 eV
  | Free-atom electrostatic energy:        -107.36553013 Ha       -2921.56472241 eV
  | Hartree energy correction     :          -5.19979673 Ha        -141.49366813 eV
  | van der Waals energy corr.    :           0.00000000 Ha           0.00000000 eV
  | Entropy correction            :           0.00000000 Ha           0.00000000 eV
  | ---------------------------
  | Total energy                  :        -229.64018478 Ha       -6248.82736459 eV
  | Total energy, T -> 0          :        -229.64018478 Ha       -6248.82736459 eV  <-- do not rely on this value for anything but (periodic) metals
  | Electronic free energy        :        -229.64018478 Ha       -6248.82736459 eV

  Derived energy quantities:
  | Kinetic energy                :         228.97404268 Ha        6230.70071586 eV
  | Electrostatic energy          :        -430.67990933 Ha      -11719.39660916 eV
  | Energy correction for multipole
  | error in Hartree potential    :          -0.00488131 Ha          -0.13282720 eV
  | Sum of eigenvalues per atom                           :        -377.47277885 eV
  | Total energy (T->0) per atom                          :        -694.31415162 eV  <-- do not rely on this value for anything but (periodic) metals
  | Electronic free energy per atom                       :        -694.31415162 eV

  Self-consistency convergence accuracy:
  | Change of charge density      : 0.1211E-01
  | Change of sum of eigenvalues  : -.3090E+01 eV
  | Change of total energy        : 0.4289E-02 eV

  End self-consistency iteration #     7       :  max(cpu_time)    wall_clock(cpu1)
  | Time for this iteration                    :        0.642 s           0.642 s
  | Charge density update                      :        0.208 s           0.209 s
  | Density mixing                             :        0.008 s           0.007 s
  | Hartree multipole update                   :        0.003 s           0.004 s
  | Hartree multipole summation                :        0.119 s           0.119 s
  | Integration                                :        0.288 s           0.287 s
  | Solution of K.-S. eqns.                    :        0.016 s           0.016 s
  | Total energy evaluation                    :        0.000 s           0.000 s
------------------------------------------------------------

------------------------------------------------------------
          Begin self-consistency iteration #    8

  Date     :  20150727, Time     :  123102.644
------------------------------------------------------------
  Evaluating new KS density.
  Integration grid: deviation in total charge (<rho> - N_e) =  -7.105427E-15
  Pulay mixing of updated and previous charge densities.

  Evaluating partitioned Hartree potential by multipole expansion.
  | Analytical far-field extrapolation by fixed multipoles:
  | Hartree multipole sum: apparent total charge =  -0.273346E-05
  Summing up the Hartree potential.
  Time summed over all CPUs for potential: real work        0.942 s, elapsed        0.949 s
  | RMS charge density error from multipole expansion :   0.137835E-01

  Integrating Hamiltonian matrix: batch-based integration.
  Time summed over all CPUs for integration: real work        2.211 s, elapsed        2.283 s

  Updating Kohn-Sham eigenvalues, eigenvectors, occupation numbers, and Fermi level.
  Solving generalized eigenproblem
  Updating Kohn-Sham eigenvalues and eigenfunctions.
  Solving real generalised eigenvalue problem by standard LAPACK (fast)
  Determining occupation numbers for Kohn-Sham eigenstates.
  | Chemical potential (Fermi level) in eV                 : -.38548070E+01
  | Error in electron count due to remaining E_F inaccuracy: 0.00000000E+00
  | Maximum occupation number of highest empty state:  0.00E+00

  Highest occupied state (VBM) at     -5.53369779 eV
  | Occupation number:      2.00000000

  Lowest unoccupied state (CBM) at    -1.93279832 eV
  | Occupation number:      0.00000000

  Overall HOMO-LUMO gap:      3.60089947 eV.

  Total energy components:
  | Sum of eigenvalues            :        -124.84921407 Ha       -3397.31996861 eV
  | XC energy correction          :         -27.93408824 Ha        -760.12521564 eV
  | XC potential correction       :          35.70595950 Ha         971.60859279 eV
  | Free-atom electrostatic energy:        -107.36553013 Ha       -2921.56472241 eV
  | Hartree energy correction     :          -5.19731069 Ha        -141.42601942 eV
  | van der Waals energy corr.    :           0.00000000 Ha           0.00000000 eV
  | Entropy correction            :           0.00000000 Ha           0.00000000 eV
  | ---------------------------
  | Total energy                  :        -229.64018363 Ha       -6248.82733329 eV
  | Total energy, T -> 0          :        -229.64018363 Ha       -6248.82733329 eV  <-- do not rely on this value for anything but (periodic) metals
  | Electronic free energy        :        -229.64018363 Ha       -6248.82733329 eV

  Derived energy quantities:
  | Kinetic energy                :         228.97690726 Ha        6230.77866508 eV
  | Electrostatic energy          :        -430.68300265 Ha      -11719.48078273 eV
  | Energy correction for multipole
  | error in Hartree potential    :          -0.00487741 Ha          -0.13272101 eV
  | Sum of eigenvalues per atom                           :        -377.47999651 eV
  | Total energy (T->0) per atom                          :        -694.31414814 eV  <-- do not rely on this value for anything but (periodic) metals
  | Electronic free energy per atom                       :        -694.31414814 eV

  Self-consistency convergence accuracy:
  | Change of charge density      : 0.1465E-02
  | Change of sum of eigenvalues  : -.6496E-01 eV
  | Change of total energy        : 0.3130E-04 eV

  End self-consistency iteration #     8       :  max(cpu_time)    wall_clock(cpu1)
  | Time for this iteration                    :        0.642 s           0.642 s
  | Charge density update                      :        0.209 s           0.208 s
  | Density mixing                             :        0.008 s           0.008 s
  | Hartree multipole update                   :        0.003 s           0.004 s
  | Hartree multipole summation                :        0.120 s           0.119 s
  | Integration                                :        0.286 s           0.286 s
  | Solution of K.-S. eqns.                    :        0.016 s           0.016 s
  | Total energy evaluation                    :        0.000 s           0.001 s
------------------------------------------------------------

------------------------------------------------------------
          Begin self-consistency iteration #    9

  Date     :  20150727, Time     :  123103.286
------------------------------------------------------------
  Evaluating new KS density.
  Integration grid: deviation in total charge (<rho> - N_e) =  -1.421085E-14
  Pulay mixing of updated and previous charge densities.

  Evaluating partitioned Hartree potential by multipole expansion.
  | Analytical far-field extrapolation by fixed multipoles:
  | Hartree multipole sum: apparent total charge =  -0.272803E-05
  Summing up the Hartree potential.
  Time summed over all CPUs for potential: real work        0.942 s, elapsed        0.949 s
  | RMS charge density error from multipole expansion :   0.137864E-01

  Integrating Hamiltonian matrix: batch-based integration.
  Time summed over all CPUs for integration: real work        2.211 s, elapsed        2.290 s

  Updating Kohn-Sham eigenvalues, eigenvectors, occupation numbers, and Fermi level.
  Solving generalized eigenproblem
  Updating Kohn-Sham eigenvalues and eigenfunctions.
  Solving real generalised eigenvalue problem by standard LAPACK (fast)
  Determining occupation numbers for Kohn-Sham eigenstates.
  | Chemical potential (Fermi level) in eV                 : -.38552074E+01
  | Error in electron count due to remaining E_F inaccuracy: 0.00000000E+00
  | Maximum occupation number of highest empty state:  0.00E+00

  Highest occupied state (VBM) at     -5.53846909 eV
  | Occupation number:      2.00000000

  Lowest unoccupied state (CBM) at    -1.93293488 eV
  | Occupation number:      0.00000000

  Overall HOMO-LUMO gap:      3.60553421 eV.

  Total energy components:
  | Sum of eigenvalues            :        -124.85067890 Ha       -3397.35982867 eV
  | XC energy correction          :         -27.93391569 Ha        -760.12052045 eV
  | XC potential correction       :          35.70572045 Ha         971.60208796 eV
  | Free-atom electrostatic energy:        -107.36553013 Ha       -2921.56472241 eV
  | Hartree energy correction     :          -5.19577905 Ha        -141.38434145 eV
  | van der Waals energy corr.    :           0.00000000 Ha           0.00000000 eV
  | Entropy correction            :           0.00000000 Ha           0.00000000 eV
  | ---------------------------
  | Total energy                  :        -229.64018332 Ha       -6248.82732502 eV
  | Total energy, T -> 0          :        -229.64018332 Ha       -6248.82732502 eV  <-- do not rely on this value for anything but (periodic) metals
  | Electronic free energy        :        -229.64018332 Ha       -6248.82732502 eV

  Derived energy quantities:
  | Kinetic energy                :         228.97925931 Ha        6230.84266766 eV
  | Electrostatic energy          :        -430.68552694 Ha      -11719.54947222 eV
  | Energy correction for multipole
  | error in Hartree potential    :          -0.00487147 Ha          -0.13255941 eV
  | Sum of eigenvalues per atom                           :        -377.48442541 eV
  | Total energy (T->0) per atom                          :        -694.31414722 eV  <-- do not rely on this value for anything but (periodic) metals
  | Electronic free energy per atom                       :        -694.31414722 eV

  Self-consistency convergence accuracy:
  | Change of charge density      : 0.7755E-03
  | Change of sum of eigenvalues  : -.3986E-01 eV
  | Change of total energy        : 0.8276E-05 eV

  End self-consistency iteration #     9       :  max(cpu_time)    wall_clock(cpu1)
  | Time for this iteration                    :        0.643 s           0.643 s
  | Charge density update                      :        0.208 s           0.208 s
  | Density mixing                             :        0.009 s           0.009 s
  | Hartree multipole update                   :        0.003 s           0.003 s
  | Hartree multipole summation                :        0.120 s           0.120 s
  | Integration                                :        0.287 s           0.287 s
  | Solution of K.-S. eqns.                    :        0.016 s           0.016 s
  | Total energy evaluation                    :        0.000 s           0.000 s
------------------------------------------------------------

------------------------------------------------------------
          Begin self-consistency iteration #   10

  Date     :  20150727, Time     :  123103.929
------------------------------------------------------------
  Evaluating new KS density.
  Integration grid: deviation in total charge (<rho> - N_e) =   1.421085E-14
  Pulay mixing of updated and previous charge densities.

  Evaluating partitioned Hartree potential by multipole expansion.
  | Analytical far-field extrapolation by fixed multipoles:
  | Hartree multipole sum: apparent total charge =  -0.272258E-05
  Summing up the Hartree potential.
  Time summed over all CPUs for potential: real work        0.942 s, elapsed        0.949 s
  | RMS charge density error from multipole expansion :   0.137917E-01

  Integrating Hamiltonian matrix: batch-based integration.
  Time summed over all CPUs for integration: real work        2.218 s, elapsed        2.293 s

  Updating Kohn-Sham eigenvalues, eigenvectors, occupation numbers, and Fermi level.
  Solving generalized eigenproblem
  Updating Kohn-Sham eigenvalues and eigenfunctions.
  Solving real generalised eigenvalue problem by standard LAPACK (fast)
  Determining occupation numbers for Kohn-Sham eigenstates.
  | Chemical potential (Fermi level) in eV                 : -.38557873E+01
  | Error in electron count due to remaining E_F inaccuracy: 0.00000000E+00
  | Maximum occupation number of highest empty state:  0.00E+00

  Highest occupied state (VBM) at     -5.53812608 eV
  | Occupation number:      2.00000000

  Lowest unoccupied state (CBM) at    -1.93387319 eV
  | Occupation number:      0.00000000

  Overall HOMO-LUMO gap:      3.60425289 eV.

  Total energy components:
  | Sum of eigenvalues            :        -124.85143052 Ha       -3397.38028121 eV
  | XC energy correction          :         -27.93382307 Ha        -760.11800013 eV
  | XC potential correction       :          35.70558803 Ha         971.59848468 eV
  | Free-atom electrostatic energy:        -107.36553013 Ha       -2921.56472241 eV
  | Hartree energy correction     :          -5.19498718 Ha        -141.36279354 eV
  | van der Waals energy corr.    :           0.00000000 Ha           0.00000000 eV
  | Entropy correction            :           0.00000000 Ha           0.00000000 eV
  | ---------------------------
  | Total energy                  :        -229.64018287 Ha       -6248.82731260 eV
  | Total energy, T -> 0          :        -229.64018287 Ha       -6248.82731260 eV  <-- do not rely on this value for anything but (periodic) metals
  | Electronic free energy        :        -229.64018287 Ha       -6248.82731260 eV

  Derived energy quantities:
  | Kinetic energy                :         228.98106849 Ha        6230.89189782 eV
  | Electrostatic energy          :        -430.68742828 Ha      -11719.60121030 eV
  | Energy correction for multipole
  | error in Hartree potential    :          -0.00487118 Ha          -0.13255162 eV
  | Sum of eigenvalues per atom                           :        -377.48669791 eV
  | Total energy (T->0) per atom                          :        -694.31414584 eV  <-- do not rely on this value for anything but (periodic) metals
  | Electronic free energy per atom                       :        -694.31414584 eV

  Self-consistency convergence accuracy:
  | Change of charge density      : 0.4788E-03
  | Change of sum of eigenvalues  : -.2045E-01 eV
  | Change of total energy        : 0.1242E-04 eV

[...]
  |   Hirshfeld volume        :     19.77739566
  |   Hirshfeld dipole vector :      0.02548931      -0.00924159      -0.01513743
  |   Hirshfeld dipole moment :      0.03105244
  |   Hirshfeld second moments:      0.05554422       0.02003294       0.02869200
  |                                  0.02003294       0.09910489       0.01222720
  |                                  0.02869200       0.01222720       0.11355122
  ----------------------------------------------------------------------
  | Atom     5: H
  |   Hirshfeld charge        :      0.18225214
  |   Free atom volume        :     10.44207651
  |   Hirshfeld volume        :      5.81718568
  |   Hirshfeld dipole vector :      0.06002544       0.09165761       0.04239601
  |   Hirshfeld dipole moment :      0.11748018
  |   Hirshfeld second moments:      0.12304707      -0.00058595       0.00651691
  |                                 -0.00058595       0.12737025      -0.00439378
  |                                  0.00651691      -0.00439378       0.14044874
  ----------------------------------------------------------------------
  | Atom     6: H
  |   Hirshfeld charge        :      0.17878519
  |   Free atom volume        :     10.44207651
  |   Hirshfeld volume        :      5.49690636
  |   Hirshfeld dipole vector :     -0.01953780       0.00896619      -0.12078469
  |   Hirshfeld dipole moment :      0.12268276
  |   Hirshfeld second moments:      0.13173705       0.01055571       0.00768158
  |                                  0.01055571       0.14572946       0.00480037
  |                                  0.00768158       0.00480037       0.13239055
  ----------------------------------------------------------------------
  | Atom     7: O
  |   Hirshfeld charge        :     -0.28500819
  |   Free atom volume        :     23.95238533
  |   Hirshfeld volume        :     21.92191204
  |   Hirshfeld dipole vector :     -0.00623747       0.05148908      -0.00500932
  |   Hirshfeld dipole moment :      0.05210686
  |   Hirshfeld second moments:      0.00039532      -0.01251014      -0.06427776
  |                                 -0.01251014       0.00744051       0.00563697
  |                                 -0.06427776       0.00563697       0.04010996
  ----------------------------------------------------------------------
  | Atom     8: H
  |   Hirshfeld charge        :      0.14408734
  |   Free atom volume        :     10.44207651
  |   Hirshfeld volume        :      6.20712190
  |   Hirshfeld dipole vector :     -0.06409256       0.08609724       0.06822841
  |   Hirshfeld dipole moment :      0.12718376
  |   Hirshfeld second moments:      0.10966883       0.00370535      -0.01726123
  |                                  0.00370535       0.11260447      -0.00835059
  |                                 -0.01726123      -0.00835059       0.12408426
  ----------------------------------------------------------------------
  | Atom     9: H
  |   Hirshfeld charge        :      0.14297126
  |   Free atom volume        :     10.44207651
  |   Hirshfeld volume        :      6.42040248
  |   Hirshfeld dipole vector :      0.05819629       0.05314202      -0.09150752
  |   Hirshfeld dipole moment :      0.12076634
  |   Hirshfeld second moments:      0.10867656      -0.01061755      -0.01377526
  |                                 -0.01061755       0.11596986       0.00868099
  |                                 -0.01377526       0.00868099       0.10824563
  ----------------------------------------------------------------------


  Total energy components:
  | Sum of eigenvalues            :        -124.85164727 Ha       -3397.38617935 eV
  | XC energy correction          :         -27.93378748 Ha        -760.11703177 eV
  | XC potential correction       :          35.70553994 Ha         971.59717622 eV
  | Free-atom electrostatic energy:        -107.36553013 Ha       -2921.56472241 eV
  | Hartree energy correction     :          -5.19475782 Ha        -141.35655239 eV
  | van der Waals energy corr.    :          -0.00068083 Ha          -0.01852644 eV
  | Entropy correction            :           0.00000000 Ha           0.00000000 eV
  | ---------------------------
  | Total energy                  :        -229.64086359 Ha       -6248.84583614 eV
  | Total energy, T -> 0          :        -229.64086359 Ha       -6248.84583614 eV  <-- do not rely on this value for anything but (periodic) metals
  | Electronic free energy        :        -229.64086359 Ha       -6248.84583614 eV

  Derived energy quantities:
  | Kinetic energy                :         228.98115493 Ha        6230.89425004 eV
  | Electrostatic energy          :        -430.68755020 Ha      -11719.60452797 eV
  | Energy correction for multipole
  | error in Hartree potential    :          -0.00487189 Ha          -0.13257074 eV
  | Sum of eigenvalues per atom                           :        -377.48735326 eV
  | Total energy (T->0) per atom                          :        -694.31620402 eV  <-- do not rely on this value for anything but (periodic) metals
  | Electronic free energy per atom                       :        -694.31620402 eV

  atomic forces [eV/Ang]:
  -----------------------
  atom #    1
   Hellmann-Feynman + Multipole  : -.709956E+01 -.111686E+02 0.310626E+01
   Pulay + GGA                   : 0.784192E+01 0.137723E+02 -.396547E+01
   Van der Waals               : 0.959376E-03 -.258238E-02 0.145237E-02
   ----------------------------------------------------------------
   Total forces(   1)            : 0.743319E+00 0.260116E+01 -.857759E+00
  atom #    2
   Hellmann-Feynman + Multipole  : 0.181771E+01 -.297608E+01 0.128550E+01
   Pulay + GGA                   : -.189333E-02 0.626382E-01 -.317962E-01
   Van der Waals               : -.125279E-03 0.424093E-03 0.120450E-02
   ----------------------------------------------------------------
   Total forces(   2)            : 0.181569E+01 -.291301E+01 0.125490E+01
  atom #    3
   Hellmann-Feynman + Multipole  : -.219246E+01 -.553138E+00 -.136697E+00
   Pulay + GGA                   : 0.126087E+00 0.644810E-01 0.622675E-02
   Van der Waals               : 0.309993E-03 0.616781E-03 0.234546E-03
   ----------------------------------------------------------------
   Total forces(   3)            : -.206607E+01 -.488040E+00 -.130236E+00
  atom #    4
   Hellmann-Feynman + Multipole  : -.638041E+01 -.891240E+01 0.931908E+01
   Pulay + GGA                   : 0.663075E+01 0.987979E+01 -.673230E+01
   Van der Waals               : -.315689E-02 0.537389E-02 0.289441E-02
   ----------------------------------------------------------------
   Total forces(   4)            : 0.247181E+00 0.972762E+00 0.258968E+01
  atom #    5
   Hellmann-Feynman + Multipole  : -.497053E+00 -.780931E+00 -.471712E+00
   Pulay + GGA                   : 0.566594E-01 0.124039E+00 0.392810E-01
   Van der Waals               : -.182672E-03 0.166664E-02 0.254266E-02
   ----------------------------------------------------------------
   Total forces(   5)            : -.440577E+00 -.655225E+00 -.429889E+00
  atom #    6
   Hellmann-Feynman + Multipole  : -.262011E+00 0.406974E+00 -.233400E+01
   Pulay + GGA                   : -.335772E-01 0.375697E-01 -.124268E+00
   Van der Waals               : 0.585346E-03 -.201059E-03 0.825028E-03
   ----------------------------------------------------------------
   Total forces(   6)            : -.295003E+00 0.444342E+00 -.245745E+01
  atom #    7
   Hellmann-Feynman + Multipole  : 0.125605E+01 -.164773E+02 0.234298E+01
   Pulay + GGA                   : 0.730602E-01 0.166070E+02 -.422718E+01
   Van der Waals               : 0.125210E-02 -.262189E-02 -.571059E-02
   ----------------------------------------------------------------
   Total forces(   7)            : 0.133036E+01 0.127030E+00 -.188991E+01
  atom #    8
   Hellmann-Feynman + Multipole  : -.247215E+00 0.563123E+00 0.191290E+00
   Pulay + GGA                   : -.721963E-01 0.103690E+00 0.853984E-01
   Van der Waals               : 0.177315E-03 -.382092E-03 -.640292E-03
   ----------------------------------------------------------------
   Total forces(   8)            : -.319234E+00 0.666431E+00 0.276049E+00
  atom #    9
   Hellmann-Feynman + Multipole  : -.106680E+01 -.820625E+00 0.177346E+01
   Pulay + GGA                   : 0.590559E-01 0.743037E-01 -.128940E+00
   Van der Waals               : 0.180718E-03 -.229398E-02 -.280263E-02
   ----------------------------------------------------------------
   Total forces(   9)            : -.100756E+01 -.748615E+00 0.164172E+01
  Timings for vdw_correction_hirshfeld (Tkatchenko-Scheffler 2009):
  | CPU time:        1.708 s, Wall clock time:        1.708 s.
  Removing unitary transformations (pure translations, rotations) from forces on atoms.
  Atomic forces before filtering:
  | Net force on center of mass :  0.811233E-02 0.683028E-02 -.288968E-02 eV/A
  | Net torque on center of mass:  -.120143E-01 0.363373E-02 0.612663E-02 eV
  Atomic forces after filtering:
  | Net force on center of mass :  -.356812E-15 0.535218E-15 -.356812E-15 eV/A
  | Net torque on center of mass:  0.944085E-15 0.160494E-14 0.188817E-14 eV
 
  Energy and forces in a compact form:
  | Total energy uncorrected      :         -0.624884583613709E+04 eV
  | Total energy corrected        :         -0.624884583613709E+04 eV  <-- do not rely on this value for anything but (periodic) metals
  | Electronic free energy        :         -0.624884583613709E+04 eV
  Total atomic forces (unitary forces cleaned) [eV/Ang]:
  |   1          0.741346866726213E+00          0.260014403031021E+01         -0.857997654340261E+00
  |   2          0.181447198906340E+01         -0.291355110815215E+01          0.125479258105406E+01
  |   3         -0.206790491601365E+01         -0.489668125829416E+00         -0.129831761165442E+00
  |   4          0.246913335158089E+00          0.972844153686203E+00          0.258972110305023E+01
  |   5         -0.440556053962673E+00         -0.655577680739373E+00         -0.429250683961303E+00
  |   6         -0.294705318876377E+00          0.444906169937760E+00         -0.245741936392559E+01
  |   7          0.132903142503185E+01          0.125673576868006E+00         -0.188937223404431E+01
  |   8         -0.320402848118151E+00          0.665142164956390E+00          0.276644377441663E+00
  |   9         -0.100819447900871E+01         -0.749913181037627E+00          0.164271363589096E+01
 
  ------------------------------------ 
  Start decomposition of the XC Energy 
  ------------------------------------ 
  Hartree-Fock part   :          0.000000000 Ha              0.000000000 eV
  ------------------------------------ 
  X Energy            :        -26.956522738 Ha           -733.524304995 eV
  C Energy GGA        :         -0.977264747 Ha            -26.592726776 eV
  Total XC Energy     :        -27.933787484 Ha           -760.117031771 eV
  LDA X and C from self-consistent density 
  X Energy LDA        :        -24.280854439 Ha           -660.715666120 eV
  C Energy LDA        :         -1.977316087 Ha            -53.805508311 eV
  ------------------------------------ 
  End decomposition of the XC Energy 
  ------------------------------------ 
  Performing Hirshfeld analysis of fragment charges and moments.
  ----------------------------------------------------------------------
  | Atom     1: O
  |   Hirshfeld charge        :     -0.36797278
  |   Free atom volume        :     23.95238533
  |   Hirshfeld volume        :     24.12797005
  |   Hirshfeld dipole vector :      0.02244628       0.06225931      -0.01321180
  |   Hirshfeld dipole moment :      0.06748785
  |   Hirshfeld second moments:      0.02153146      -0.01748587       0.02595957
  |                                 -0.01748587      -0.06110569      -0.02206062
  |                                  0.02595957      -0.02206062      -0.10612268
  ----------------------------------------------------------------------
  | Atom     2: H
  |   Hirshfeld charge        :      0.07046914
  |   Free atom volume        :     10.44207651
  |   Hirshfeld volume        :      8.27426054
  |   Hirshfeld dipole vector :     -0.02348905       0.03818925      -0.01751419
  |   Hirshfeld dipole moment :      0.04813420
  |   Hirshfeld second moments:      0.07771127       0.03153728       0.00016027
  |                                  0.03153728       0.03070194       0.01484822
  |                                  0.00016027       0.01484822       0.06071313
  ----------------------------------------------------------------------
  | Atom     3: H
  |   Hirshfeld charge        :      0.10210744
  |   Free atom volume        :     10.44207651
  |   Hirshfeld volume        :      7.35009549
  |   Hirshfeld dipole vector :      0.11913473       0.02958809       0.00902945
  |   Hirshfeld dipole moment :      0.12308562
  |   Hirshfeld second moments:      0.09498662      -0.01166160       0.00719331
  |                                 -0.01166160       0.09156054      -0.00959588
  |                                  0.00719331      -0.00959588       0.07131248
  ----------------------------------------------------------------------
  | Atom     4: O
  |   Hirshfeld charge        :     -0.16772815
  |   Free atom volume        :     23.95238533
  |   Hirshfeld volume        :     19.77739566
  |   Hirshfeld dipole vector :      0.02548931      -0.00924159      -0.01513743
  |   Hirshfeld dipole moment :      0.03105244
  |   Hirshfeld second moments:      0.05554422       0.02003294       0.02869200
  |                                  0.02003294       0.09910489       0.01222720
  |                                  0.02869200       0.01222720       0.11355122
  ----------------------------------------------------------------------
  | Atom     5: H
  |   Hirshfeld charge        :      0.18225214
  |   Free atom volume        :     10.44207651
  |   Hirshfeld volume        :      5.81718568
  |   Hirshfeld dipole vector :      0.06002544       0.09165761       0.04239601
  |   Hirshfeld dipole moment :      0.11748018
  |   Hirshfeld second moments:      0.12304707      -0.00058595       0.00651691
  |                                 -0.00058595       0.12737025      -0.00439378
  |                                  0.00651691      -0.00439378       0.14044874
  ----------------------------------------------------------------------
  | Atom     6: H
  |   Hirshfeld charge        :      0.17878519
  |   Free atom volume        :     10.44207651
  |   Hirshfeld volume        :      5.49690636
  |   Hirshfeld dipole vector :     -0.01953780       0.00896619      -0.12078469
  |   Hirshfeld dipole moment :      0.12268276
  |   Hirshfeld second moments:      0.13173705       0.01055571       0.00768158
  |                                  0.01055571       0.14572946       0.00480037
  |                                  0.00768158       0.00480037       0.13239055
  ----------------------------------------------------------------------
  | Atom     7: O
  |   Hirshfeld charge        :     -0.28500819
  |   Free atom volume        :     23.95238533
  |   Hirshfeld volume        :     21.92191204
  |   Hirshfeld dipole vector :     -0.00623747       0.05148908      -0.00500932
  |   Hirshfeld dipole moment :      0.05210686
  |   Hirshfeld second moments:      0.00039532      -0.01251014      -0.06427776
  |                                 -0.01251014       0.00744051       0.00563697
  |                                 -0.06427776       0.00563697       0.04010996
  ----------------------------------------------------------------------
  | Atom     8: H
  |   Hirshfeld charge        :      0.14408734
  |   Free atom volume        :     10.44207651
  |   Hirshfeld volume        :      6.20712190
  |   Hirshfeld dipole vector :     -0.06409256       0.08609724       0.06822841
  |   Hirshfeld dipole moment :      0.12718376
  |   Hirshfeld second moments:      0.10966883       0.00370535      -0.01726123
  |                                  0.00370535       0.11260447      -0.00835059
  |                                 -0.01726123      -0.00835059       0.12408426
  ----------------------------------------------------------------------
  | Atom     9: H
  |   Hirshfeld charge        :      0.14297126
  |   Free atom volume        :     10.44207651
  |   Hirshfeld volume        :      6.42040248
  |   Hirshfeld dipole vector :      0.05819629       0.05314202      -0.09150752
  |   Hirshfeld dipole moment :      0.12076634
  |   Hirshfeld second moments:      0.10867656      -0.01061755      -0.01377526
  |                                 -0.01061755       0.11596986       0.00868099
  |                                 -0.01377526       0.00868099       0.10824563
  ----------------------------------------------------------------------


------------------------------------------------------------------------------
  Final output of selected total energy values:

  The following output summarizes some interesting total energy values
  at the end of a run (AFTER all relaxation, molecular dynamics, etc.).

  | Total energy of the DFT / Hartree-Fock s.c.f. calculation      :          -6248.845836137 eV
  | Final zero-broadening corrected energy (caution - metals only) :          -6248.845836137 eV
  | For reference only, the value of 1 Hartree used in FHI-aims is :             27.211384500 eV

  Before relying on these values, please be sure to understand exactly which
  total energy value is referred to by a given number. Different objects may
  all carry the same name 'total energy'. Definitions:

  Total energy of the DFT / Hartree-Fock s.c.f. calculation:
  | Note that this energy does not include ANY quantities calculated after the
  | s.c.f. cycle, in particular not ANY RPA, MP2, etc. many-body perturbation terms.

  Final zero-broadening corrected energy:
  | For metallic systems only, a broadening of the occupation numbers at the Fermi
  | level can be extrapolated back to zero broadening by an electron-gas inspired
  | formula. For all systems that are not real metals, this value can be
  | meaningless and should be avoided.

------------------------------------------------------------------------------

------------------------------------------------------------
          Leaving FHI-aims.
          Date     :  20150727, Time     :  123109.119

          Computational steps:
          | Number of self-consistency cycles          :           15

          Detailed time accounting                     :  max(cpu_time)    wall_clock(cpu1)
          | Total time                                 :       12.138 s          12.159 s
          | Preparation time                           :        0.173 s           0.475 s
          | Grid partitioning                          :        0.091 s           0.091 s
          | Preloading free-atom quantities on grid    :        0.014 s           0.014 s
          | Free-atom superposition energy             :        0.029 s           0.029 s
          | Total time for integrations                :        4.746 s           4.747 s
          | Total time for solution of K.-S. equations :        0.305 s           0.305 s
          | Total time for density & force components  :        3.997 s           3.998 s
          | Total time for mixing                      :        0.112 s           0.109 s
          | Total time for Hartree multipole update    :        0.053 s           0.056 s
          | Total time for Hartree multipole sum       :        2.197 s           2.193 s
          | Total time for total energy evaluation     :        0.008 s           0.005 s
          | Total time for scaled ZORA corrections     :        0.000 s           0.000 s
          | Total time for TS (2009) vdW correction    :        0.021 s           0.021 s

          Have a nice day.
------------------------------------------------------------
