  MPI-parallelism will be employed.
------------------------------------------------------------
          Invoking FHI-aims ...
          Version 081213
          Compiled on 2013/08/29 at 17:41:06 on host generoso.

          When using FHI-aims, please cite the following reference:

          Volker Blum, Ralf Gehrke, Felix Hanke, Paula Havu,
          Ville Havu, Xinguo Ren, Karsten Reuter, and Matthias Scheffler,
          'Ab Initio Molecular Simulations with Numeric Atom-Centered Orbitals: FHI-aims',
          Computer Physics Communications 180, 2175-2196 (2009)

          For any questions about FHI-aims, please visit the aimsclub website
          with its forums and wiki. Contributions to both the forums and the
          wiki are warmly encouraged - they are for you, and everyone is welcome there.

------------------------------------------------------------

  Date     :  20150727, Time     :  122658.995
  Time zero on CPU 1             :   0.409920000000000E-01  s.
  Internal wall clock time zero  :           207232018.995  s.

  Using        8 parallel tasks.
  Task        0 on host gen60 reporting.
  Task        1 on host gen60 reporting.
  Task        2 on host gen60 reporting.
  Task        3 on host gen60 reporting.
  Task        4 on host gen60 reporting.
  Task        5 on host gen60 reporting.
  Task        6 on host gen60 reporting.
  Task        7 on host gen60 reporting.

  Performing system and environment tests:
  | Environment variable OMP_NUM_THREADS correctly set to 1.
  | Checking for scalapack...
  | No scalapack compiled in.

  Obtaining array dimensions for all initial allocations:
  
  -----------------------------------------------------------------------
  Parsing control.in (first pass over file, find array dimensions only).
  The contents of control.in will be repeated verbatim below
  unless switched off by setting 'verbatim_writeout .false.' .
  in the first line of control.in .
  -----------------------------------------------------------------------
  
  #########################################################################################
  #
  #  Volker Blum, FHI 2008 : Test run input file control.in
  #
  #########################################################################################
  #
  #  Physical model
  #
    xc                 rpbe
    spin               none
    relativistic       atomic_zora scalar
    charge             0.
   vdw_correction_hirshfeld
  #
  #  SCF convergence
  #
    occupation_type    gaussian 0.01
    mixer              pulay
      n_max_pulay        10
      charge_mix_param   0.1
    sc_accuracy_rho    5E-5
    sc_accuracy_eev    5E-3
    sc_accuracy_etot   5E-6
    sc_iter_limit      3000
  #
  #  Eigenvalue solver
  #
    KS_method          lapack
      empty_states       8
      basis_threshold    0.e-5
  #
  #  Efficiency
  #
  #   all previous settings are now default, except stratmann still
  #   undecided. Continue to handle stratmann with care, if at all.
  #
  #  partition_type stratmann
    partition_type rho_r2
  #  hartree_partition_type stratmann
  #
  #  Oprions for large clusters (100's of atoms: memory saving / better scaling)
  #
  # for periodic systems:
  #
    density_update_method orbital
    packed_matrix_format none
  #  k_grid 6 6 6
  #  output k_eigenvalue 1
  #  distributed_spline_storage .true.
  #
  #  Relaxation
  #
  #  relax_geometry   bfgs 5.e-3
    sc_accuracy_forces 5.E-4
    final_forces_cleaned .true.
  #
  #  Output options
  #
  #  output mulliken
    output Hirshfeld
  #  output dipole
  
  #harmonic_length_scale 0.001
  
  ################################################################################
  #
  #  FHI-aims code project
  #  VB, Fritz-Haber Institut, 2007
  #
  #  Suggested "safe" defaults for H atom (to be pasted into control.in file)
  #  Basis constructed for a non-relativistic H2 molecule using the
  #  PW-LDA functional.
  #
  ################################################################################
    species        H
  #     global species definitions
      nucleus             1
      cut_pot             4.0  2.0  1.0
      cut_free_atom       finite 8.0
      logarithmic         0.00010000 100.00  1.0123
      basis_dep_cutoff    1d-4  # 1d-4 is safe default - please check 5d-4 if you wish!
      radial_base         24 7.0
      radial_multiplier   2
      angular_grids       specified
        division   0.2783  110
        division   0.3822  194
        division   0.5626  302
  #      division   0.5922  434
  #      division   0.6227  590
  #      division   0.7206  770
        outer_grid  302
      l_hartree           4
  ################################################################################
  #
  #  Definition of "minimal" basis
  #
  ################################################################################
  #     valence basis states
      valence      1  s   1.
  #     ion occupancy
      ion_occ      1  s   0.5
  ################################################################################
  #
  #  Suggested additional basis functions. For production calculations,
  #  uncomment them one after another (the most important basis functions are
  #  listed first).
  #
  ################################################################################
  #  "First tier" - improvements: -1014.90 meV to -62.69 meV
       hydro 2 s 2.1
       hydro 2 p 3.5
  #  "Second tier" - improvements: -12.89 meV to -1.83 meV
       hydro 1 s 0.85
       hydro 2 p 3.7
       hydro 2 s 1.2
       hydro 3 d 7
  #  "Third tier" - improvements: -0.25 meV to -0.12 meV
  #     hydro 4 f 11.2
  #     hydro 3 p 4.8
  #     hydro 4 d 9
  #     hydro 3 s 3.2
  
  ################################################################################
  #
  #  FHI-aims code project
  #  VB, Fritz-Haber Institut, 2007
  #
  #  Suggested "safe" defaults for O atom (to be pasted into control.in file)
  #  All values have been tested for a non-relativistic, non-spinpolarized O2
  #  molecule using the PW-LDA functional. Validity for PBE is expected.
  #
  #  Constructed for dimers: 1.0 A, 1.208 A, 1.5 A, 2.0 A, 3.0 A
  #
  ################################################################################
    species        O
  #     global species definitions
      nucleus             8
      mass                15.9994
      l_hartree           4
      cut_pot             4.0  2.0  1.0
      cut_free_atom       finite 8.0
      basis_dep_cutoff    1d-4  # 1d-4 is safe default - please check 5d-4 if you wish!
      logarithmic         0.00010000 100.00  1.0123
      radial_base         36 7.0
      radial_multiplier   2
       angular_grids specified
        division   0.4087  110
        division   0.5181  194
        division   0.6184  302
  #      division   0.7315  434
  #      division   0.7934  590
  #      division   0.9656  770
  #      division   1.4041  974
  #      outer_grid 974
        outer_grid 302
  ################################################################################
  #
  #  Definition of "minimal" basis
  #
  ################################################################################
  #     valence basis states
      valence      2  s   2.
      valence      2  p   4.
  #     ion occupancy
      ion_occ      2  s   1.
      ion_occ      2  p   3.
  ################################################################################
  #
  #  Suggested additional basis functions. For production calculations,
  #  uncomment them one after another (the most important basis functions are
  #  listed first).
  #
  ################################################################################
  #  "First tier" - improvements: -699.05 meV to -159.38 meV
       hydro 2 p 1.8
       hydro 3 d 7.6
       hydro 3 s 6.4
  #  "Second tier" - improvements: -49.91 meV to -5.39 meV
       hydro 4 f 11.6
       hydro 3 p 6.2
       hydro 3 d 5.6
       hydro 5 g 17.6
       hydro 1 s 0.75
  #  "Third tier" - improvements: -2.83 meV to -0.50 meV
  #     ionic 2 p auto
  #     hydro 4 f 10.8
  #     hydro 4 d 4.7
  #     hydro 2 s 6.8
  #  "Fourth tier" - improvements: -0.40 meV to -0.12 meV
  #     hydro 3 p 5
  #     hydro 3 s 3.3
  #     hydro 5 g 15.6
  #     hydro 4 f 17.6
  #     hydro 4 d 14
  # Further basis functions - -0.08 meV and below
  #     hydro 3 s 2.1
  #     hydro 4 d 11.6
  #     hydro 3 p 16
  #     hydro 2 s 17.2
  
  
  -----------------------------------------------------------------------
  Completed first pass over input file control.in .
  -----------------------------------------------------------------------
  
  
  -----------------------------------------------------------------------
  Parsing geometry.in (first pass over file, find array dimensions only).
  The contents of geometry.in will be repeated verbatim below
  unless switched off by setting 'verbatim_writeout .false.' .
  in the first line of geometry.in .
  -----------------------------------------------------------------------
  
  atom      -4.053030000      0.065001000     -1.525160000  O
  atom      -4.566710000      0.974813000     -1.912820000  H
  atom      -3.067820000      0.330172000     -1.477310000  H
  atom      -5.293160000      2.192130000     -2.328800000  O
  atom      -4.829300000      2.988660000     -1.973850000  H
  atom      -5.428570000      2.328640000     -3.235170000  H
  atom      -3.818880000      2.024990000      2.187990000  O
  atom      -3.690880000      1.961360000      3.202150000  H
  atom      -4.546490000      2.751300000      2.045370000  H
  atom      -4.066610000      4.258280000     -0.900064000  O
  atom      -3.224110000      3.876870000     -0.569443000  H
  atom      -3.737450000      5.116530000     -1.322720000  H
  atom      -5.628340000      3.730740000      1.385610000  O
  atom      -6.090650000      4.418470000      1.860350000  H
  atom      -5.158540000      4.200260000      0.615875000  H
  
  -----------------------------------------------------------------------
  Completed first pass over input file geometry.in .
  -----------------------------------------------------------------------
  
 
  Basic array size parameters: 
  | Number of species                 :        2
  | Number of atoms                   :       15
  | Max. basis fn. angular momentum   :        4
  | Max. atomic/ionic basis occupied n:        2
  | Max. number of basis fn. types    :        2
  | Max. radial fns per species/type  :        8
  | Max. logarithmic grid size        :     1301
  | Max. radial integration grid size :       73
  | Max. angular integration grid size:      302
  | Max. angular grid division number :        8
  | Radial grid for Hartree potential :     1301
  | Number of spin channels           :        1

------------------------------------------------------------
          Reading file control.in.
------------------------------------------------------------
  XC: Using RPBE gradient-corrected functionals.
  Spin treatment: No spin polarisation.
  Scalar relativistic treatment of kinetic energy: on-site free-atom approximation to ZORA.
  Charge =   0.000000E+00: Neutral system requested explicitly.
  Using non-empirical van der Waals correction (Hirshfeld partitioning):
  Occupation type: Gaussian broadening, width =   0.100000E-01 eV.
  Using pulay charge density mixing.
  Pulay mixing - number of memorized iterations:   10
  Charge density mixing - mixing parameter:     0.1000
  Convergence accuracy of self-consistent charge density: 0.5000E-04
  Convergence accuracy of sum of eigenvalues: 0.5000E-02
  Convergence accuracy of total energy: 0.5000E-05
  Maximum number of s.-c. iterations  :  3000
  Kohn-Sham eigenvalues and eigenfunctions calculated by lapack diagonalisation (D&C).
  Number of empty states per atom:        8
  Threshold for basis singularities: 0.0000E+00
  Partition function in integrals calculations: rho / r^2
 Using packed matrix format           0
  Convergence accuracy of forces: 0.5000E-03
  Cleaning forces before final output.
  Hirshfeld charge analysis will be performed.
 
  Reading configuration options for species H                   .
  | Found nuclear charge :   1.0000
  | Found cutoff potl. onset [A], width [A], scale factor :    4.00000    2.00000    1.00000
  | Found cutoff specification for free atom: Cutoff potential begins at    8.00000 A.
  | Found logarithmic grid data [bohr] : 0.1000E-03 0.1000E+03 0.1012E+01
  | Threshold for basis-dependent cutoff potential is   0.100000E-03
  | Found data for basic radial integration grid :    24 points, outermost radius =    7.000 A
  | Found multiplier for basic radial grid :   2
  | Found angular grid specification: user-specified.
  | Specified grid contains     4 separate shells.
  | Check grid settings after all constraints further below.
  | Found l_max for Hartree potential  :   4
  | Found free-atom valence shell :  1 s   1.000
  | No ionic wave fns used. Skipping ion_occ.
  | Found hydrogenic basis function :  2 s   2.100
  | Found hydrogenic basis function :  2 p   3.500
  | Found hydrogenic basis function :  1 s   0.850
  | Found hydrogenic basis function :  2 p   3.700
  | Found hydrogenic basis function :  2 s   1.200
  | Found hydrogenic basis function :  3 d   7.000
  Species H                   : Missing cutoff potential type.
  Defaulting to exp(1/x)/(1-x)^2 type cutoff potential.
  Species H : On-site basis accuracy parameter (for Gram-Schmidt orthonormalisation) not specified.
  Using default value basis_acc =  0.1000000E-03.
  Species H                   : Using default innermost maximum threshold i_radial=  2 for radial functions.
  Species H                   : Basic radial grid will be enhanced according to radial_multiplier =   2, to contain    49 grid points.
 
  Reading configuration options for species O                   .
  | Found nuclear charge :   8.0000
  | Found atomic mass :    15.9994000000000      amu
  | Found l_max for Hartree potential  :   4
  | Found cutoff potl. onset [A], width [A], scale factor :    4.00000    2.00000    1.00000
  | Found cutoff specification for free atom: Cutoff potential begins at    8.00000 A.
  | Threshold for basis-dependent cutoff potential is   0.100000E-03
  | Found logarithmic grid data [bohr] : 0.1000E-03 0.1000E+03 0.1012E+01
  | Found data for basic radial integration grid :    36 points, outermost radius =    7.000 A
  | Found multiplier for basic radial grid :   2
  | Found angular grid specification: user-specified.
  | Specified grid contains     4 separate shells.
  | Check grid settings after all constraints further below.
  | Found free-atom valence shell :  2 s   2.000
  | Found free-atom valence shell :  2 p   4.000
  | No ionic wave fns used. Skipping ion_occ.
  | No ionic wave fns used. Skipping ion_occ.
  | Found hydrogenic basis function :  2 p   1.800
  | Found hydrogenic basis function :  3 d   7.600
  | Found hydrogenic basis function :  3 s   6.400
  | Found hydrogenic basis function :  4 f  11.600
  | Found hydrogenic basis function :  3 p   6.200
  | Found hydrogenic basis function :  3 d   5.600
  | Found hydrogenic basis function :  5 g  17.600
  | Found hydrogenic basis function :  1 s   0.750
  Species O                   : Missing cutoff potential type.
  Defaulting to exp(1/x)/(1-x)^2 type cutoff potential.
  Species O : On-site basis accuracy parameter (for Gram-Schmidt orthonormalisation) not specified.
  Using default value basis_acc =  0.1000000E-03.
  Species O                   : Using default innermost maximum threshold i_radial=  2 for radial functions.
  Species O                   : Basic radial grid will be enhanced according to radial_multiplier =   2, to contain    73 grid points.
 
  Finished reading input file 'control.in'. Consistency checks are next.
 
  Target number of points in a grid batch is not set. Defaulting to  100
  Method for grid partitioning is not set. Defaulting to parallel hash+maxmin partitioning.
  Batch size limit is not set. Defaulting to    200
  By default, will store active basis functions for each batch.
  If in need of memory, prune_basis_once .false. can be used to disable this option.
  communication_type for Hartree potential was not specified.
  Defaulting to calc_hartree .
  Pulay mixer: Number of initial linear mixing iterations not set.
  Defaulting to    0 iterations.
  Work space size for distributed Hartree potential not set.
  Defaulting to   0.200000E+03 MB.
  Algorithm-dependent basis array size parameters:
  | n_max_pulay                         :       10
  Geometry relaxation not requested: no relaxation will be performed.
  Handling of forces: Unphysical translation and rotation will be removed from forces.
  No accuracy limit for integral partition fn. given. Defaulting to 0.1000E-14.
  No threshold value for u(r) in integrations given. Defaulting to 0.1000E-05.
  No accuracy for occupation numbers given. Defaulting to 0.1000E-07.
  No threshold value for occupation numbers given. Defaulting to 0.0000E+00.
  No accuracy for fermi level given. Defaulting to 0.1000E-19.
  Maximum # of iterations to find E_F not set. Defaulting to  200.
  Will not use alltoall communication since running on < 1024 CPUs.
  Partitioning for Hartree potential was not defined. Using partition_type for integrals.
  | Reporting present value of keyword multip_moments_threshold  :       0.10000000E-09
  | This value may affect high angular momentum components of the Hartree potential in periodic systems.
  No q(lm)/r^(l+1) cutoff set for long-range Hartree potential.
  | Using default value of  0.100000E-09 .
  | Verify using the multipole_threshold keyword.
  Defaulting to new monopole extrapolation.
  Density update method: Loop over occupied states selected for charge density update.
------------------------------------------------------------


------------------------------------------------------------
          Reading geometry description geometry.in.
------------------------------------------------------------
  Input structure read successfully.
  The structure contains       15 atoms,  and a total of         50.000 electrons.

  Input geometry:
  | No unit cell requested.
  | Atomic structure:
  |       Atom                x [A]            y [A]            z [A]
  |    1: Species O             -4.053030         0.065001        -1.525160
  |    2: Species H             -4.566710         0.974813        -1.912820
  |    3: Species H             -3.067820         0.330172        -1.477310
  |    4: Species O             -5.293160         2.192130        -2.328800
  |    5: Species H             -4.829300         2.988660        -1.973850
  |    6: Species H             -5.428570         2.328640        -3.235170
  |    7: Species O             -3.818880         2.024990         2.187990
  |    8: Species H             -3.690880         1.961360         3.202150
  |    9: Species H             -4.546490         2.751300         2.045370
  |   10: Species O             -4.066610         4.258280        -0.900064
  |   11: Species H             -3.224110         3.876870        -0.569443
  |   12: Species H             -3.737450         5.116530        -1.322720
  |   13: Species O             -5.628340         3.730740         1.385610
  |   14: Species H             -6.090650         4.418470         1.860350
  |   15: Species H             -5.158540         4.200260         0.615875
  |

  | The smallest distance between any two atoms is         0.92654057 AA.
  |
  | The first atom of this pair is atom number                      4 .
  | The second atom of this pair is atom number                     6 .

  Structure-dependent array size parameters: 
  | Maximum number of distinct radial functions  :       18
  | Maximum number of basis functions            :      345
  | Number of Kohn-Sham states (occupied + empty):       85
------------------------------------------------------------

------------------------------------------------------------
          Preparing all fixed parts of the calculation.
------------------------------------------------------------
  Determining machine precision:
    2.225073858507201E-308
  Setting up grids for atomic and cluster calculations.

  Creating wave function, potential, and density for free atoms.

  Species: H

  List of occupied orbitals and eigenvalues:
    n    l              occ      energy [Ha]    energy [eV]
    1    0           1.0000        -0.241408        -6.5691


  Species: O

  List of occupied orbitals and eigenvalues:
    n    l              occ      energy [Ha]    energy [eV]
    1    0           2.0000       -18.944147      -515.4965
    2    0           2.0000        -0.883529       -24.0421
    2    1           4.0000        -0.330176        -8.9845

  Creating fixed part of basis set: Ionic, confined, hydrogenic.
 
  H                    hydrogenic:
 
  List of hydrogenic basis orbitals: 
    n    l      effective z      eigenvalue [eV]  inner max. [A]     outer max. [A]     outer radius [A]   
    2    0         2.100000       -14.9965           0.193241           1.317192           5.372934
    2    1         3.500000       -41.6672           0.602363           0.602363           4.056010
    1    0         0.850000        -9.8292           0.624864           0.624864           5.372934
    2    1         3.700000       -46.5653           0.573616           0.573616           3.909951
    2    0         1.200000        -4.5995           0.334977           2.228160           5.505921
    3    2         7.000000       -74.0753           0.680692           0.680692           3.769152
 
 
  O                    hydrogenic:
 
  List of hydrogenic basis orbitals: 
    n    l      effective z      eigenvalue [eV]  inner max. [A]     outer max. [A]     outer radius [A]   
    2    1         1.800000       -11.0118           1.178546           1.178546           5.432516
    3    2         7.600000       -87.3182           0.624117           0.624117           3.541422
    3    0         6.400000       -61.9209           0.061166           1.081887           4.306510
    4    3        11.600000      -114.4238           0.731621           0.731621           3.584982
    3    1         6.200000       -58.1113           0.255677           1.030255           4.306510
    3    2         5.600000       -47.4081           0.847222           0.847222           4.413102
    5    4        17.600000      -168.5799           0.749730           0.749730           3.372413
    1    0         0.750000        -7.6499           0.705275           0.705275           5.366508
 

  Adding cutoff potential to free-atom effective potential.
  Creating atomic-like basis functions for current effective potential.

  Species H                   :

  List of atomic basis orbitals and eigenvalues:
    n    l      energy [Ha]    energy [eV]    outer radius [A]
    1    0        -0.241374        -6.5681       5.372934


  Species O                   :

  List of atomic basis orbitals and eigenvalues:
    n    l      energy [Ha]    energy [eV]    outer radius [A]
    1    0       -18.944147      -515.4965       1.415745
    2    0        -0.883529       -24.0421       5.048305
    2    1        -0.330173        -8.9845       5.301302

  Assembling full basis from fixed parts.
  | Species H :   atomic orbital   1 s accepted.
  | Species H :    hydro orbital   2 s accepted.
  | Species H :    hydro orbital   1 s accepted.
  | Species H :    hydro orbital   2 s accepted.
  | Species H :    hydro orbital   2 p accepted.
  | Species H :    hydro orbital   2 p accepted.
  | Species H :    hydro orbital   3 d accepted.
  | Species O :   atomic orbital   1 s accepted.
  | Species O :    hydro orbital   3 s accepted.
  | Species O :   atomic orbital   2 s accepted.
  | Species O :    hydro orbital   1 s accepted.
  | Species O :    hydro orbital   3 p accepted.
  | Species O :   atomic orbital   2 p accepted.
  | Species O :    hydro orbital   2 p accepted.
  | Species O :    hydro orbital   3 d accepted.
  | Species O :    hydro orbital   3 d accepted.
  | Species O :    hydro orbital   4 f accepted.
  | Species O :    hydro orbital   5 g accepted.
 
  Basis size parameters after reduction:
  | Total number of radial functions:       18
  | Total number of basis functions :      345
 
  Testing on-site integration grid accuracy.
  |  Species  Function  <phi|h_atom|phi> (log., in eV)  <phi|h_atom|phi> (rad., in eV)
           1        1                 -6.5683835025                 -6.5684759159
           1        2                 13.3711789951                 13.3708738703
           1        3                 23.6590910787                 23.6532055418
           1        4                 16.2963827186                 16.1870710655 ***
           1        5                 28.7627214838                 28.7627215090
           1        6                 59.5965249172                 59.5965950857
           1        7                 60.2220506392                 60.2220503827
           2        8               -515.4964576505               -515.4964530710
           2        9                 15.3030791347                 15.3030722972
           2       10                -21.7296094581                -21.7296135470
           2       11                 14.2969371730                 14.2969701621
           2       12                 21.0679693190                 21.0679697493
           2       13                 -2.3833606469                 -2.3833613176
           2       14                 13.7067136422                 13.7066766629
           2       15                 45.8013116808                 45.8013116965
           2       16                 52.2309815402                 52.2309831494
           2       17                 85.4120732416                 85.4120732763
           2       18                142.1019167745                142.1019167817
 * Note: Onsite integrals marked "***" above are less accurate than
 * onsite_accuracy_threshold =    0.03000 eV. Usually, this is harmless.
 * When in doubt, tighten the "radial" and/or "radial_multiplier" flags to check.

  Preparing densities etc. for the partition functions (integrals / Hartree potential).

  Preparations completed.
  max(cpu_time)          :      0.170 s.
  Wall clock time (cpu1) :      0.503 s.
------------------------------------------------------------

------------------------------------------------------------
          Begin self-consistency loop: Initialization.

          Date     :  20150727, Time     :  122659.538
------------------------------------------------------------

  Initializing index lists of integration centers etc. from given atomic structure:
  | Number of centers in hartree potential         :        15
  | Number of centers in hartree multipole         :        15
  | Number of centers in electron density summation:        15
  | Number of centers in basis integrals           :        15
  | Number of centers in integrals                 :        15
  Partitioning the integration grid into batches with parallel hashing+maxmin method.
  | Number of batches:     2025
  | Maximal batch size:     199
  | Minimal batch size:      55
  | Average batch size:      97.141
  | Standard deviation of batch sizes:      31.687

  Integration load balanced across     8 MPI tasks.
  Work distribution over tasks is as follows:
  Task     0 has      24583 integration points.
  Task     1 has      24557 integration points.
  Task     2 has      24656 integration points.
  Task     3 has      24557 integration points.
  Task     4 has      24612 integration points.
  Task     5 has      24532 integration points.
  Task     6 has      24631 integration points.
  Task     7 has      24582 integration points.
  Initializing partition tables, free-atom densities, potentials, etc. across the integration grid (initialize_grid_storage).
  | Net number of integration points:   196710
  | of which are non-zero points    :   196164
  Obtaining max. number of non-zero basis functions in each batch (get_n_compute_maxes).
  | Maximal number of non-zero basis functions:      341 in task     0
  | Maximal number of non-zero basis functions:      342 in task     1
  | Maximal number of non-zero basis functions:      342 in task     2
  | Maximal number of non-zero basis functions:      342 in task     3
  | Maximal number of non-zero basis functions:      342 in task     4
  | Maximal number of non-zero basis functions:      342 in task     5
  | Maximal number of non-zero basis functions:      341 in task     6
  | Maximal number of non-zero basis functions:      342 in task     7
  Integrating Hamiltonian matrix: batch-based integration.
  Time summed over all CPUs for integration: real work        7.257 s, elapsed        7.434 s
  Integrating overlap matrix.
  Time summed over all CPUs for integration: real work        3.867 s, elapsed        3.964 s

  Updating Kohn-Sham eigenvalues, eigenvectors, occupation numbers, and Fermi level.
  Solving generalized eigenproblem
  Updating Kohn-Sham eigenvalues and eigenfunctions.
  Transforming overlap matrix and checking for singularities.
  Overlap matrix is nonsingular:
  | Lowest eigenvalue:  0.301377E-03
  Solving real generalised eigenvalue problem by standard LAPACK (fast)
  Determining occupation numbers for Kohn-Sham eigenstates.
  | Chemical potential (Fermi level) in eV                 : -.34082946E+01
  | Error in electron count due to remaining E_F inaccuracy: 0.00000000E+00
  | Maximum occupation number of highest empty state:  0.00E+00

  Writing Kohn-Sham eigenvalues.

  State    Occupation    Eigenvalue [Ha]    Eigenvalue [eV]
      1       2.00000         -19.064906         -518.78249
      2       2.00000         -19.050629         -518.39400
      3       2.00000         -19.045356         -518.25051
      4       2.00000         -19.028889         -517.80242
      5       2.00000         -19.019416         -517.54463
      6       2.00000          -1.122188          -30.53628
      7       2.00000          -1.100709          -29.95182
      8       2.00000          -1.088960          -29.63210
      9       2.00000          -1.059654          -28.83464
     10       2.00000          -1.043113          -28.38454
     11       2.00000          -0.653491          -17.78240
     12       2.00000          -0.631855          -17.19365
     13       2.00000          -0.607788          -16.53875
     14       2.00000          -0.601180          -16.35894
     15       2.00000          -0.596918          -16.24296
     16       2.00000          -0.528949          -14.39343
     17       2.00000          -0.522023          -14.20497
     18       2.00000          -0.509640          -13.86800
     19       2.00000          -0.483654          -13.16091
     20       2.00000          -0.482132          -13.11948
     21       2.00000          -0.440999          -12.00018
     22       2.00000          -0.440198          -11.97841
     23       2.00000          -0.437289          -11.89925
     24       2.00000          -0.417286          -11.35492
     25       2.00000          -0.409546          -11.14432
     26       0.00000          -0.095970           -2.61148
     27       0.00000          -0.063760           -1.73501
     28       0.00000          -0.055676           -1.51503
     29       0.00000          -0.039833           -1.08391
     30       0.00000          -0.033543           -0.91276
     31       0.00000          -0.001982           -0.05393
     32       0.00000           0.026895            0.73186
     33       0.00000           0.037870            1.03050
     34       0.00000           0.041782            1.13695
     35       0.00000           0.055337            1.50580
     36       0.00000           0.072125            1.96262
     37       0.00000           0.078158            2.12680
     38       0.00000           0.086221            2.34620
     39       0.00000           0.091674            2.49458
     40       0.00000           0.098529            2.68112
     41       0.00000           0.102406            2.78660
     42       0.00000           0.109991            2.99302
     43       0.00000           0.119381            3.24853
     44       0.00000           0.123646            3.36459
     45       0.00000           0.130647            3.55508
     46       0.00000           0.136671            3.71901
     47       0.00000           0.146034            3.97380
     48       0.00000           0.152789            4.15760
     49       0.00000           0.164563            4.47799
     50       0.00000           0.180687            4.91673
     51       0.00000           0.190906            5.19481
     52       0.00000           0.217510            5.91876
     53       0.00000           0.228818            6.22646
     54       0.00000           0.247052            6.72263
     55       0.00000           0.254717            6.93121
     56       0.00000           0.257817            7.01555
     57       0.00000           0.289539            7.87877
     58       0.00000           0.304028            8.27302
     59       0.00000           0.315095            8.57416
     60       0.00000           0.333109            9.06436
     61       0.00000           0.346062            9.41682
     62       0.00000           0.352859            9.60179
     63       0.00000           0.361666            9.84144
     64       0.00000           0.377509           10.27253
     65       0.00000           0.382248           10.40151
     66       0.00000           0.390883           10.63647
     67       0.00000           0.405644           11.03813
     68       0.00000           0.427554           11.63434
     69       0.00000           0.447740           12.18363
     70       0.00000           0.449075           12.21994
     71       0.00000           0.464529           12.64047
     72       0.00000           0.475406           12.93645
     73       0.00000           0.485586           13.21348
     74       0.00000           0.508759           13.84403
     75       0.00000           0.516850           14.06420
     76       0.00000           0.526551           14.32819
     77       0.00000           0.529394           14.40555
     78       0.00000           0.537899           14.63698
     79       0.00000           0.582184           15.84205
     80       0.00000           0.606251           16.49693
     81       0.00000           0.631566           17.18580
     82       0.00000           0.677708           18.44139
     83       0.00000           0.691629           18.82018
     84       0.00000           0.731900           19.91600
     85       0.00000           0.752061           20.46462

  Highest occupied state (VBM) at    -11.14431847 eV
  | Occupation number:      2.00000000

  Lowest unoccupied state (CBM) at    -2.61147742 eV
  | Occupation number:      0.00000000

  Overall HOMO-LUMO gap:      8.53284104 eV.
  Calculating total energy contributions from superposition of free atom densities.

  Total energy components:
  | Sum of eigenvalues            :        -216.77353371 Ha       -5898.70797514 eV
  | XC energy correction          :         -45.56836306 Ha       -1239.97824820 eV
  | XC potential correction       :          58.23023404 Ha        1584.52528803 eV
  | Free-atom electrostatic energy:        -178.96698543 Ha       -4869.93945348 eV
  | Hartree energy correction     :           0.00000000 Ha           0.00000000 eV
  | van der Waals energy corr.    :           0.00000000 Ha           0.00000000 eV
  | Entropy correction            :           0.00000000 Ha           0.00000000 eV
  | ---------------------------
  | Total energy                  :        -383.07864816 Ha      -10424.10038879 eV
  | Total energy, T -> 0          :        -383.07864816 Ha      -10424.10038879 eV  <-- do not rely on this value for anything but (periodic) metals
  | Electronic free energy        :        -383.07864816 Ha      -10424.10038879 eV

  Derived energy quantities:
  | Kinetic energy                :         379.16274871 Ha       10317.54334328 eV
  | Electrostatic energy          :        -716.67303381 Ha      -19501.66548387 eV
  | Energy correction for multipole
  | error in Hartree potential    :           0.00000000 Ha           0.00000000 eV
  | Sum of eigenvalues per atom                           :        -393.24719834 eV
  | Total energy (T->0) per atom                          :        -694.94002592 eV  <-- do not rely on this value for anything but (periodic) metals
  | Electronic free energy per atom                       :        -694.94002592 eV
  Initialize hartree_potential_storage
  Max. number of atoms included in rho_multipole:           15

  End scf initialization - timings             :  max(cpu_time)    wall_clock(cpu1)
  | Time for scf. initialization               :        1.969 s           1.969 s
  | Boundary condition initialization          :        0.000 s           0.000 s
  | Integration                                :        1.429 s           1.428 s
  | Solution of K.-S. eqns.                    :        0.198 s           0.198 s
  | Grid partitioning                          :        0.129 s           0.128 s
  | Preloading free-atom quantities on grid    :        0.014 s           0.013 s
  | Free-atom superposition energy             :        0.065 s           0.065 s
  | Total energy evaluation                    :        0.000 s           0.001 s
------------------------------------------------------------

------------------------------------------------------------
          Begin self-consistency iteration #    1

  Date     :  20150727, Time     :  122701.507
------------------------------------------------------------
  Evaluating new KS density.
  Integration grid: deviation in total charge (<rho> - N_e) =  -3.552714E-14
  Pulay mixing of updated and previous charge densities.

  Evaluating partitioned Hartree potential by multipole expansion.
  | Analytical far-field extrapolation by fixed multipoles:
  | Hartree multipole sum: apparent total charge =  -0.185201E-05
  Summing up the Hartree potential.
  Time summed over all CPUs for potential: real work        2.567 s, elapsed        2.576 s
  | RMS charge density error from multipole expansion :   0.160978E-02

  Integrating Hamiltonian matrix: batch-based integration.
  Time summed over all CPUs for integration: real work        7.257 s, elapsed        7.460 s

  Updating Kohn-Sham eigenvalues, eigenvectors, occupation numbers, and Fermi level.
  Solving generalized eigenproblem
  Updating Kohn-Sham eigenvalues and eigenfunctions.
  Solving real generalised eigenvalue problem by standard LAPACK (fast)
  Determining occupation numbers for Kohn-Sham eigenstates.
  | Chemical potential (Fermi level) in eV                 : -.30490774E+01
  | Error in electron count due to remaining E_F inaccuracy: 0.00000000E+00
  | Maximum occupation number of highest empty state:  0.00E+00

  Writing Kohn-Sham eigenvalues.

  State    Occupation    Eigenvalue [Ha]    Eigenvalue [eV]
      1       2.00000         -18.993492         -516.83921
      2       2.00000         -18.986403         -516.64631
      3       2.00000         -18.978994         -516.44472
      4       2.00000         -18.944650         -515.51014
      5       2.00000         -18.931458         -515.15119
      6       2.00000          -1.087806          -29.60072
      7       2.00000          -1.068255          -29.06869
      8       2.00000          -1.060535          -28.85863
      9       2.00000          -1.014885          -27.61642
     10       2.00000          -0.994936          -27.07359
     11       2.00000          -0.623595          -16.96887
     12       2.00000          -0.602180          -16.38616
     13       2.00000          -0.586108          -15.94880
     14       2.00000          -0.564706          -15.36643
     15       2.00000          -0.559989          -15.23807
     16       2.00000          -0.496133          -13.50047
     17       2.00000          -0.484363          -13.18019
     18       2.00000          -0.476028          -12.95338
     19       2.00000          -0.442526          -12.04174
     20       2.00000          -0.440820          -11.99532
     21       2.00000          -0.411036          -11.18485
     22       2.00000          -0.399666          -10.87546
     23       2.00000          -0.397969          -10.82929
     24       2.00000          -0.370896          -10.09260
     25       2.00000          -0.359759           -9.78953
     26       0.00000          -0.089547           -2.43669
     27       0.00000          -0.054388           -1.47997
     28       0.00000          -0.046777           -1.27288
     29       0.00000          -0.033637           -0.91530
     30       0.00000          -0.024666           -0.67120
     31       0.00000           0.003045            0.08285
     32       0.00000           0.036303            0.98785
     33       0.00000           0.046766            1.27256
     34       0.00000           0.048520            1.32029
     35       0.00000           0.066710            1.81527
     36       0.00000           0.082810            2.25337
     37       0.00000           0.086085            2.34250
     38       0.00000           0.099673            2.71224
     39       0.00000           0.102013            2.77591
     40       0.00000           0.108819            2.96112
     41       0.00000           0.116118            3.15973
     42       0.00000           0.118641            3.22840
     43       0.00000           0.130437            3.54936
     44       0.00000           0.137135            3.73164
     45       0.00000           0.140706            3.82880
     46       0.00000           0.148011            4.02759
     47       0.00000           0.157394            4.28292
     48       0.00000           0.163042            4.43660
     49       0.00000           0.172471            4.69317
     50       0.00000           0.191593            5.21351
     51       0.00000           0.201425            5.48106
     52       0.00000           0.228092            6.20670
     53       0.00000           0.235563            6.41000
     54       0.00000           0.257951            7.01920
     55       0.00000           0.262383            7.13979
     56       0.00000           0.268287            7.30047
     57       0.00000           0.299022            8.13682
     58       0.00000           0.312312            8.49843
     59       0.00000           0.322670            8.78030
     60       0.00000           0.340571            9.26740
     61       0.00000           0.355720            9.67963
     62       0.00000           0.363611            9.89435
     63       0.00000           0.370360           10.07800
     64       0.00000           0.385193           10.48163
     65       0.00000           0.390068           10.61430
     66       0.00000           0.401525           10.92605
     67       0.00000           0.415355           11.30240
     68       0.00000           0.437786           11.91276
     69       0.00000           0.455824           12.40361
     70       0.00000           0.459197           12.49538
     71       0.00000           0.473976           12.89754
     72       0.00000           0.486219           13.23070
     73       0.00000           0.495614           13.48634
     74       0.00000           0.521699           14.19616
     75       0.00000           0.528548           14.38252
     76       0.00000           0.536846           14.60832
     77       0.00000           0.541222           14.72739
     78       0.00000           0.552428           15.03233
     79       0.00000           0.592151           16.11325
     80       0.00000           0.618390           16.82723
     81       0.00000           0.642783           17.49103
     82       0.00000           0.689771           18.76962
     83       0.00000           0.703776           19.15071
     84       0.00000           0.745761           20.29318
     85       0.00000           0.762566           20.75047

  Highest occupied state (VBM) at     -9.78953118 eV
  | Occupation number:      2.00000000

  Lowest unoccupied state (CBM) at    -2.43668926 eV
  | Occupation number:      0.00000000

  Overall HOMO-LUMO gap:      7.35284192 eV.

  Total energy components:
  | Sum of eigenvalues            :        -214.55437368 Ha       -5838.32155825 eV
  | XC energy correction          :         -45.80471916 Ha       -1246.40982491 eV
  | XC potential correction       :          58.53938309 Ha        1592.93766153 eV
  | Free-atom electrostatic energy:        -178.96698543 Ha       -4869.93945348 eV
  | Hartree energy correction     :          -2.15151273 Ha         -58.54564027 eV
  | van der Waals energy corr.    :           0.00000000 Ha           0.00000000 eV
  | Entropy correction            :           0.00000000 Ha           0.00000000 eV
  | ---------------------------
  | Total energy                  :        -382.93820792 Ha      -10420.27881537 eV
  | Total energy, T -> 0          :        -382.93820792 Ha      -10420.27881537 eV  <-- do not rely on this value for anything but (periodic) metals
  | Electronic free energy        :        -382.93820792 Ha      -10420.27881537 eV

  Derived energy quantities:
  | Kinetic energy                :         380.56225302 Ha       10355.62579309 eV
  | Electrostatic energy          :        -717.69574178 Ha      -19529.49478356 eV
  | Energy correction for multipole
  | error in Hartree potential    :          -0.00006789 Ha          -0.00184741 eV
  | Sum of eigenvalues per atom                           :        -389.22143722 eV
  | Total energy (T->0) per atom                          :        -694.68525436 eV  <-- do not rely on this value for anything but (periodic) metals
  | Electronic free energy per atom                       :        -694.68525436 eV

  Self-consistency convergence accuracy:
  | Change of charge density      : 0.6511E+00
  | Change of sum of eigenvalues  : 0.6039E+02 eV
  | Change of total energy        : 0.3822E+01 eV

  End self-consistency iteration #     1       :  max(cpu_time)    wall_clock(cpu1)
  | Time for this iteration                    :        1.983 s           1.982 s
  | Charge density update                      :        0.663 s           0.662 s
  | Density mixing                             :        0.003 s           0.004 s
  | Hartree multipole update                   :        0.005 s           0.005 s
  | Hartree multipole summation                :        0.323 s           0.323 s
  | Integration                                :        0.934 s           0.934 s
  | Solution of K.-S. eqns.                    :        0.054 s           0.053 s
  | Total energy evaluation                    :        0.000 s           0.000 s
------------------------------------------------------------

------------------------------------------------------------
          Begin self-consistency iteration #    2

  Date     :  20150727, Time     :  122703.490
------------------------------------------------------------
  Evaluating new KS density.
  Integration grid: deviation in total charge (<rho> - N_e) =  -1.421085E-14
  Pulay mixing of updated and previous charge densities.

  Evaluating partitioned Hartree potential by multipole expansion.
  | Analytical far-field extrapolation by fixed multipoles:
  | Hartree multipole sum: apparent total charge =  -0.521017E-05
  Summing up the Hartree potential.
  Time summed over all CPUs for potential: real work        2.567 s, elapsed        2.576 s
  | RMS charge density error from multipole expansion :   0.643850E-02

  Integrating Hamiltonian matrix: batch-based integration.
  Time summed over all CPUs for integration: real work        7.214 s, elapsed        7.377 s

  Updating Kohn-Sham eigenvalues, eigenvectors, occupation numbers, and Fermi level.
  Solving generalized eigenproblem
  Updating Kohn-Sham eigenvalues and eigenfunctions.
  Solving real generalised eigenvalue problem by standard LAPACK (fast)
  Determining occupation numbers for Kohn-Sham eigenstates.
  | Chemical potential (Fermi level) in eV                 : -.51214645E+01
  | Error in electron count due to remaining E_F inaccuracy: 0.00000000E+00
  | Maximum occupation number of highest empty state:  0.00E+00

  Highest occupied state (VBM) at     -6.56141667 eV
  | Occupation number:      2.00000000

  Lowest unoccupied state (CBM) at    -2.13056061 eV
  | Occupation number:      0.00000000

  Overall HOMO-LUMO gap:      4.43085606 eV.

  Total energy components:
  | Sum of eigenvalues            :        -209.31472748 Ha       -5695.74353110 eV
  | XC energy correction          :         -46.38761470 Ha       -1262.27121973 eV
  | XC potential correction       :          59.30099270 Ha        1613.66211358 eV
  | Free-atom electrostatic energy:        -178.96698543 Ha       -4869.93945348 eV
  | Hartree energy correction     :          -7.40594437 Ha        -201.52599996 eV
  | van der Waals energy corr.    :           0.00000000 Ha           0.00000000 eV
  | Entropy correction            :           0.00000000 Ha           0.00000000 eV
  | ---------------------------
  | Total energy                  :        -382.77427930 Ha      -10415.81809069 eV
  | Total energy, T -> 0          :        -382.77427930 Ha      -10415.81809069 eV  <-- do not rely on this value for anything but (periodic) metals
  | Electronic free energy        :        -382.77427930 Ha      -10415.81809069 eV

  Derived energy quantities:
  | Kinetic energy                :         383.37373343 Ha       10432.13006760 eV
  | Electrostatic energy          :        -719.76039803 Ha      -19585.67693856 eV
  | Energy correction for multipole
  | error in Hartree potential    :          -0.00106678 Ha          -0.02902867 eV
  | Sum of eigenvalues per atom                           :        -379.71623541 eV
  | Total energy (T->0) per atom                          :        -694.38787271 eV  <-- do not rely on this value for anything but (periodic) metals
  | Electronic free energy per atom                       :        -694.38787271 eV

  Self-consistency convergence accuracy:
  | Change of charge density      : 0.4923E+00
  | Change of sum of eigenvalues  : 0.1426E+03 eV
  | Change of total energy        : 0.4461E+01 eV

  End self-consistency iteration #     2       :  max(cpu_time)    wall_clock(cpu1)
  | Time for this iteration                    :        1.953 s           1.952 s
  | Charge density update                      :        0.641 s           0.640 s
  | Density mixing                             :        0.006 s           0.006 s
  | Hartree multipole update                   :        0.005 s           0.005 s
  | Hartree multipole summation                :        0.322 s           0.322 s
  | Integration                                :        0.924 s           0.923 s
  | Solution of K.-S. eqns.                    :        0.054 s           0.054 s
  | Total energy evaluation                    :        0.000 s           0.001 s
------------------------------------------------------------

------------------------------------------------------------
          Begin self-consistency iteration #    3

  Date     :  20150727, Time     :  122705.442
------------------------------------------------------------
  Evaluating new KS density.
  Integration grid: deviation in total charge (<rho> - N_e) =   0.000000E+00
  Pulay mixing of updated and previous charge densities.

  Evaluating partitioned Hartree potential by multipole expansion.
  | Analytical far-field extrapolation by fixed multipoles:
  | Hartree multipole sum: apparent total charge =  -0.487123E-05
  Summing up the Hartree potential.
  Time summed over all CPUs for potential: real work        2.567 s, elapsed        2.576 s
  | RMS charge density error from multipole expansion :   0.132559E-01

  Integrating Hamiltonian matrix: batch-based integration.
  Time summed over all CPUs for integration: real work        7.225 s, elapsed        7.410 s

  Updating Kohn-Sham eigenvalues, eigenvectors, occupation numbers, and Fermi level.
  Solving generalized eigenproblem
  Updating Kohn-Sham eigenvalues and eigenfunctions.
  Solving real generalised eigenvalue problem by standard LAPACK (fast)
  Determining occupation numbers for Kohn-Sham eigenstates.
  | Chemical potential (Fermi level) in eV                 : -.32666712E+01
  | Error in electron count due to remaining E_F inaccuracy: 0.00000000E+00
  | Maximum occupation number of highest empty state:  0.00E+00

  Highest occupied state (VBM) at     -6.23731401 eV
  | Occupation number:      2.00000000

  Lowest unoccupied state (CBM) at    -2.20432632 eV
  | Occupation number:      0.00000000

  Overall HOMO-LUMO gap:      4.03298769 eV.

  Total energy components:
  | Sum of eigenvalues            :        -209.41032518 Ha       -5698.34487684 eV
  | XC energy correction          :         -46.37996988 Ha       -1262.06319353 eV
  | XC potential correction       :          59.28550246 Ha        1613.24060276 eV
  | Free-atom electrostatic energy:        -178.96698543 Ha       -4869.93945348 eV
  | Hartree energy correction     :          -7.29441879 Ha        -198.49123434 eV
  | van der Waals energy corr.    :           0.00000000 Ha           0.00000000 eV
  | Entropy correction            :           0.00000000 Ha           0.00000000 eV
  | ---------------------------
  | Total energy                  :        -382.76619683 Ha      -10415.59815543 eV
  | Total energy, T -> 0          :        -382.76619683 Ha      -10415.59815543 eV  <-- do not rely on this value for anything but (periodic) metals
  | Electronic free energy        :        -382.76619683 Ha      -10415.59815543 eV

  Derived energy quantities:
  | Kinetic energy                :         381.38267217 Ha       10377.95053409 eV
  | Electrostatic energy          :        -717.76889912 Ha      -19531.48549599 eV
  | Energy correction for multipole
  | error in Hartree potential    :          -0.00590219 Ha          -0.16060686 eV
  | Sum of eigenvalues per atom                           :        -379.88965846 eV
  | Total energy (T->0) per atom                          :        -694.37321036 eV  <-- do not rely on this value for anything but (periodic) metals
  | Electronic free energy per atom                       :        -694.37321036 eV

  Self-consistency convergence accuracy:
  | Change of charge density      : 0.2462E+00
  | Change of sum of eigenvalues  : -.2601E+01 eV
  | Change of total energy        : 0.2199E+00 eV

  End self-consistency iteration #     3       :  max(cpu_time)    wall_clock(cpu1)
  | Time for this iteration                    :        1.956 s           1.956 s
  | Charge density update                      :        0.639 s           0.639 s
  | Density mixing                             :        0.007 s           0.007 s
  | Hartree multipole update                   :        0.005 s           0.005 s
  | Hartree multipole summation                :        0.323 s           0.323 s
  | Integration                                :        0.928 s           0.927 s
  | Solution of K.-S. eqns.                    :        0.054 s           0.055 s
  | Total energy evaluation                    :        0.000 s           0.000 s
------------------------------------------------------------

------------------------------------------------------------
          Begin self-consistency iteration #    4

  Date     :  20150727, Time     :  122707.398
------------------------------------------------------------
  Evaluating new KS density.
  Integration grid: deviation in total charge (<rho> - N_e) =   7.105427E-15
  Pulay mixing of updated and previous charge densities.

  Evaluating partitioned Hartree potential by multipole expansion.
  | Analytical far-field extrapolation by fixed multipoles:
  | Hartree multipole sum: apparent total charge =  -0.565004E-05
  Summing up the Hartree potential.
  Time summed over all CPUs for potential: real work        2.566 s, elapsed        2.575 s
  | RMS charge density error from multipole expansion :   0.165756E-01

  Integrating Hamiltonian matrix: batch-based integration.
  Time summed over all CPUs for integration: real work        7.214 s, elapsed        7.398 s

  Updating Kohn-Sham eigenvalues, eigenvectors, occupation numbers, and Fermi level.
  Solving generalized eigenproblem
  Updating Kohn-Sham eigenvalues and eigenfunctions.
  Solving real generalised eigenvalue problem by standard LAPACK (fast)
  Determining occupation numbers for Kohn-Sham eigenstates.
  | Chemical potential (Fermi level) in eV                 : -.29149941E+01
  | Error in electron count due to remaining E_F inaccuracy: 0.00000000E+00
  | Maximum occupation number of highest empty state:  0.00E+00

  Highest occupied state (VBM) at     -5.24073968 eV
  | Occupation number:      2.00000000

  Lowest unoccupied state (CBM) at    -2.16079528 eV
  | Occupation number:      0.00000000

  Overall HOMO-LUMO gap:      3.07994440 eV.

  Total energy components:
  | Sum of eigenvalues            :        -208.03062066 Ha       -5660.80120652 eV
  | XC energy correction          :         -46.55116239 Ha       -1266.72157861 eV
  | XC potential correction       :          59.50823830 Ha        1619.30155337 eV
  | Free-atom electrostatic energy:        -178.96698543 Ha       -4869.93945348 eV
  | Hartree energy correction     :          -8.71582688 Ha        -237.16971644 eV
  | van der Waals energy corr.    :           0.00000000 Ha           0.00000000 eV
  | Entropy correction            :           0.00000000 Ha           0.00000000 eV
  | ---------------------------
  | Total energy                  :        -382.75635706 Ha      -10415.33040167 eV
  | Total energy, T -> 0          :        -382.75635706 Ha      -10415.33040167 eV  <-- do not rely on this value for anything but (periodic) metals
  | Electronic free energy        :        -382.75635706 Ha      -10415.33040167 eV

  Derived energy quantities:
  | Kinetic energy                :         381.53184823 Ha       10382.00982109 eV
  | Electrostatic energy          :        -717.73704290 Ha      -19530.61864415 eV
  | Energy correction for multipole
  | error in Hartree potential    :          -0.00767132 Ha          -0.20874735 eV
  | Sum of eigenvalues per atom                           :        -377.38674710 eV
  | Total energy (T->0) per atom                          :        -694.35536011 eV  <-- do not rely on this value for anything but (periodic) metals
  | Electronic free energy per atom                       :        -694.35536011 eV

  Self-consistency convergence accuracy:
  | Change of charge density      : 0.1266E+00
  | Change of sum of eigenvalues  : 0.3754E+02 eV
  | Change of total energy        : 0.2678E+00 eV

  End self-consistency iteration #     4       :  max(cpu_time)    wall_clock(cpu1)
  | Time for this iteration                    :        1.951 s           1.951 s
  | Charge density update                      :        0.634 s           0.635 s
  | Density mixing                             :        0.009 s           0.008 s
  | Hartree multipole update                   :        0.004 s           0.005 s
  | Hartree multipole summation                :        0.323 s           0.323 s
  | Integration                                :        0.926 s           0.926 s
  | Solution of K.-S. eqns.                    :        0.053 s           0.054 s
  | Total energy evaluation                    :        0.001 s           0.000 s
------------------------------------------------------------

------------------------------------------------------------
          Begin self-consistency iteration #    5

  Date     :  20150727, Time     :  122709.349
------------------------------------------------------------
  Evaluating new KS density.
  Integration grid: deviation in total charge (<rho> - N_e) =   7.105427E-15
  Pulay mixing of updated and previous charge densities.

  Evaluating partitioned Hartree potential by multipole expansion.
  | Analytical far-field extrapolation by fixed multipoles:
  | Hartree multipole sum: apparent total charge =  -0.567758E-05
  Summing up the Hartree potential.
  Time summed over all CPUs for potential: real work        2.566 s, elapsed        2.575 s
  | RMS charge density error from multipole expansion :   0.174190E-01

  Integrating Hamiltonian matrix: batch-based integration.
  Time summed over all CPUs for integration: real work        7.213 s, elapsed        7.399 s

  Updating Kohn-Sham eigenvalues, eigenvectors, occupation numbers, and Fermi level.
  Solving generalized eigenproblem
  Updating Kohn-Sham eigenvalues and eigenfunctions.
  Solving real generalised eigenvalue problem by standard LAPACK (fast)
  Determining occupation numbers for Kohn-Sham eigenstates.
  | Chemical potential (Fermi level) in eV                 : -.28702460E+01
  | Error in electron count due to remaining E_F inaccuracy: 0.00000000E+00
  | Maximum occupation number of highest empty state:  0.00E+00

  Highest occupied state (VBM) at     -4.97490474 eV
  | Occupation number:      2.00000000

  Lowest unoccupied state (CBM) at    -2.14027340 eV
  | Occupation number:      0.00000000

  Overall HOMO-LUMO gap:      2.83463134 eV.

  Total energy components:
  | Sum of eigenvalues            :        -207.83556421 Ha       -5655.49345053 eV
  | XC energy correction          :         -46.57944902 Ha       -1267.49129721 eV
  | XC potential correction       :          59.54460562 Ha        1620.29115837 eV
  | Free-atom electrostatic energy:        -178.96698543 Ha       -4869.93945348 eV
  | Hartree energy correction     :          -8.91866542 Ha        -242.68923398 eV
  | van der Waals energy corr.    :           0.00000000 Ha           0.00000000 eV
  | Entropy correction            :           0.00000000 Ha           0.00000000 eV
  | ---------------------------
  | Total energy                  :        -382.75605847 Ha      -10415.32227682 eV
  | Total energy, T -> 0          :        -382.75605847 Ha      -10415.32227682 eV  <-- do not rely on this value for anything but (periodic) metals
  | Electronic free energy        :        -382.75605847 Ha      -10415.32227682 eV

  Derived energy quantities:
  | Kinetic energy                :         381.56463048 Ha       10382.90187165 eV
  | Electrostatic energy          :        -717.74123993 Ha      -19530.73285127 eV
  | Energy correction for multipole
  | error in Hartree potential    :          -0.00808428 Ha          -0.21998445 eV
  | Sum of eigenvalues per atom                           :        -377.03289670 eV
  | Total energy (T->0) per atom                          :        -694.35481845 eV  <-- do not rely on this value for anything but (periodic) metals
  | Electronic free energy per atom                       :        -694.35481845 eV

  Self-consistency convergence accuracy:
  | Change of charge density      : 0.3519E-01
  | Change of sum of eigenvalues  : 0.5308E+01 eV
  | Change of total energy        : 0.8125E-02 eV

  End self-consistency iteration #     5       :  max(cpu_time)    wall_clock(cpu1)
  | Time for this iteration                    :        1.953 s           1.953 s
  | Charge density update                      :        0.634 s           0.635 s
  | Density mixing                             :        0.010 s           0.009 s
  | Hartree multipole update                   :        0.005 s           0.005 s
  | Hartree multipole summation                :        0.322 s           0.323 s
  | Integration                                :        0.927 s           0.926 s
  | Solution of K.-S. eqns.                    :        0.054 s           0.054 s
  | Total energy evaluation                    :        0.000 s           0.000 s
------------------------------------------------------------

------------------------------------------------------------
          Begin self-consistency iteration #    6

  Date     :  20150727, Time     :  122711.302
------------------------------------------------------------
  Evaluating new KS density.
  Integration grid: deviation in total charge (<rho> - N_e) =   1.421085E-14
  Pulay mixing of updated and previous charge densities.

  Evaluating partitioned Hartree potential by multipole expansion.
  | Analytical far-field extrapolation by fixed multipoles:
  | Hartree multipole sum: apparent total charge =  -0.564683E-05
  Summing up the Hartree potential.
  Time summed over all CPUs for potential: real work        2.566 s, elapsed        2.575 s
  | RMS charge density error from multipole expansion :   0.176358E-01

  Integrating Hamiltonian matrix: batch-based integration.
  Time summed over all CPUs for integration: real work        7.208 s, elapsed        7.389 s

  Updating Kohn-Sham eigenvalues, eigenvectors, occupation numbers, and Fermi level.
  Solving generalized eigenproblem
  Updating Kohn-Sham eigenvalues and eigenfunctions.
  Solving real generalised eigenvalue problem by standard LAPACK (fast)
  Determining occupation numbers for Kohn-Sham eigenstates.
  | Chemical potential (Fermi level) in eV                 : -.28598061E+01
  | Error in electron count due to remaining E_F inaccuracy: 0.00000000E+00
  | Maximum occupation number of highest empty state:  0.00E+00

  Highest occupied state (VBM) at     -4.95079203 eV
  | Occupation number:      2.00000000

  Lowest unoccupied state (CBM) at    -2.13541704 eV
  | Occupation number:      0.00000000

  Overall HOMO-LUMO gap:      2.81537499 eV.

  Total energy components:
  | Sum of eigenvalues            :        -207.79803047 Ha       -5654.47210559 eV
  | XC energy correction          :         -46.58515450 Ha       -1267.64655105 eV
  | XC potential correction       :          59.55187783 Ha        1620.48904539 eV
  | Free-atom electrostatic energy:        -178.96698543 Ha       -4869.93945348 eV
  | Hartree energy correction     :          -8.95781839 Ha        -243.75464038 eV
  | van der Waals energy corr.    :           0.00000000 Ha           0.00000000 eV
  | Entropy correction            :           0.00000000 Ha           0.00000000 eV
  | ---------------------------
  | Total energy                  :        -382.75611096 Ha      -10415.32370510 eV
  | Total energy, T -> 0          :        -382.75611096 Ha      -10415.32370510 eV  <-- do not rely on this value for anything but (periodic) metals
  | Electronic free energy        :        -382.75611096 Ha      -10415.32370510 eV

  Derived energy quantities:
  | Kinetic energy                :         381.56834073 Ha       10383.00283259 eV
  | Electrostatic energy          :        -717.73929719 Ha      -19530.67998664 eV
  | Energy correction for multipole
  | error in Hartree potential    :          -0.00818366 Ha          -0.22268865 eV
  | Sum of eigenvalues per atom                           :        -376.96480704 eV
  | Total energy (T->0) per atom                          :        -694.35491367 eV  <-- do not rely on this value for anything but (periodic) metals
  | Electronic free energy per atom                       :        -694.35491367 eV

  Self-consistency convergence accuracy:
  | Change of charge density      : 0.1089E-01
  | Change of sum of eigenvalues  : 0.1021E+01 eV
  | Change of total energy        : -.1428E-02 eV

  End self-consistency iteration #     6       :  max(cpu_time)    wall_clock(cpu1)
  | Time for this iteration                    :        1.955 s           1.955 s
  | Charge density update                      :        0.637 s           0.636 s
  | Density mixing                             :        0.011 s           0.011 s
  | Hartree multipole update                   :        0.004 s           0.004 s
  | Hartree multipole summation                :        0.323 s           0.323 s
  | Integration                                :        0.925 s           0.925 s
  | Solution of K.-S. eqns.                    :        0.054 s           0.054 s
  | Total energy evaluation                    :        0.000 s           0.001 s
------------------------------------------------------------

------------------------------------------------------------
          Begin self-consistency iteration #    7

  Date     :  20150727, Time     :  122713.257
------------------------------------------------------------
  Evaluating new KS density.
  Integration grid: deviation in total charge (<rho> - N_e) =   2.842171E-14
  Pulay mixing of updated and previous charge densities.

  Evaluating partitioned Hartree potential by multipole expansion.
  | Analytical far-field extrapolation by fixed multipoles:
  | Hartree multipole sum: apparent total charge =  -0.546282E-05
  Summing up the Hartree potential.
  Time summed over all CPUs for potential: real work        2.566 s, elapsed        2.575 s
  | RMS charge density error from multipole expansion :   0.176071E-01

  Integrating Hamiltonian matrix: batch-based integration.
  Time summed over all CPUs for integration: real work        7.219 s, elapsed        7.405 s

  Updating Kohn-Sham eigenvalues, eigenvectors, occupation numbers, and Fermi level.
  Solving generalized eigenproblem
  Updating Kohn-Sham eigenvalues and eigenfunctions.
  Solving real generalised eigenvalue problem by standard LAPACK (fast)
  Determining occupation numbers for Kohn-Sham eigenstates.
  | Chemical potential (Fermi level) in eV                 : -.28968569E+01
  | Error in electron count due to remaining E_F inaccuracy: 0.00000000E+00
  | Maximum occupation number of highest empty state:  0.00E+00

  Highest occupied state (VBM) at     -5.08961715 eV
  | Occupation number:      2.00000000

  Lowest unoccupied state (CBM) at    -2.13577106 eV
  | Occupation number:      0.00000000

  Overall HOMO-LUMO gap:      2.95384610 eV.

  Total energy components:
  | Sum of eigenvalues            :        -207.93278463 Ha       -5658.13895280 eV
  | XC energy correction          :         -46.57060215 Ha       -1267.25056146 eV
  | XC potential correction       :          59.53233752 Ha        1619.95732632 eV
  | Free-atom electrostatic energy:        -178.96698543 Ha       -4869.93945348 eV
  | Hartree energy correction     :          -8.81796229 Ha        -239.94896225 eV
  | van der Waals energy corr.    :           0.00000000 Ha           0.00000000 eV
  | Entropy correction            :           0.00000000 Ha           0.00000000 eV
  | ---------------------------
  | Total energy                  :        -382.75599699 Ha      -10415.32060366 eV
  | Total energy, T -> 0          :        -382.75599699 Ha      -10415.32060366 eV  <-- do not rely on this value for anything but (periodic) metals
  | Electronic free energy        :        -382.75599699 Ha      -10415.32060366 eV

  Derived energy quantities:
  | Kinetic energy                :         381.61986670 Ha       10384.40492550 eV
  | Electrostatic energy          :        -717.80526153 Ha      -19532.47496770 eV
  | Energy correction for multipole
  | error in Hartree potential    :          -0.00804982 Ha          -0.21904684 eV
  | Sum of eigenvalues per atom                           :        -377.20926352 eV
  | Total energy (T->0) per atom                          :        -694.35470691 eV  <-- do not rely on this value for anything but (periodic) metals
  | Electronic free energy per atom                       :        -694.35470691 eV

  Self-consistency convergence accuracy:
  | Change of charge density      : 0.1088E-01
  | Change of sum of eigenvalues  : -.3667E+01 eV
  | Change of total energy        : 0.3101E-02 eV

  End self-consistency iteration #     7       :  max(cpu_time)    wall_clock(cpu1)
  | Time for this iteration                    :        1.958 s           1.957 s
  | Charge density update                      :        0.636 s           0.635 s
  | Density mixing                             :        0.012 s           0.012 s
  | Hartree multipole update                   :        0.005 s           0.005 s
  | Hartree multipole summation                :        0.323 s           0.322 s
  | Integration                                :        0.927 s           0.927 s
  | Solution of K.-S. eqns.                    :        0.054 s           0.055 s
  | Total energy evaluation                    :        0.001 s           0.000 s
------------------------------------------------------------

------------------------------------------------------------
          Begin self-consistency iteration #    8

  Date     :  20150727, Time     :  122715.214
------------------------------------------------------------
  Evaluating new KS density.
  Integration grid: deviation in total charge (<rho> - N_e) =   2.131628E-14
  Pulay mixing of updated and previous charge densities.

  Evaluating partitioned Hartree potential by multipole expansion.
  | Analytical far-field extrapolation by fixed multipoles:
  | Hartree multipole sum: apparent total charge =  -0.544668E-05
  Summing up the Hartree potential.
  Time summed over all CPUs for potential: real work        2.566 s, elapsed        2.575 s
  | RMS charge density error from multipole expansion :   0.176482E-01

  Integrating Hamiltonian matrix: batch-based integration.
  Time summed over all CPUs for integration: real work        7.217 s, elapsed        7.406 s

  Updating Kohn-Sham eigenvalues, eigenvectors, occupation numbers, and Fermi level.
  Solving generalized eigenproblem
  Updating Kohn-Sham eigenvalues and eigenfunctions.
  Solving real generalised eigenvalue problem by standard LAPACK (fast)
  Determining occupation numbers for Kohn-Sham eigenstates.
  | Chemical potential (Fermi level) in eV                 : -.28961434E+01
  | Error in electron count due to remaining E_F inaccuracy: 0.00000000E+00
  | Maximum occupation number of highest empty state:  0.00E+00

  Highest occupied state (VBM) at     -5.07293031 eV
  | Occupation number:      2.00000000

  Lowest unoccupied state (CBM) at    -2.13694006 eV
  | Occupation number:      0.00000000

  Overall HOMO-LUMO gap:      2.93599026 eV.

  Total energy components:
  | Sum of eigenvalues            :        -207.92557741 Ha       -5657.94283419 eV
  | XC energy correction          :         -46.57170146 Ha       -1267.28047518 eV
  | XC potential correction       :          59.53373354 Ha        1619.99531420 eV
  | Free-atom electrostatic energy:        -178.96698543 Ha       -4869.93945348 eV
  | Hartree energy correction     :          -8.82546583 Ha        -240.15314401 eV
  | van der Waals energy corr.    :           0.00000000 Ha           0.00000000 eV
  | Entropy correction            :           0.00000000 Ha           0.00000000 eV
  | ---------------------------
  | Total energy                  :        -382.75599658 Ha      -10415.32059266 eV
  | Total energy, T -> 0          :        -382.75599658 Ha      -10415.32059266 eV  <-- do not rely on this value for anything but (periodic) metals
  | Electronic free energy        :        -382.75599658 Ha      -10415.32059266 eV

  Derived energy quantities:
  | Kinetic energy                :         381.62367087 Ha       10384.50844241 eV
  | Electrostatic energy          :        -717.80796600 Ha      -19532.54855989 eV
  | Energy correction for multipole
  | error in Hartree potential    :          -0.00807754 Ha          -0.21980094 eV
  | Sum of eigenvalues per atom                           :        -377.19618895 eV
  | Total energy (T->0) per atom                          :        -694.35470618 eV  <-- do not rely on this value for anything but (periodic) metals
  | Electronic free energy per atom                       :        -694.35470618 eV

  Self-consistency convergence accuracy:
  | Change of charge density      : 0.1880E-02
  | Change of sum of eigenvalues  : 0.1961E+00 eV
  | Change of total energy        : 0.1100E-04 eV

  End self-consistency iteration #     8       :  max(cpu_time)    wall_clock(cpu1)
  | Time for this iteration                    :        1.959 s           1.959 s
  | Charge density update                      :        0.635 s           0.636 s
  | Density mixing                             :        0.014 s           0.014 s
  | Hartree multipole update                   :        0.005 s           0.004 s
  | Hartree multipole summation                :        0.323 s           0.323 s
  | Integration                                :        0.927 s           0.927 s
  | Solution of K.-S. eqns.                    :        0.054 s           0.054 s
  | Total energy evaluation                    :        0.001 s           0.000 s
------------------------------------------------------------

------------------------------------------------------------
          Begin self-consistency iteration #    9

  Date     :  20150727, Time     :  122717.173
------------------------------------------------------------
  Evaluating new KS density.
  Integration grid: deviation in total charge (<rho> - N_e) =   2.131628E-14
  Pulay mixing of updated and previous charge densities.

  Evaluating partitioned Hartree potential by multipole expansion.
  | Analytical far-field extrapolation by fixed multipoles:
  | Hartree multipole sum: apparent total charge =  -0.544209E-05
  Summing up the Hartree potential.
  Time summed over all CPUs for potential: real work        2.566 s, elapsed        2.575 s
  | RMS charge density error from multipole expansion :   0.176470E-01

  Integrating Hamiltonian matrix: batch-based integration.
  Time summed over all CPUs for integration: real work        7.225 s, elapsed        7.407 s

  Updating Kohn-Sham eigenvalues, eigenvectors, occupation numbers, and Fermi level.
  Solving generalized eigenproblem
  Updating Kohn-Sham eigenvalues and eigenfunctions.
  Solving real generalised eigenvalue problem by standard LAPACK (fast)
  Determining occupation numbers for Kohn-Sham eigenstates.
  | Chemical potential (Fermi level) in eV                 : -.28965870E+01
  | Error in electron count due to remaining E_F inaccuracy: 0.00000000E+00
  | Maximum occupation number of highest empty state:  0.00E+00

  Highest occupied state (VBM) at     -5.07709831 eV
  | Occupation number:      2.00000000

  Lowest unoccupied state (CBM) at    -2.13721944 eV
  | Occupation number:      0.00000000

  Overall HOMO-LUMO gap:      2.93987887 eV.

  Total energy components:
  | Sum of eigenvalues            :        -207.92672861 Ha       -5657.97416007 eV
  | XC energy correction          :         -46.57155817 Ha       -1267.27657610 eV
  | XC potential correction       :          59.53353532 Ha        1619.98992035 eV
  | Free-atom electrostatic energy:        -178.96698543 Ha       -4869.93945348 eV
  | Hartree energy correction     :          -8.82425903 Ha        -240.12030542 eV
  | van der Waals energy corr.    :           0.00000000 Ha           0.00000000 eV
  | Entropy correction            :           0.00000000 Ha           0.00000000 eV
  | ---------------------------
  | Total energy                  :        -382.75599592 Ha      -10415.32057471 eV
  | Total energy, T -> 0          :        -382.75599592 Ha      -10415.32057471 eV  <-- do not rely on this value for anything but (periodic) metals
  | Electronic free energy        :        -382.75599592 Ha      -10415.32057471 eV

  Derived energy quantities:
  | Kinetic energy                :         381.62671465 Ha       10384.59126776 eV
  | Electrostatic energy          :        -717.81115240 Ha      -19532.63526637 eV
  | Energy correction for multipole
[...]
   ----------------------------------------------------------------
   Total forces(   4)            : 0.318602E-01 0.524217E+00 0.217397E+01
  atom #    5
   Hellmann-Feynman + Multipole  : -.319292E+00 -.371346E+00 -.133317E+00
   Pulay + GGA                   : 0.400374E-01 0.827281E-01 0.395129E-03
   Van der Waals               : -.231274E-02 -.119034E-02 0.161495E-03
   ----------------------------------------------------------------
   Total forces(   5)            : -.281567E+00 -.289808E+00 -.132761E+00
  atom #    6
   Hellmann-Feynman + Multipole  : -.286777E+00 0.286511E+00 -.227187E+01
   Pulay + GGA                   : -.327145E-01 0.395728E-01 -.118662E+00
   Van der Waals               : 0.216812E-02 0.233269E-02 0.339559E-02
   ----------------------------------------------------------------
   Total forces(   6)            : -.317324E+00 0.328417E+00 -.238713E+01
  atom #    7
   Hellmann-Feynman + Multipole  : 0.557815E+01 -.797524E+01 -.101918E+02
   Pulay + GGA                   : -.601501E+01 0.882131E+01 0.122111E+02
   Van der Waals               : 0.114098E-02 -.744125E-03 -.801890E-02
   ----------------------------------------------------------------
   Total forces(   7)            : -.435720E+00 0.845327E+00 0.201133E+01
  atom #    8
   Hellmann-Feynman + Multipole  : -.368658E+00 0.204359E+00 -.238038E+01
   Pulay + GGA                   : 0.184558E-01 0.200725E-01 0.135081E+00
   Van der Waals               : -.119343E-02 0.158232E-02 -.250670E-02
   ----------------------------------------------------------------
   Total forces(   8)            : -.351395E+00 0.226014E+00 -.224780E+01
  atom #    9
   Hellmann-Feynman + Multipole  : 0.129633E+01 -.151966E+01 0.458465E+00
   Pulay + GGA                   : -.414221E-01 0.769400E-01 0.507585E-02
   Van der Waals               : 0.163324E-02 -.202638E-03 -.553511E-02
   ----------------------------------------------------------------
   Total forces(   9)            : 0.125654E+01 -.144293E+01 0.458006E+00
  atom #   10
   Hellmann-Feynman + Multipole  : -.114855E+02 -.335042E+01 0.462648E+00
   Pulay + GGA                   : 0.128330E+02 0.493792E+01 -.112190E+01
   Van der Waals               : 0.176414E-02 -.530655E-02 0.203414E-02
   ----------------------------------------------------------------
   Total forces(  10)            : 0.134917E+01 0.158219E+01 -.657213E+00
  atom #   11
   Hellmann-Feynman + Multipole  : -.487152E+00 -.972171E-01 0.372006E-01
   Pulay + GGA                   : 0.116406E+00 -.463089E-01 0.221521E-01
   Van der Waals               : -.200109E-02 -.624463E-02 0.147607E-02
   ----------------------------------------------------------------
   Total forces(  11)            : -.372747E+00 -.149771E+00 0.608289E-01
  atom #   12
   Hellmann-Feynman + Multipole  : -.763835E+00 -.140555E+01 0.684781E+00
   Pulay + GGA                   : 0.394069E-01 0.955803E-01 -.604101E-01
   Van der Waals               : 0.449274E-03 -.605893E-03 -.476771E-03
   ----------------------------------------------------------------
   Total forces(  12)            : -.723979E+00 -.131057E+01 0.623894E+00
  atom #   13
   Hellmann-Feynman + Multipole  : -.152757E+01 -.130033E+02 -.223077E+00
   Pulay + GGA                   : 0.210428E+01 0.136807E+02 -.141815E+01
   Van der Waals               : -.109642E-02 -.175815E-02 -.401949E-02
   ----------------------------------------------------------------
   Total forces(  13)            : 0.575607E+00 0.675640E+00 -.164524E+01
  atom #   14
   Hellmann-Feynman + Multipole  : -.291137E+00 0.433429E+00 0.346498E+00
   Pulay + GGA                   : -.768923E-01 0.904118E-01 0.688935E-01
   Van der Waals               : 0.374796E-02 -.197927E-02 -.287365E-02
   ----------------------------------------------------------------
   Total forces(  14)            : -.364281E+00 0.521861E+00 0.412518E+00
  atom #   15
   Hellmann-Feynman + Multipole  : -.803322E+00 -.847990E+00 0.120171E+01
   Pulay + GGA                   : 0.243571E-01 0.733992E-01 -.684260E-01
   Van der Waals               : -.442129E-02 -.235588E-04 0.810903E-03
   ----------------------------------------------------------------
   Total forces(  15)            : -.783386E+00 -.774615E+00 0.113409E+01
  Timings for vdw_correction_hirshfeld (Tkatchenko-Scheffler 2009):
  | CPU time:        5.304 s, Wall clock time:        5.305 s.
  Removing unitary transformations (pure translations, rotations) from forces on atoms.
  Atomic forces before filtering:
  | Net force on center of mass :  0.132491E-01 0.216478E-02 0.664268E-02 eV/A
  | Net torque on center of mass:  -.333216E-01 -.199265E-02 -.178224E-03 eV
  Atomic forces after filtering:
  | Net force on center of mass :  0.713624E-15 -.713624E-15 0.178406E-15 eV/A
  | Net torque on center of mass:  0.236021E-14 0.254903E-14 -.566451E-15 eV
 
  Energy and forces in a compact form:
  | Total energy uncorrected      :         -0.104153876417084E+05 eV
  | Total energy corrected        :         -0.104153876417084E+05 eV  <-- do not rely on this value for anything but (periodic) metals
  | Electronic free energy        :         -0.104153876417084E+05 eV
  Total atomic forces (unitary forces cleaned) [eV/Ang]:
  |   1          0.813478825231645E+00          0.250346649900179E+01         -0.894607112726498E+00
  |   2          0.169479739107915E+01         -0.273801784843714E+01          0.118140480908294E+01
  |   3         -0.208043022676587E+01         -0.498116709554776E+00         -0.885791489885470E-01
  |   4          0.309834016736564E-01          0.524855765428633E+00          0.217330972909206E+01
  |   5         -0.282446705951240E+00         -0.289302795263639E+00         -0.133112840648919E+00
  |   6         -0.318198256815551E+00          0.329400349617366E+00         -0.238773728175124E+01
  |   7         -0.436607617076473E+00          0.844252288611294E+00          0.201061704705386E+01
  |   8         -0.352285867392625E+00          0.224553590376951E+00         -0.224854422260980E+01
  |   9          0.125564773759637E+01         -0.144394781595119E+01          0.457564275113729E+00
  |  10          0.134828895232303E+01          0.158228923020614E+01         -0.657080958700691E+00
  |  11         -0.373632150830162E+00         -0.149795884513548E+00          0.608184523055192E-01
  |  12         -0.724864561759428E+00         -0.131031421340584E+01          0.624354037160517E+00
  |  13          0.574716953047431E+00          0.674865990167572E+00         -0.164531458799712E+01
  |  14         -0.365173243924666E+00          0.520906271028022E+00          0.412706099237895E+00
  |  15         -0.784274630435267E+00         -0.775094717311640E+00          0.113420170437628E+01
 
  ------------------------------------ 
  Start decomposition of the XC Energy 
  ------------------------------------ 
  Hartree-Fock part   :          0.000000000 Ha              0.000000000 eV
  ------------------------------------ 
  X Energy            :        -44.933729412 Ha          -1222.708988040 eV
  C Energy GGA        :         -1.637712686 Ha            -44.564429586 eV
  Total XC Energy     :        -46.571442097 Ha          -1267.273417626 eV
  LDA X and C from self-consistent density 
  X Energy LDA        :        -40.497839071 Ha          -1102.002270367 eV
  C Energy LDA        :         -3.299331440 Ha            -89.779376404 eV
  ------------------------------------ 
  End decomposition of the XC Energy 
  ------------------------------------ 
  Performing Hirshfeld analysis of fragment charges and moments.
  ----------------------------------------------------------------------
  | Atom     1: O
  |   Hirshfeld charge        :     -0.36975199
  |   Free atom volume        :     23.95238533
  |   Hirshfeld volume        :     24.20944184
  |   Hirshfeld dipole vector :      0.01973310       0.06551281      -0.00722061
  |   Hirshfeld dipole moment :      0.06880015
  |   Hirshfeld second moments:      0.01981918      -0.01752799       0.02486225
  |                                 -0.01752799      -0.06407850      -0.02179321
  |                                  0.02486225      -0.02179321      -0.10646960
  ----------------------------------------------------------------------
  | Atom     2: H
  |   Hirshfeld charge        :      0.06833180
  |   Free atom volume        :     10.44207651
  |   Hirshfeld volume        :      8.44488221
  |   Hirshfeld dipole vector :     -0.02332332       0.03658642      -0.01369610
  |   Hirshfeld dipole moment :      0.04549865
  |   Hirshfeld second moments:      0.07392039       0.03070777      -0.00072425
  |                                  0.03070777       0.02554281       0.01383532
  |                                 -0.00072425       0.01383532       0.05954141
  ----------------------------------------------------------------------
  | Atom     3: H
  |   Hirshfeld charge        :      0.09674888
  |   Free atom volume        :     10.44207651
  |   Hirshfeld volume        :      7.60342611
  |   Hirshfeld dipole vector :      0.11615234       0.02933637       0.01028428
  |   Hirshfeld dipole moment :      0.12024040
  |   Hirshfeld second moments:      0.09235011      -0.01228333       0.00561203
  |                                 -0.01228333       0.08666159      -0.01120699
  |                                  0.00561203      -0.01120699       0.06361384
  ----------------------------------------------------------------------
  | Atom     4: O
  |   Hirshfeld charge        :     -0.19497614
  |   Free atom volume        :     23.95238533
  |   Hirshfeld volume        :     20.31606035
  |   Hirshfeld dipole vector :      0.02615594      -0.01133794      -0.01312488
  |   Hirshfeld dipole moment :      0.03138383
  |   Hirshfeld second moments:      0.03988065       0.01173800       0.02570022
  |                                  0.01173800       0.08001020       0.00546482
  |                                  0.02570022       0.00546482       0.10327010
  ----------------------------------------------------------------------
  | Atom     5: H
  |   Hirshfeld charge        :      0.11930954
  |   Free atom volume        :     10.44207651
  |   Hirshfeld volume        :      7.12195049
  |   Hirshfeld dipole vector :      0.02746596       0.04160298       0.01099914
  |   Hirshfeld dipole moment :      0.05105064
  |   Hirshfeld second moments:      0.08739280      -0.02139957      -0.00662751
  |                                 -0.02139957       0.07480789      -0.02666761
  |                                 -0.00662751      -0.02666761       0.10602715
  ----------------------------------------------------------------------
  | Atom     6: H
  |   Hirshfeld charge        :      0.16465085
  |   Free atom volume        :     10.44207651
  |   Hirshfeld volume        :      5.83307779
  |   Hirshfeld dipole vector :     -0.01936164       0.00907427      -0.11961786
  |   Hirshfeld dipole moment :      0.12151398
  |   Hirshfeld second moments:      0.12240946       0.00848636       0.00730995
  |                                  0.00848636       0.13663703       0.00281890
  |                                  0.00730995       0.00281890       0.12559257
  ----------------------------------------------------------------------
  | Atom     7: O
  |   Hirshfeld charge        :     -0.34531572
  |   Free atom volume        :     23.95238533
  |   Hirshfeld volume        :     23.35173270
  |   Hirshfeld dipole vector :     -0.04315784       0.02692560       0.03881479
  |   Hirshfeld dipole moment :      0.06398574
  |   Hirshfeld second moments:     -0.05060994      -0.04065269       0.02766320
  |                                 -0.04065269      -0.05159498      -0.02602917
  |                                  0.02766320      -0.02602917       0.02144270
  ----------------------------------------------------------------------
  | Atom     8: H
  |   Hirshfeld charge        :      0.11821534
  |   Free atom volume        :     10.44207651
  |   Hirshfeld volume        :      6.97690008
  |   Hirshfeld dipole vector :      0.01312952      -0.01371500       0.12234127
  |   Hirshfeld dipole moment :      0.12380578
  |   Hirshfeld second moments:      0.09621226      -0.01860778       0.00671888
  |                                 -0.01860778       0.09499748      -0.00515778
  |                                  0.00671888      -0.00515778       0.09468359
  ----------------------------------------------------------------------
  | Atom     9: H
  |   Hirshfeld charge        :      0.07038987
  |   Free atom volume        :     10.44207651
  |   Hirshfeld volume        :      8.21149558
  |   Hirshfeld dipole vector :     -0.03651260       0.03223315       0.00349578
  |   Hirshfeld dipole moment :      0.04882997
  |   Hirshfeld second moments:      0.03936050       0.01882368      -0.01591392
  |                                  0.01882368       0.04008069       0.00881336
  |                                 -0.01591392       0.00881336       0.09442098
  ----------------------------------------------------------------------
  | Atom    10: O
  |   Hirshfeld charge        :     -0.16173756
  |   Free atom volume        :     23.95238533
  |   Hirshfeld volume        :     19.43786163
  |   Hirshfeld dipole vector :      0.00209885      -0.01289803       0.00465155
  |   Hirshfeld dipole moment :      0.01387088
  |   Hirshfeld second moments:      0.09818679      -0.00501338       0.00827339
  |                                 -0.00501338       0.11204673      -0.02598109
  |                                  0.00827339      -0.02598109       0.07838064
  ----------------------------------------------------------------------
  | Atom    11: H
  |   Hirshfeld charge        :      0.18651194
  |   Free atom volume        :     10.44207651
  |   Hirshfeld volume        :      5.96760925
  |   Hirshfeld dipole vector :      0.09708552      -0.04421875       0.03263232
  |   Hirshfeld dipole moment :      0.11156059
  |   Hirshfeld second moments:      0.13283783       0.00916971      -0.00727061
  |                                  0.00916971       0.13463717       0.00308831
  |                                 -0.00727061       0.00308831       0.11800459
  ----------------------------------------------------------------------
  | Atom    12: H
  |   Hirshfeld charge        :      0.18543556
  |   Free atom volume        :     10.44207651
  |   Hirshfeld volume        :      5.19574690
  |   Hirshfeld dipole vector :      0.03440873       0.10253261      -0.05149967
  |   Hirshfeld dipole moment :      0.11978778
  |   Hirshfeld second moments:      0.15150471      -0.00791660       0.00665810
  |                                 -0.00791660       0.13692946      -0.00161514
  |                                  0.00665810      -0.00161514       0.13697692
  ----------------------------------------------------------------------
  | Atom    13: O
  |   Hirshfeld charge        :     -0.21409685
  |   Free atom volume        :     23.95238533
  |   Hirshfeld volume        :     20.65858540
  |   Hirshfeld dipole vector :      0.02164493       0.01009688       0.01496231
  |   Hirshfeld dipole moment :      0.02818370
  |   Hirshfeld second moments:      0.04489350      -0.02590321      -0.03533219
  |                                 -0.02590321       0.06200159      -0.00220886
  |                                 -0.03533219      -0.00220886       0.07553214
  ----------------------------------------------------------------------
  | Atom    14: H
  |   Hirshfeld charge        :      0.15694903
  |   Free atom volume        :     10.44207651
  |   Hirshfeld volume        :      5.83349133
  |   Hirshfeld dipole vector :     -0.05978219       0.08147328       0.06731979
  |   Hirshfeld dipole moment :      0.12142388
  |   Hirshfeld second moments:      0.12130405      -0.00103657      -0.00897846
  |                                 -0.00103657       0.12481959      -0.01119650
  |                                 -0.00897846      -0.01119650       0.13134149
  ----------------------------------------------------------------------
  | Atom    15: H
  |   Hirshfeld charge        :      0.11924443
  |   Free atom volume        :     10.44207651
  |   Hirshfeld volume        :      7.19288156
  |   Hirshfeld dipole vector :      0.02097156       0.03804756      -0.03887484
  |   Hirshfeld dipole moment :      0.05829817
  |   Hirshfeld second moments:      0.08299661      -0.01746201       0.01873828
  |                                 -0.01746201       0.11134251       0.01238092
  |                                  0.01873828       0.01238092       0.06861839
  ----------------------------------------------------------------------


------------------------------------------------------------------------------
  Final output of selected total energy values:

  The following output summarizes some interesting total energy values
  at the end of a run (AFTER all relaxation, molecular dynamics, etc.).

  | Total energy of the DFT / Hartree-Fock s.c.f. calculation      :         -10415.387641708 eV
  | Final zero-broadening corrected energy (caution - metals only) :         -10415.387641708 eV
  | For reference only, the value of 1 Hartree used in FHI-aims is :             27.211384500 eV

  Before relying on these values, please be sure to understand exactly which
  total energy value is referred to by a given number. Different objects may
  all carry the same name 'total energy'. Definitions:

  Total energy of the DFT / Hartree-Fock s.c.f. calculation:
  | Note that this energy does not include ANY quantities calculated after the
  | s.c.f. cycle, in particular not ANY RPA, MP2, etc. many-body perturbation terms.

  Final zero-broadening corrected energy:
  | For metallic systems only, a broadening of the occupation numbers at the Fermi
  | level can be extrapolated back to zero broadening by an electron-gas inspired
  | formula. For all systems that are not real metals, this value can be
  | meaningless and should be avoided.

------------------------------------------------------------------------------

------------------------------------------------------------
          Leaving FHI-aims.
          Date     :  20150727, Time     :  122734.920

          Computational steps:
          | Number of self-consistency cycles          :           15

          Detailed time accounting                     :  max(cpu_time)    wall_clock(cpu1)
          | Total time                                 :       35.883 s          35.925 s
          | Preparation time                           :        0.170 s           0.503 s
          | Grid partitioning                          :        0.129 s           0.128 s
          | Preloading free-atom quantities on grid    :        0.014 s           0.013 s
          | Free-atom superposition energy             :        0.065 s           0.065 s
          | Total time for integrations                :       15.339 s          15.335 s
          | Total time for solution of K.-S. equations :        1.007 s           1.009 s
          | Total time for density & force components  :       12.368 s          12.367 s
          | Total time for mixing                      :        0.192 s           0.192 s
          | Total time for Hartree multipole update    :        0.071 s           0.072 s
          | Total time for Hartree multipole sum       :        5.913 s           5.914 s
          | Total time for total energy evaluation     :        0.005 s           0.007 s
          | Total time for scaled ZORA corrections     :        0.000 s           0.000 s
          | Total time for TS (2009) vdW correction    :        0.051 s           0.052 s

          Have a nice day.
------------------------------------------------------------
