begin 
comment This RuNNer input has been created automatically by fhiaims2runner 
comment relativistic  atomic zora scalar 
atom    -7.659119727    0.122834137   -2.882135845   O   -0.274071610    0.000000000   -0.001343364    0.074163530   -0.041086230 
atom    -8.629834630    1.842130327   -3.614707366   H    0.139988400    0.000000000    0.044371940   -0.066821744    0.028395470 
atom    -5.797341910    0.623934903   -2.791712414   H    0.133369700    0.000000000   -0.039693786   -0.005257538   -0.003920224 
atom    -8.658275020   -0.484592112    1.775356828   O   -0.283014630    0.000000000   -0.008038179   -0.026623830   -0.008420657 
atom    -8.220047357    0.890231435    2.842791731   H    0.137552160    0.000000000   -0.007064756    0.009506748    0.018817401 
atom   -10.192941114   -1.373096336    2.320716887   H    0.146172060    0.000000000    0.011768144    0.015032834    0.006214240 
energy   -153.07585960 
charge      0.00000000 
end 
