  MPI-parallelism will be employed.
------------------------------------------------------------
          Invoking FHI-aims ...
          Version 081213
          Compiled on 2013/08/29 at 17:41:06 on host generoso.

          When using FHI-aims, please cite the following reference:

          Volker Blum, Ralf Gehrke, Felix Hanke, Paula Havu,
          Ville Havu, Xinguo Ren, Karsten Reuter, and Matthias Scheffler,
          'Ab Initio Molecular Simulations with Numeric Atom-Centered Orbitals: FHI-aims',
          Computer Physics Communications 180, 2175-2196 (2009)

          For any questions about FHI-aims, please visit the aimsclub website
          with its forums and wiki. Contributions to both the forums and the
          wiki are warmly encouraged - they are for you, and everyone is welcome there.

------------------------------------------------------------

  Date     :  20150727, Time     :  123452.433
  Time zero on CPU 1             :   0.479910000000000E-01  s.
  Internal wall clock time zero  :           207232492.433  s.

  Using        8 parallel tasks.
  Task        0 on host gen60 reporting.
  Task        1 on host gen60 reporting.
  Task        2 on host gen60 reporting.
  Task        3 on host gen60 reporting.
  Task        4 on host gen60 reporting.
  Task        5 on host gen60 reporting.
  Task        6 on host gen60 reporting.
  Task        7 on host gen60 reporting.

  Performing system and environment tests:
  | Environment variable OMP_NUM_THREADS correctly set to 1.
  | Checking for scalapack...
  | No scalapack compiled in.

  Obtaining array dimensions for all initial allocations:
  
  -----------------------------------------------------------------------
  Parsing control.in (first pass over file, find array dimensions only).
  The contents of control.in will be repeated verbatim below
  unless switched off by setting 'verbatim_writeout .false.' .
  in the first line of control.in .
  -----------------------------------------------------------------------
  
  #########################################################################################
  #
  #  Volker Blum, FHI 2008 : Test run input file control.in
  #
  #########################################################################################
  #
  #  Physical model
  #
    xc                 rpbe
    spin               none
    relativistic       atomic_zora scalar
    charge             0.
   vdw_correction_hirshfeld
  #
  #  SCF convergence
  #
    occupation_type    gaussian 0.01
    mixer              pulay
      n_max_pulay        10
      charge_mix_param   0.1
    sc_accuracy_rho    5E-5
    sc_accuracy_eev    5E-3
    sc_accuracy_etot   5E-6
    sc_iter_limit      3000
  #
  #  Eigenvalue solver
  #
    KS_method          lapack
      empty_states       8
      basis_threshold    0.e-5
  #
  #  Efficiency
  #
  #   all previous settings are now default, except stratmann still
  #   undecided. Continue to handle stratmann with care, if at all.
  #
  #  partition_type stratmann
    partition_type rho_r2
  #  hartree_partition_type stratmann
  #
  #  Oprions for large clusters (100's of atoms: memory saving / better scaling)
  #
  # for periodic systems:
  #
    density_update_method orbital
    packed_matrix_format none
  #  k_grid 6 6 6
  #  output k_eigenvalue 1
  #  distributed_spline_storage .true.
  #
  #  Relaxation
  #
  #  relax_geometry   bfgs 5.e-3
    sc_accuracy_forces 5.E-4
    final_forces_cleaned .true.
  #
  #  Output options
  #
  #  output mulliken
    output Hirshfeld
  #  output dipole
  
  #harmonic_length_scale 0.001
  
  ################################################################################
  #
  #  FHI-aims code project
  #  VB, Fritz-Haber Institut, 2007
  #
  #  Suggested "safe" defaults for H atom (to be pasted into control.in file)
  #  Basis constructed for a non-relativistic H2 molecule using the
  #  PW-LDA functional.
  #
  ################################################################################
    species        H
  #     global species definitions
      nucleus             1
      cut_pot             4.0  2.0  1.0
      cut_free_atom       finite 8.0
      logarithmic         0.00010000 100.00  1.0123
      basis_dep_cutoff    1d-4  # 1d-4 is safe default - please check 5d-4 if you wish!
      radial_base         24 7.0
      radial_multiplier   2
      angular_grids       specified
        division   0.2783  110
        division   0.3822  194
        division   0.5626  302
  #      division   0.5922  434
  #      division   0.6227  590
  #      division   0.7206  770
        outer_grid  302
      l_hartree           4
  ################################################################################
  #
  #  Definition of "minimal" basis
  #
  ################################################################################
  #     valence basis states
      valence      1  s   1.
  #     ion occupancy
      ion_occ      1  s   0.5
  ################################################################################
  #
  #  Suggested additional basis functions. For production calculations,
  #  uncomment them one after another (the most important basis functions are
  #  listed first).
  #
  ################################################################################
  #  "First tier" - improvements: -1014.90 meV to -62.69 meV
       hydro 2 s 2.1
       hydro 2 p 3.5
  #  "Second tier" - improvements: -12.89 meV to -1.83 meV
       hydro 1 s 0.85
       hydro 2 p 3.7
       hydro 2 s 1.2
       hydro 3 d 7
  #  "Third tier" - improvements: -0.25 meV to -0.12 meV
  #     hydro 4 f 11.2
  #     hydro 3 p 4.8
  #     hydro 4 d 9
  #     hydro 3 s 3.2
  
  ################################################################################
  #
  #  FHI-aims code project
  #  VB, Fritz-Haber Institut, 2007
  #
  #  Suggested "safe" defaults for O atom (to be pasted into control.in file)
  #  All values have been tested for a non-relativistic, non-spinpolarized O2
  #  molecule using the PW-LDA functional. Validity for PBE is expected.
  #
  #  Constructed for dimers: 1.0 A, 1.208 A, 1.5 A, 2.0 A, 3.0 A
  #
  ################################################################################
    species        O
  #     global species definitions
      nucleus             8
      mass                15.9994
      l_hartree           4
      cut_pot             4.0  2.0  1.0
      cut_free_atom       finite 8.0
      basis_dep_cutoff    1d-4  # 1d-4 is safe default - please check 5d-4 if you wish!
      logarithmic         0.00010000 100.00  1.0123
      radial_base         36 7.0
      radial_multiplier   2
       angular_grids specified
        division   0.4087  110
        division   0.5181  194
        division   0.6184  302
  #      division   0.7315  434
  #      division   0.7934  590
  #      division   0.9656  770
  #      division   1.4041  974
  #      outer_grid 974
        outer_grid 302
  ################################################################################
  #
  #  Definition of "minimal" basis
  #
  ################################################################################
  #     valence basis states
      valence      2  s   2.
      valence      2  p   4.
  #     ion occupancy
      ion_occ      2  s   1.
      ion_occ      2  p   3.
  ################################################################################
  #
  #  Suggested additional basis functions. For production calculations,
  #  uncomment them one after another (the most important basis functions are
  #  listed first).
  #
  ################################################################################
  #  "First tier" - improvements: -699.05 meV to -159.38 meV
       hydro 2 p 1.8
       hydro 3 d 7.6
       hydro 3 s 6.4
  #  "Second tier" - improvements: -49.91 meV to -5.39 meV
       hydro 4 f 11.6
       hydro 3 p 6.2
       hydro 3 d 5.6
       hydro 5 g 17.6
       hydro 1 s 0.75
  #  "Third tier" - improvements: -2.83 meV to -0.50 meV
  #     ionic 2 p auto
  #     hydro 4 f 10.8
  #     hydro 4 d 4.7
  #     hydro 2 s 6.8
  #  "Fourth tier" - improvements: -0.40 meV to -0.12 meV
  #     hydro 3 p 5
  #     hydro 3 s 3.3
  #     hydro 5 g 15.6
  #     hydro 4 f 17.6
  #     hydro 4 d 14
  # Further basis functions - -0.08 meV and below
  #     hydro 3 s 2.1
  #     hydro 4 d 11.6
  #     hydro 3 p 16
  #     hydro 2 s 17.2
  
  
  -----------------------------------------------------------------------
  Completed first pass over input file control.in .
  -----------------------------------------------------------------------
  
  
  -----------------------------------------------------------------------
  Parsing geometry.in (first pass over file, find array dimensions only).
  The contents of geometry.in will be repeated verbatim below
  unless switched off by setting 'verbatim_writeout .false.' .
  in the first line of geometry.in .
  -----------------------------------------------------------------------
  
  atom      -4.053030000      0.065001000     -1.525160000  O
  atom      -4.566710000      0.974813000     -1.912820000  H
  atom      -3.067820000      0.330172000     -1.477310000  H
  atom      -1.645860000      0.870179000     -1.502250000  O
  atom      -1.568890000      1.501730000     -0.721051000  H
  atom      -0.824432000      0.282220000     -1.377720000  H
  atom      -3.818880000      2.024990000      2.187990000  O
  atom      -3.690880000      1.961360000      3.202150000  H
  atom      -4.546490000      2.751300000      2.045370000  H
  atom      -5.628340000      3.730740000      1.385610000  O
  atom      -6.090650000      4.418470000      1.860350000  H
  atom      -5.158540000      4.200260000      0.615875000  H
  
  -----------------------------------------------------------------------
  Completed first pass over input file geometry.in .
  -----------------------------------------------------------------------
  
 
  Basic array size parameters: 
  | Number of species                 :        2
  | Number of atoms                   :       12
  | Max. basis fn. angular momentum   :        4
  | Max. atomic/ionic basis occupied n:        2
  | Max. number of basis fn. types    :        2
  | Max. radial fns per species/type  :        8
  | Max. logarithmic grid size        :     1301
  | Max. radial integration grid size :       73
  | Max. angular integration grid size:      302
  | Max. angular grid division number :        8
  | Radial grid for Hartree potential :     1301
  | Number of spin channels           :        1

------------------------------------------------------------
          Reading file control.in.
------------------------------------------------------------
  XC: Using RPBE gradient-corrected functionals.
  Spin treatment: No spin polarisation.
  Scalar relativistic treatment of kinetic energy: on-site free-atom approximation to ZORA.
  Charge =   0.000000E+00: Neutral system requested explicitly.
  Using non-empirical van der Waals correction (Hirshfeld partitioning):
  Occupation type: Gaussian broadening, width =   0.100000E-01 eV.
  Using pulay charge density mixing.
  Pulay mixing - number of memorized iterations:   10
  Charge density mixing - mixing parameter:     0.1000
  Convergence accuracy of self-consistent charge density: 0.5000E-04
  Convergence accuracy of sum of eigenvalues: 0.5000E-02
  Convergence accuracy of total energy: 0.5000E-05
  Maximum number of s.-c. iterations  :  3000
  Kohn-Sham eigenvalues and eigenfunctions calculated by lapack diagonalisation (D&C).
  Number of empty states per atom:        8
  Threshold for basis singularities: 0.0000E+00
  Partition function in integrals calculations: rho / r^2
 Using packed matrix format           0
  Convergence accuracy of forces: 0.5000E-03
  Cleaning forces before final output.
  Hirshfeld charge analysis will be performed.
 
  Reading configuration options for species H                   .
  | Found nuclear charge :   1.0000
  | Found cutoff potl. onset [A], width [A], scale factor :    4.00000    2.00000    1.00000
  | Found cutoff specification for free atom: Cutoff potential begins at    8.00000 A.
  | Found logarithmic grid data [bohr] : 0.1000E-03 0.1000E+03 0.1012E+01
  | Threshold for basis-dependent cutoff potential is   0.100000E-03
  | Found data for basic radial integration grid :    24 points, outermost radius =    7.000 A
  | Found multiplier for basic radial grid :   2
  | Found angular grid specification: user-specified.
  | Specified grid contains     4 separate shells.
  | Check grid settings after all constraints further below.
  | Found l_max for Hartree potential  :   4
  | Found free-atom valence shell :  1 s   1.000
  | No ionic wave fns used. Skipping ion_occ.
  | Found hydrogenic basis function :  2 s   2.100
  | Found hydrogenic basis function :  2 p   3.500
  | Found hydrogenic basis function :  1 s   0.850
  | Found hydrogenic basis function :  2 p   3.700
  | Found hydrogenic basis function :  2 s   1.200
  | Found hydrogenic basis function :  3 d   7.000
  Species H                   : Missing cutoff potential type.
  Defaulting to exp(1/x)/(1-x)^2 type cutoff potential.
  Species H : On-site basis accuracy parameter (for Gram-Schmidt orthonormalisation) not specified.
  Using default value basis_acc =  0.1000000E-03.
  Species H                   : Using default innermost maximum threshold i_radial=  2 for radial functions.
  Species H                   : Basic radial grid will be enhanced according to radial_multiplier =   2, to contain    49 grid points.
 
  Reading configuration options for species O                   .
  | Found nuclear charge :   8.0000
  | Found atomic mass :    15.9994000000000      amu
  | Found l_max for Hartree potential  :   4
  | Found cutoff potl. onset [A], width [A], scale factor :    4.00000    2.00000    1.00000
  | Found cutoff specification for free atom: Cutoff potential begins at    8.00000 A.
  | Threshold for basis-dependent cutoff potential is   0.100000E-03
  | Found logarithmic grid data [bohr] : 0.1000E-03 0.1000E+03 0.1012E+01
  | Found data for basic radial integration grid :    36 points, outermost radius =    7.000 A
  | Found multiplier for basic radial grid :   2
  | Found angular grid specification: user-specified.
  | Specified grid contains     4 separate shells.
  | Check grid settings after all constraints further below.
  | Found free-atom valence shell :  2 s   2.000
  | Found free-atom valence shell :  2 p   4.000
  | No ionic wave fns used. Skipping ion_occ.
  | No ionic wave fns used. Skipping ion_occ.
  | Found hydrogenic basis function :  2 p   1.800
  | Found hydrogenic basis function :  3 d   7.600
  | Found hydrogenic basis function :  3 s   6.400
  | Found hydrogenic basis function :  4 f  11.600
  | Found hydrogenic basis function :  3 p   6.200
  | Found hydrogenic basis function :  3 d   5.600
  | Found hydrogenic basis function :  5 g  17.600
  | Found hydrogenic basis function :  1 s   0.750
  Species O                   : Missing cutoff potential type.
  Defaulting to exp(1/x)/(1-x)^2 type cutoff potential.
  Species O : On-site basis accuracy parameter (for Gram-Schmidt orthonormalisation) not specified.
  Using default value basis_acc =  0.1000000E-03.
  Species O                   : Using default innermost maximum threshold i_radial=  2 for radial functions.
  Species O                   : Basic radial grid will be enhanced according to radial_multiplier =   2, to contain    73 grid points.
 
  Finished reading input file 'control.in'. Consistency checks are next.
 
  Target number of points in a grid batch is not set. Defaulting to  100
  Method for grid partitioning is not set. Defaulting to parallel hash+maxmin partitioning.
  Batch size limit is not set. Defaulting to    200
  By default, will store active basis functions for each batch.
  If in need of memory, prune_basis_once .false. can be used to disable this option.
  communication_type for Hartree potential was not specified.
  Defaulting to calc_hartree .
  Pulay mixer: Number of initial linear mixing iterations not set.
  Defaulting to    0 iterations.
  Work space size for distributed Hartree potential not set.
  Defaulting to   0.200000E+03 MB.
  Algorithm-dependent basis array size parameters:
  | n_max_pulay                         :       10
  Geometry relaxation not requested: no relaxation will be performed.
  Handling of forces: Unphysical translation and rotation will be removed from forces.
  No accuracy limit for integral partition fn. given. Defaulting to 0.1000E-14.
  No threshold value for u(r) in integrations given. Defaulting to 0.1000E-05.
  No accuracy for occupation numbers given. Defaulting to 0.1000E-07.
  No threshold value for occupation numbers given. Defaulting to 0.0000E+00.
  No accuracy for fermi level given. Defaulting to 0.1000E-19.
  Maximum # of iterations to find E_F not set. Defaulting to  200.
  Will not use alltoall communication since running on < 1024 CPUs.
  Partitioning for Hartree potential was not defined. Using partition_type for integrals.
  | Reporting present value of keyword multip_moments_threshold  :       0.10000000E-09
  | This value may affect high angular momentum components of the Hartree potential in periodic systems.
  No q(lm)/r^(l+1) cutoff set for long-range Hartree potential.
  | Using default value of  0.100000E-09 .
  | Verify using the multipole_threshold keyword.
  Defaulting to new monopole extrapolation.
  Density update method: Loop over occupied states selected for charge density update.
------------------------------------------------------------


------------------------------------------------------------
          Reading geometry description geometry.in.
------------------------------------------------------------
  Input structure read successfully.
  The structure contains       12 atoms,  and a total of         40.000 electrons.

  Input geometry:
  | No unit cell requested.
  | Atomic structure:
  |       Atom                x [A]            y [A]            z [A]
  |    1: Species O             -4.053030         0.065001        -1.525160
  |    2: Species H             -4.566710         0.974813        -1.912820
  |    3: Species H             -3.067820         0.330172        -1.477310
  |    4: Species O             -1.645860         0.870179        -1.502250
  |    5: Species H             -1.568890         1.501730        -0.721051
  |    6: Species H             -0.824432         0.282220        -1.377720
  |    7: Species O             -3.818880         2.024990         2.187990
  |    8: Species H             -3.690880         1.961360         3.202150
  |    9: Species H             -4.546490         2.751300         2.045370
  |   10: Species O             -5.628340         3.730740         1.385610
  |   11: Species H             -6.090650         4.418470         1.860350
  |   12: Species H             -5.158540         4.200260         0.615875
  |

  | The smallest distance between any two atoms is         0.95502940 AA.
  |
  | The first atom of this pair is atom number                     10 .
  | The second atom of this pair is atom number                    11 .

  Structure-dependent array size parameters: 
  | Maximum number of distinct radial functions  :       18
  | Maximum number of basis functions            :      276
  | Number of Kohn-Sham states (occupied + empty):       68
------------------------------------------------------------

------------------------------------------------------------
          Preparing all fixed parts of the calculation.
------------------------------------------------------------
  Determining machine precision:
    2.225073858507201E-308
  Setting up grids for atomic and cluster calculations.

  Creating wave function, potential, and density for free atoms.

  Species: H

  List of occupied orbitals and eigenvalues:
    n    l              occ      energy [Ha]    energy [eV]
    1    0           1.0000        -0.241408        -6.5691


  Species: O

  List of occupied orbitals and eigenvalues:
    n    l              occ      energy [Ha]    energy [eV]
    1    0           2.0000       -18.944147      -515.4965
    2    0           2.0000        -0.883529       -24.0421
    2    1           4.0000        -0.330176        -8.9845

  Creating fixed part of basis set: Ionic, confined, hydrogenic.
 
  H                    hydrogenic:
 
  List of hydrogenic basis orbitals: 
    n    l      effective z      eigenvalue [eV]  inner max. [A]     outer max. [A]     outer radius [A]   
    2    0         2.100000       -14.9965           0.193241           1.317192           5.372934
    2    1         3.500000       -41.6672           0.602363           0.602363           4.056010
    1    0         0.850000        -9.8292           0.624864           0.624864           5.372934
    2    1         3.700000       -46.5653           0.573616           0.573616           3.909951
    2    0         1.200000        -4.5995           0.334977           2.228160           5.505921
    3    2         7.000000       -74.0753           0.680692           0.680692           3.769152
 
 
  O                    hydrogenic:
 
  List of hydrogenic basis orbitals: 
    n    l      effective z      eigenvalue [eV]  inner max. [A]     outer max. [A]     outer radius [A]   
    2    1         1.800000       -11.0118           1.178546           1.178546           5.432516
    3    2         7.600000       -87.3182           0.624117           0.624117           3.541422
    3    0         6.400000       -61.9209           0.061166           1.081887           4.306510
    4    3        11.600000      -114.4238           0.731621           0.731621           3.584982
    3    1         6.200000       -58.1113           0.255677           1.030255           4.306510
    3    2         5.600000       -47.4081           0.847222           0.847222           4.413102
    5    4        17.600000      -168.5799           0.749730           0.749730           3.372413
    1    0         0.750000        -7.6499           0.705275           0.705275           5.366508
 

  Adding cutoff potential to free-atom effective potential.
  Creating atomic-like basis functions for current effective potential.

  Species H                   :

  List of atomic basis orbitals and eigenvalues:
    n    l      energy [Ha]    energy [eV]    outer radius [A]
    1    0        -0.241374        -6.5681       5.372934


  Species O                   :

  List of atomic basis orbitals and eigenvalues:
    n    l      energy [Ha]    energy [eV]    outer radius [A]
    1    0       -18.944147      -515.4965       1.415745
    2    0        -0.883529       -24.0421       5.048305
    2    1        -0.330173        -8.9845       5.301302

  Assembling full basis from fixed parts.
  | Species H :   atomic orbital   1 s accepted.
  | Species H :    hydro orbital   2 s accepted.
  | Species H :    hydro orbital   1 s accepted.
  | Species H :    hydro orbital   2 s accepted.
  | Species H :    hydro orbital   2 p accepted.
  | Species H :    hydro orbital   2 p accepted.
  | Species H :    hydro orbital   3 d accepted.
  | Species O :   atomic orbital   1 s accepted.
  | Species O :    hydro orbital   3 s accepted.
  | Species O :   atomic orbital   2 s accepted.
  | Species O :    hydro orbital   1 s accepted.
  | Species O :    hydro orbital   3 p accepted.
  | Species O :   atomic orbital   2 p accepted.
  | Species O :    hydro orbital   2 p accepted.
  | Species O :    hydro orbital   3 d accepted.
  | Species O :    hydro orbital   3 d accepted.
  | Species O :    hydro orbital   4 f accepted.
  | Species O :    hydro orbital   5 g accepted.
 
  Basis size parameters after reduction:
  | Total number of radial functions:       18
  | Total number of basis functions :      276
 
  Testing on-site integration grid accuracy.
  |  Species  Function  <phi|h_atom|phi> (log., in eV)  <phi|h_atom|phi> (rad., in eV)
           1        1                 -6.5683835025                 -6.5684759159
           1        2                 13.3711789951                 13.3708738703
           1        3                 23.6590910787                 23.6532055418
           1        4                 16.2963827186                 16.1870710655 ***
           1        5                 28.7627214838                 28.7627215090
           1        6                 59.5965249172                 59.5965950857
           1        7                 60.2220506392                 60.2220503827
           2        8               -515.4964576505               -515.4964530710
           2        9                 15.3030791347                 15.3030722972
           2       10                -21.7296094581                -21.7296135470
           2       11                 14.2969371730                 14.2969701621
           2       12                 21.0679693190                 21.0679697493
           2       13                 -2.3833606469                 -2.3833613176
           2       14                 13.7067136422                 13.7066766629
           2       15                 45.8013116808                 45.8013116965
           2       16                 52.2309815402                 52.2309831494
           2       17                 85.4120732416                 85.4120732763
           2       18                142.1019167745                142.1019167817
 * Note: Onsite integrals marked "***" above are less accurate than
 * onsite_accuracy_threshold =    0.03000 eV. Usually, this is harmless.
 * When in doubt, tighten the "radial" and/or "radial_multiplier" flags to check.

  Preparing densities etc. for the partition functions (integrals / Hartree potential).

  Preparations completed.
  max(cpu_time)          :      0.170 s.
  Wall clock time (cpu1) :      0.572 s.
------------------------------------------------------------

------------------------------------------------------------
          Begin self-consistency loop: Initialization.

          Date     :  20150727, Time     :  123453.032
------------------------------------------------------------

  Initializing index lists of integration centers etc. from given atomic structure:
  | Number of centers in hartree potential         :        12
  | Number of centers in hartree multipole         :        12
  | Number of centers in electron density summation:        12
  | Number of centers in basis integrals           :        12
  | Number of centers in integrals                 :        12
  Partitioning the integration grid into batches with parallel hashing+maxmin method.
  | Number of batches:     1467
  | Maximal batch size:     191
  | Minimal batch size:      50
  | Average batch size:     107.272
  | Standard deviation of batch sizes:      33.425

  Integration load balanced across     8 MPI tasks.
  Work distribution over tasks is as follows:
  Task     0 has      19788 integration points.
  Task     1 has      19616 integration points.
  Task     2 has      19656 integration points.
  Task     3 has      19645 integration points.
  Task     4 has      19680 integration points.
  Task     5 has      19668 integration points.
  Task     6 has      19675 integration points.
  Task     7 has      19640 integration points.
  Initializing partition tables, free-atom densities, potentials, etc. across the integration grid (initialize_grid_storage).
  | Net number of integration points:   157368
  | of which are non-zero points    :   156821
  Obtaining max. number of non-zero basis functions in each batch (get_n_compute_maxes).
  | Maximal number of non-zero basis functions:      273 in task     0
  | Maximal number of non-zero basis functions:      273 in task     1
  | Maximal number of non-zero basis functions:      273 in task     2
  | Maximal number of non-zero basis functions:      273 in task     3
  | Maximal number of non-zero basis functions:      273 in task     4
  | Maximal number of non-zero basis functions:      273 in task     5
  | Maximal number of non-zero basis functions:      273 in task     6
  | Maximal number of non-zero basis functions:      273 in task     7
  Integrating Hamiltonian matrix: batch-based integration.
  Time summed over all CPUs for integration: real work        3.765 s, elapsed        3.855 s
  Integrating overlap matrix.
  Time summed over all CPUs for integration: real work        1.965 s, elapsed        2.007 s

  Updating Kohn-Sham eigenvalues, eigenvectors, occupation numbers, and Fermi level.
  Solving generalized eigenproblem
  Updating Kohn-Sham eigenvalues and eigenfunctions.
  Transforming overlap matrix and checking for singularities.
  Overlap matrix is nonsingular:
  | Lowest eigenvalue:  0.317173E-03
  Solving real generalised eigenvalue problem by standard LAPACK (fast)
  Determining occupation numbers for Kohn-Sham eigenstates.
  | Chemical potential (Fermi level) in eV                 : -.47758710E+01
  | Error in electron count due to remaining E_F inaccuracy: 0.00000000E+00
  | Maximum occupation number of highest empty state:  0.00E+00

  Writing Kohn-Sham eigenvalues.

  State    Occupation    Eigenvalue [Ha]    Eigenvalue [eV]
      1       2.00000         -19.050502         -518.39054
      2       2.00000         -19.042411         -518.17037
      3       2.00000         -19.028874         -517.80200
      4       2.00000         -19.019447         -517.54550
      5       2.00000          -1.098937          -29.90360
      6       2.00000          -1.086708          -29.57083
      7       2.00000          -1.059616          -28.83361
      8       2.00000          -1.041657          -28.34494
      9       2.00000          -0.628154          -17.09294
     10       2.00000          -0.604773          -16.45670
     11       2.00000          -0.599999          -16.32680
     12       2.00000          -0.588816          -16.02250
     13       2.00000          -0.518344          -14.10486
     14       2.00000          -0.516224          -14.04718
     15       2.00000          -0.482969          -13.14225
     16       2.00000          -0.471506          -12.83034
     17       2.00000          -0.438247          -11.92530
     18       2.00000          -0.431543          -11.74288
     19       2.00000          -0.417230          -11.35341
     20       2.00000          -0.409317          -11.13809
     21       0.00000          -0.094035           -2.55881
     22       0.00000          -0.074488           -2.02692
     23       0.00000          -0.060795           -1.65431
     24       0.00000          -0.045687           -1.24320
     25       0.00000          -0.015746           -0.42847
     26       0.00000          -0.001142           -0.03107
     27       0.00000           0.038832            1.05667
     28       0.00000           0.050869            1.38422
     29       0.00000           0.072967            1.98552
     30       0.00000           0.073720            2.00601
     31       0.00000           0.085260            2.32005
     32       0.00000           0.095392            2.59574
     33       0.00000           0.101630            2.76549
     34       0.00000           0.105798            2.87892
     35       0.00000           0.110993            3.02028
     36       0.00000           0.117153            3.18790
     37       0.00000           0.126479            3.44168
     38       0.00000           0.145004            3.94575
     39       0.00000           0.153475            4.17626
     40       0.00000           0.163843            4.45839
     41       0.00000           0.178009            4.84388
     42       0.00000           0.203887            5.54805
     43       0.00000           0.215058            5.85203
     44       0.00000           0.230757            6.27921
     45       0.00000           0.254481            6.92479
     46       0.00000           0.267683            7.28403
     47       0.00000           0.293670            7.99117
     48       0.00000           0.311810            8.48478
     49       0.00000           0.341023            9.27971
     50       0.00000           0.345904            9.41253
     51       0.00000           0.358616            9.75843
     52       0.00000           0.368366           10.02376
     53       0.00000           0.370662           10.08622
     54       0.00000           0.380611           10.35696
     55       0.00000           0.391390           10.65025
     56       0.00000           0.404721           11.01303
     57       0.00000           0.425992           11.59183
     58       0.00000           0.428717           11.66599
     59       0.00000           0.445326           12.11793
     60       0.00000           0.464353           12.63569
     61       0.00000           0.480908           13.08617
     62       0.00000           0.502984           13.68690
     63       0.00000           0.530786           14.44343
     64       0.00000           0.536776           14.60641
     65       0.00000           0.584464           15.90408
     66       0.00000           0.610950           16.62479
     67       0.00000           0.685654           18.65759
     68       0.00000           0.699612           19.03740

  Highest occupied state (VBM) at    -11.13808757 eV
  | Occupation number:      2.00000000

  Lowest unoccupied state (CBM) at    -2.55881009 eV
  | Occupation number:      0.00000000

  Overall HOMO-LUMO gap:      8.57927748 eV.
  Calculating total energy contributions from superposition of free atom densities.

  Total energy components:
  | Sum of eigenvalues            :        -173.07054975 Ha       -4709.48927484 eV
  | XC energy correction          :         -36.40650638 Ha        -990.67144337 eV
  | XC potential correction       :          46.51546022 Ha        1265.75007325 eV
  | Free-atom electrostatic energy:        -143.48637917 Ha       -3904.46303420 eV
  | Hartree energy correction     :           0.00000000 Ha           0.00000000 eV
  | van der Waals energy corr.    :           0.00000000 Ha           0.00000000 eV
  | Entropy correction            :           0.00000000 Ha           0.00000000 eV
  | ---------------------------
  | Total energy                  :        -306.44797508 Ha       -8338.87367915 eV
  | Total energy, T -> 0          :        -306.44797508 Ha       -8338.87367915 eV  <-- do not rely on this value for anything but (periodic) metals
  | Electronic free energy        :        -306.44797508 Ha       -8338.87367915 eV

  Derived energy quantities:
  | Kinetic energy                :         303.25729573 Ha        8252.05087642 eV
  | Electrostatic energy          :        -573.29876443 Ha      -15600.25311220 eV
  | Energy correction for multipole
  | error in Hartree potential    :           0.00000000 Ha           0.00000000 eV
  | Sum of eigenvalues per atom                           :        -392.45743957 eV
  | Total energy (T->0) per atom                          :        -694.90613993 eV  <-- do not rely on this value for anything but (periodic) metals
  | Electronic free energy per atom                       :        -694.90613993 eV
  Initialize hartree_potential_storage
  Max. number of atoms included in rho_multipole:           12

  End scf initialization - timings             :  max(cpu_time)    wall_clock(cpu1)
  | Time for scf. initialization               :        1.138 s           1.137 s
  | Boundary condition initialization          :        0.001 s           0.001 s
  | Integration                                :        0.735 s           0.735 s
  | Solution of K.-S. eqns.                    :        0.120 s           0.119 s
  | Grid partitioning                          :        0.134 s           0.134 s
  | Preloading free-atom quantities on grid    :        0.013 s           0.013 s
  | Free-atom superposition energy             :        0.047 s           0.046 s
  | Total energy evaluation                    :        0.000 s           0.001 s
------------------------------------------------------------

------------------------------------------------------------
          Begin self-consistency iteration #    1

  Date     :  20150727, Time     :  123454.170
------------------------------------------------------------
  Evaluating new KS density.
  Integration grid: deviation in total charge (<rho> - N_e) =   7.105427E-15
  Pulay mixing of updated and previous charge densities.

  Evaluating partitioned Hartree potential by multipole expansion.
  | Analytical far-field extrapolation by fixed multipoles:
  | Hartree multipole sum: apparent total charge =  -0.168297E-05
  Summing up the Hartree potential.
  Time summed over all CPUs for potential: real work        1.651 s, elapsed        1.654 s
  | RMS charge density error from multipole expansion :   0.137243E-02

  Integrating Hamiltonian matrix: batch-based integration.
  Time summed over all CPUs for integration: real work        3.763 s, elapsed        3.872 s

  Updating Kohn-Sham eigenvalues, eigenvectors, occupation numbers, and Fermi level.
  Solving generalized eigenproblem
  Updating Kohn-Sham eigenvalues and eigenfunctions.
  Solving real generalised eigenvalue problem by standard LAPACK (fast)
  Determining occupation numbers for Kohn-Sham eigenstates.
  | Chemical potential (Fermi level) in eV                 : -.43987685E+01
  | Error in electron count due to remaining E_F inaccuracy: 0.00000000E+00
  | Maximum occupation number of highest empty state:  0.00E+00

  Writing Kohn-Sham eigenvalues.

  State    Occupation    Eigenvalue [Ha]    Eigenvalue [eV]
      1       2.00000         -18.983629         -516.57083
      2       2.00000         -18.976993         -516.39024
      3       2.00000         -18.946005         -515.54703
      4       2.00000         -18.933655         -515.21095
      5       2.00000          -1.067598          -29.05083
      6       2.00000          -1.054556          -28.69593
      7       2.00000          -1.016295          -27.65481
      8       2.00000          -0.995150          -27.07940
      9       2.00000          -0.601121          -16.35734
     10       2.00000          -0.577706          -15.72018
     11       2.00000          -0.565545          -15.38925
     12       2.00000          -0.552543          -15.03545
     13       2.00000          -0.483729          -13.16293
     14       2.00000          -0.480551          -13.07647
     15       2.00000          -0.442718          -12.04697
     16       2.00000          -0.429598          -11.68996
     17       2.00000          -0.402962          -10.96515
     18       2.00000          -0.394293          -10.72927
     19       2.00000          -0.372218          -10.12856
     20       2.00000          -0.361013           -9.82365
     21       0.00000          -0.085725           -2.33268
     22       0.00000          -0.067651           -1.84087
     23       0.00000          -0.050005           -1.36070
     24       0.00000          -0.037055           -1.00832
     25       0.00000          -0.010211           -0.27785
     26       0.00000           0.004673            0.12715
     27       0.00000           0.049146            1.33734
     28       0.00000           0.059580            1.62126
     29       0.00000           0.082207            2.23697
     30       0.00000           0.083750            2.27895
     31       0.00000           0.093134            2.53430
     32       0.00000           0.104155            2.83419
     33       0.00000           0.108932            2.96420
     34       0.00000           0.114019            3.10263
     35       0.00000           0.116506            3.17029
     36       0.00000           0.130655            3.55532
     37       0.00000           0.137194            3.73323
     38       0.00000           0.155436            4.22962
     39       0.00000           0.168826            4.59400
     40       0.00000           0.175148            4.76602
     41       0.00000           0.190906            5.19481
     42       0.00000           0.215814            5.87260
     43       0.00000           0.224451            6.10762
     44       0.00000           0.241265            6.56516
     45       0.00000           0.260804            7.09683
     46       0.00000           0.275984            7.50991
     47       0.00000           0.301931            8.21597
     48       0.00000           0.320321            8.71637
     49       0.00000           0.350983            9.55073
     50       0.00000           0.355969            9.68641
     51       0.00000           0.367644           10.00411
     52       0.00000           0.377061           10.26036
     53       0.00000           0.379647           10.33072
     54       0.00000           0.390542           10.62718
     55       0.00000           0.399409           10.86846
     56       0.00000           0.413265           11.24550
     57       0.00000           0.433731           11.80243
     58       0.00000           0.438635           11.93587
     59       0.00000           0.454384           12.36441
     60       0.00000           0.474226           12.90434
     61       0.00000           0.492257           13.39499
     62       0.00000           0.513960           13.98555
     63       0.00000           0.542089           14.75100
     64       0.00000           0.549637           14.95640
     65       0.00000           0.595419           16.20219
     66       0.00000           0.623302           16.96092
     67       0.00000           0.700233           19.05432
     68       0.00000           0.711012           19.34762

  Highest occupied state (VBM) at     -9.82365424 eV
  | Occupation number:      2.00000000

  Lowest unoccupied state (CBM) at    -2.33268361 eV
  | Occupation number:      0.00000000

  Overall HOMO-LUMO gap:      7.49097063 eV.

  Total energy components:
  | Sum of eigenvalues            :        -171.27575352 Ha       -4660.65038451 eV
  | XC energy correction          :         -36.59516034 Ha        -995.80497897 eV
  | XC potential correction       :          46.76280980 Ha        1272.48079769 eV
  | Free-atom electrostatic energy:        -143.48637917 Ha       -3904.46303420 eV
  | Hartree energy correction     :          -1.73849419 Ha         -47.30683388 eV
  | van der Waals energy corr.    :           0.00000000 Ha           0.00000000 eV
  | Entropy correction            :           0.00000000 Ha           0.00000000 eV
  | ---------------------------
  | Total energy                  :        -306.33297743 Ha       -8335.74443386 eV
  | Total energy, T -> 0          :        -306.33297743 Ha       -8335.74443386 eV  <-- do not rely on this value for anything but (periodic) metals
  | Electronic free energy        :        -306.33297743 Ha       -8335.74443386 eV

  Derived energy quantities:
  | Kinetic energy                :         304.36533444 Ha        8282.20214390 eV
  | Electrostatic energy          :        -574.10315152 Ha      -15622.14159879 eV
  | Energy correction for multipole
  | error in Hartree potential    :          -0.00019727 Ha          -0.00536803 eV
  | Sum of eigenvalues per atom                           :        -388.38753204 eV
  | Total energy (T->0) per atom                          :        -694.64536949 eV  <-- do not rely on this value for anything but (periodic) metals
  | Electronic free energy per atom                       :        -694.64536949 eV

  Self-consistency convergence accuracy:
  | Change of charge density      : 0.5800E+00
  | Change of sum of eigenvalues  : 0.4884E+02 eV
  | Change of total energy        : 0.3129E+01 eV

  End self-consistency iteration #     1       :  max(cpu_time)    wall_clock(cpu1)
  | Time for this iteration                    :        1.075 s           1.074 s
  | Charge density update                      :        0.343 s           0.343 s
  | Density mixing                             :        0.003 s           0.002 s
  | Hartree multipole update                   :        0.004 s           0.005 s
  | Hartree multipole summation                :        0.208 s           0.207 s
  | Integration                                :        0.485 s           0.486 s
  | Solution of K.-S. eqns.                    :        0.031 s           0.030 s
  | Total energy evaluation                    :        0.000 s           0.000 s
------------------------------------------------------------

------------------------------------------------------------
          Begin self-consistency iteration #    2

  Date     :  20150727, Time     :  123455.245
------------------------------------------------------------
  Evaluating new KS density.
  Integration grid: deviation in total charge (<rho> - N_e) =   7.105427E-15
  Pulay mixing of updated and previous charge densities.

  Evaluating partitioned Hartree potential by multipole expansion.
  | Analytical far-field extrapolation by fixed multipoles:
  | Hartree multipole sum: apparent total charge =  -0.482400E-05
  Summing up the Hartree potential.
  Time summed over all CPUs for potential: real work        1.651 s, elapsed        1.654 s
  | RMS charge density error from multipole expansion :   0.537880E-02

  Integrating Hamiltonian matrix: batch-based integration.
  Time summed over all CPUs for integration: real work        3.749 s, elapsed        3.861 s

  Updating Kohn-Sham eigenvalues, eigenvectors, occupation numbers, and Fermi level.
  Solving generalized eigenproblem
  Updating Kohn-Sham eigenvalues and eigenfunctions.
  Solving real generalised eigenvalue problem by standard LAPACK (fast)
  Determining occupation numbers for Kohn-Sham eigenstates.
  | Chemical potential (Fermi level) in eV                 : -.34784910E+01
  | Error in electron count due to remaining E_F inaccuracy: 0.00000000E+00
  | Maximum occupation number of highest empty state:  0.00E+00

  Highest occupied state (VBM) at     -6.81079571 eV
  | Occupation number:      2.00000000

  Lowest unoccupied state (CBM) at    -1.87729517 eV
  | Occupation number:      0.00000000

  Overall HOMO-LUMO gap:      4.93350055 eV.

  Total energy components:
  | Sum of eigenvalues            :        -167.19436503 Ha       -4549.59015319 eV
  | XC energy correction          :         -37.04177553 Ha       -1007.95799648 eV
  | XC potential correction       :          47.34789123 Ha        1288.40167344 eV
  | Free-atom electrostatic energy:        -143.48637917 Ha       -3904.46303420 eV
  | Hartree energy correction     :          -5.82892400 Ha        -158.61309210 eV
  | van der Waals energy corr.    :           0.00000000 Ha           0.00000000 eV
  | Entropy correction            :           0.00000000 Ha           0.00000000 eV
  | ---------------------------
  | Total energy                  :        -306.20355251 Ha       -8332.22260253 eV
  | Total energy, T -> 0          :        -306.20355251 Ha       -8332.22260253 eV  <-- do not rely on this value for anything but (periodic) metals
  | Electronic free energy        :        -306.20355251 Ha       -8332.22260253 eV

  Derived energy quantities:
  | Kinetic energy                :         306.49046919 Ha        8340.03000281 eV
  | Electrostatic energy          :        -575.65224617 Ha      -15664.29460887 eV
  | Energy correction for multipole
  | error in Hartree potential    :          -0.00134877 Ha          -0.03670202 eV
  | Sum of eigenvalues per atom                           :        -379.13251277 eV
  | Total energy (T->0) per atom                          :        -694.35188354 eV  <-- do not rely on this value for anything but (periodic) metals
  | Electronic free energy per atom                       :        -694.35188354 eV

  Self-consistency convergence accuracy:
  | Change of charge density      : 0.4366E+00
  | Change of sum of eigenvalues  : 0.1111E+03 eV
  | Change of total energy        : 0.3522E+01 eV

  End self-consistency iteration #     2       :  max(cpu_time)    wall_clock(cpu1)
  | Time for this iteration                    :        1.071 s           1.070 s
  | Charge density update                      :        0.340 s           0.339 s
  | Density mixing                             :        0.004 s           0.004 s
  | Hartree multipole update                   :        0.004 s           0.005 s
  | Hartree multipole summation                :        0.208 s           0.207 s
  | Integration                                :        0.483 s           0.484 s
  | Solution of K.-S. eqns.                    :        0.031 s           0.030 s
  | Total energy evaluation                    :        0.000 s           0.000 s
------------------------------------------------------------

------------------------------------------------------------
          Begin self-consistency iteration #    3

  Date     :  20150727, Time     :  123456.315
------------------------------------------------------------
  Evaluating new KS density.
  Integration grid: deviation in total charge (<rho> - N_e) =   7.105427E-15
  Pulay mixing of updated and previous charge densities.

  Evaluating partitioned Hartree potential by multipole expansion.
  | Analytical far-field extrapolation by fixed multipoles:
  | Hartree multipole sum: apparent total charge =  -0.503928E-05
  Summing up the Hartree potential.
  Time summed over all CPUs for potential: real work        1.651 s, elapsed        1.655 s
  | RMS charge density error from multipole expansion :   0.113535E-01

  Integrating Hamiltonian matrix: batch-based integration.
  Time summed over all CPUs for integration: real work        3.750 s, elapsed        3.855 s

  Updating Kohn-Sham eigenvalues, eigenvectors, occupation numbers, and Fermi level.
  Solving generalized eigenproblem
  Updating Kohn-Sham eigenvalues and eigenfunctions.
  Solving real generalised eigenvalue problem by standard LAPACK (fast)
  Determining occupation numbers for Kohn-Sham eigenstates.
  | Chemical potential (Fermi level) in eV                 : -.32050033E+01
  | Error in electron count due to remaining E_F inaccuracy: 0.00000000E+00
  | Maximum occupation number of highest empty state:  0.00E+00

  Highest occupied state (VBM) at     -6.61080473 eV
  | Occupation number:      2.00000000

  Lowest unoccupied state (CBM) at    -1.78602432 eV
  | Occupation number:      0.00000000

  Overall HOMO-LUMO gap:      4.82478040 eV.

  Total energy components:
  | Sum of eigenvalues            :        -167.32407528 Ha       -4553.11974849 eV
  | XC energy correction          :         -37.02084287 Ha       -1007.38838983 eV
  | XC potential correction       :          47.31678852 Ha        1287.55532579 eV
  | Free-atom electrostatic energy:        -143.48637917 Ha       -3904.46303420 eV
  | Hartree energy correction     :          -5.68363528 Ha        -154.65958504 eV
  | van der Waals energy corr.    :           0.00000000 Ha           0.00000000 eV
  | Entropy correction            :           0.00000000 Ha           0.00000000 eV
  | ---------------------------
  | Total energy                  :        -306.19814408 Ha       -8332.07543176 eV
  | Total energy, T -> 0          :        -306.19814408 Ha       -8332.07543176 eV  <-- do not rely on this value for anything but (periodic) metals
  | Electronic free energy        :        -306.19814408 Ha       -8332.07543176 eV

  Derived energy quantities:
  | Kinetic energy                :         304.81256745 Ha        8294.37197335 eV
  | Electrostatic energy          :        -573.98986866 Ha      -15619.05901528 eV
  | Energy correction for multipole
  | error in Hartree potential    :          -0.00549457 Ha          -0.14951485 eV
  | Sum of eigenvalues per atom                           :        -379.42664571 eV
  | Total energy (T->0) per atom                          :        -694.33961931 eV  <-- do not rely on this value for anything but (periodic) metals
  | Electronic free energy per atom                       :        -694.33961931 eV

  Self-consistency convergence accuracy:
  | Change of charge density      : 0.2264E+00
  | Change of sum of eigenvalues  : -.3530E+01 eV
  | Change of total energy        : 0.1472E+00 eV

  End self-consistency iteration #     3       :  max(cpu_time)    wall_clock(cpu1)
  | Time for this iteration                    :        1.071 s           1.072 s
  | Charge density update                      :        0.339 s           0.340 s
  | Density mixing                             :        0.005 s           0.005 s
  | Hartree multipole update                   :        0.004 s           0.005 s
  | Hartree multipole summation                :        0.208 s           0.207 s
  | Integration                                :        0.483 s           0.483 s
  | Solution of K.-S. eqns.                    :        0.031 s           0.031 s
  | Total energy evaluation                    :        0.000 s           0.001 s
------------------------------------------------------------

------------------------------------------------------------
          Begin self-consistency iteration #    4

  Date     :  20150727, Time     :  123457.387
------------------------------------------------------------
  Evaluating new KS density.
  Integration grid: deviation in total charge (<rho> - N_e) =   7.105427E-15
  Pulay mixing of updated and previous charge densities.

  Evaluating partitioned Hartree potential by multipole expansion.
  | Analytical far-field extrapolation by fixed multipoles:
  | Hartree multipole sum: apparent total charge =  -0.610150E-05
  Summing up the Hartree potential.
  Time summed over all CPUs for potential: real work        1.650 s, elapsed        1.653 s
  | RMS charge density error from multipole expansion :   0.145438E-01

  Integrating Hamiltonian matrix: batch-based integration.
  Time summed over all CPUs for integration: real work        3.737 s, elapsed        3.842 s

  Updating Kohn-Sham eigenvalues, eigenvectors, occupation numbers, and Fermi level.
  Solving generalized eigenproblem
  Updating Kohn-Sham eigenvalues and eigenfunctions.
  Solving real generalised eigenvalue problem by standard LAPACK (fast)
  Determining occupation numbers for Kohn-Sham eigenstates.
  | Chemical potential (Fermi level) in eV                 : -.27170325E+01
  | Error in electron count due to remaining E_F inaccuracy: 0.00000000E+00
  | Maximum occupation number of highest empty state:  0.00E+00

  Highest occupied state (VBM) at     -5.51554681 eV
  | Occupation number:      2.00000000

  Lowest unoccupied state (CBM) at    -1.62362506 eV
  | Occupation number:      0.00000000

  Overall HOMO-LUMO gap:      3.89192175 eV.

  Total energy components:
  | Sum of eigenvalues            :        -166.01545403 Ha       -4517.51035252 eV
  | XC energy correction          :         -37.17782370 Ha       -1011.66005556 eV
  | XC potential correction       :          47.52173256 Ha        1293.13213668 eV
  | Free-atom electrostatic energy:        -143.48637917 Ha       -3904.46303420 eV
  | Hartree energy correction     :          -7.03056003 Ha        -191.31127223 eV
  | van der Waals energy corr.    :           0.00000000 Ha           0.00000000 eV
  | Entropy correction            :           0.00000000 Ha           0.00000000 eV
  | ---------------------------
  | Total energy                  :        -306.18848438 Ha       -8331.81257783 eV
  | Total energy, T -> 0          :        -306.18848438 Ha       -8331.81257783 eV  <-- do not rely on this value for anything but (periodic) metals
  | Electronic free energy        :        -306.18848438 Ha       -8331.81257783 eV

  Derived energy quantities:
  | Kinetic energy                :         304.97652166 Ha        8298.83339449 eV
  | Electrostatic energy          :        -573.98718234 Ha      -15618.98591676 eV
  | Energy correction for multipole
  | error in Hartree potential    :          -0.00720945 Ha          -0.19617923 eV
  | Sum of eigenvalues per atom                           :        -376.45919604 eV
  | Total energy (T->0) per atom                          :        -694.31771482 eV  <-- do not rely on this value for anything but (periodic) metals
  | Electronic free energy per atom                       :        -694.31771482 eV

  Self-consistency convergence accuracy:
  | Change of charge density      : 0.1228E+00
  | Change of sum of eigenvalues  : 0.3561E+02 eV
  | Change of total energy        : 0.2629E+00 eV

  End self-consistency iteration #     4       :  max(cpu_time)    wall_clock(cpu1)
  | Time for this iteration                    :        1.067 s           1.067 s
  | Charge density update                      :        0.336 s           0.336 s
  | Density mixing                             :        0.007 s           0.007 s
  | Hartree multipole update                   :        0.004 s           0.004 s
  | Hartree multipole summation                :        0.207 s           0.207 s
  | Integration                                :        0.482 s           0.481 s
  | Solution of K.-S. eqns.                    :        0.031 s           0.031 s
  | Total energy evaluation                    :        0.000 s           0.000 s
------------------------------------------------------------

------------------------------------------------------------
          Begin self-consistency iteration #    5

  Date     :  20150727, Time     :  123458.454
------------------------------------------------------------
  Evaluating new KS density.
  Integration grid: deviation in total charge (<rho> - N_e) =   0.000000E+00
  Pulay mixing of updated and previous charge densities.

  Evaluating partitioned Hartree potential by multipole expansion.
  | Analytical far-field extrapolation by fixed multipoles:
  | Hartree multipole sum: apparent total charge =  -0.611660E-05
  Summing up the Hartree potential.
  Time summed over all CPUs for potential: real work        1.651 s, elapsed        1.654 s
  | RMS charge density error from multipole expansion :   0.149809E-01

  Integrating Hamiltonian matrix: batch-based integration.
  Time summed over all CPUs for integration: real work        3.737 s, elapsed        3.842 s

  Updating Kohn-Sham eigenvalues, eigenvectors, occupation numbers, and Fermi level.
  Solving generalized eigenproblem
  Updating Kohn-Sham eigenvalues and eigenfunctions.
  Solving real generalised eigenvalue problem by standard LAPACK (fast)
  Determining occupation numbers for Kohn-Sham eigenstates.
  | Chemical potential (Fermi level) in eV                 : -.26837863E+01
  | Error in electron count due to remaining E_F inaccuracy: 0.00000000E+00
  | Maximum occupation number of highest empty state:  0.00E+00

  Highest occupied state (VBM) at     -5.33502051 eV
  | Occupation number:      2.00000000

  Lowest unoccupied state (CBM) at    -1.61982484 eV
  | Occupation number:      0.00000000

  Overall HOMO-LUMO gap:      3.71519567 eV.

  Total energy components:
  | Sum of eigenvalues            :        -165.94492526 Ha       -4515.59116697 eV
  | XC energy correction          :         -37.18899786 Ha       -1011.96411989 eV
  | XC potential correction       :          47.53594667 Ha        1293.51892253 eV
  | Free-atom electrostatic energy:        -143.48637917 Ha       -3904.46303420 eV
  | Hartree energy correction     :          -7.10400149 Ha        -193.30971615 eV
  | van der Waals energy corr.    :           0.00000000 Ha           0.00000000 eV
  | Entropy correction            :           0.00000000 Ha           0.00000000 eV
  | ---------------------------
  | Total energy                  :        -306.18835711 Ha       -8331.80911467 eV
  | Total energy, T -> 0          :        -306.18835711 Ha       -8331.80911467 eV  <-- do not rely on this value for anything but (periodic) metals
  | Electronic free energy        :        -306.18835711 Ha       -8331.80911467 eV

  Derived energy quantities:
  | Kinetic energy                :         305.01889522 Ha        8299.98643749 eV
  | Electrostatic energy          :        -574.01825447 Ha      -15619.83143228 eV
  | Energy correction for multipole
  | error in Hartree potential    :          -0.00734376 Ha          -0.19983391 eV
  | Sum of eigenvalues per atom                           :        -376.29926391 eV
  | Total energy (T->0) per atom                          :        -694.31742622 eV  <-- do not rely on this value for anything but (periodic) metals
  | Electronic free energy per atom                       :        -694.31742622 eV

  Self-consistency convergence accuracy:
  | Change of charge density      : 0.2454E-01
  | Change of sum of eigenvalues  : 0.1919E+01 eV
  | Change of total energy        : 0.3463E-02 eV

  End self-consistency iteration #     5       :  max(cpu_time)    wall_clock(cpu1)
  | Time for this iteration                    :        1.070 s           1.069 s
  | Charge density update                      :        0.338 s           0.338 s
  | Density mixing                             :        0.007 s           0.007 s
  | Hartree multipole update                   :        0.005 s           0.004 s
  | Hartree multipole summation                :        0.207 s           0.207 s
  | Integration                                :        0.481 s           0.481 s
  | Solution of K.-S. eqns.                    :        0.031 s           0.031 s
  | Total energy evaluation                    :        0.001 s           0.000 s
------------------------------------------------------------

------------------------------------------------------------
          Begin self-consistency iteration #    6

  Date     :  20150727, Time     :  123459.524
------------------------------------------------------------
  Evaluating new KS density.
  Integration grid: deviation in total charge (<rho> - N_e) =   1.421085E-14
  Pulay mixing of updated and previous charge densities.

  Evaluating partitioned Hartree potential by multipole expansion.
  | Analytical far-field extrapolation by fixed multipoles:
  | Hartree multipole sum: apparent total charge =  -0.616013E-05
  Summing up the Hartree potential.
  Time summed over all CPUs for potential: real work        1.651 s, elapsed        1.653 s
  | RMS charge density error from multipole expansion :   0.152709E-01

  Integrating Hamiltonian matrix: batch-based integration.
  Time summed over all CPUs for integration: real work        3.747 s, elapsed        3.846 s

  Updating Kohn-Sham eigenvalues, eigenvectors, occupation numbers, and Fermi level.
  Solving generalized eigenproblem
  Updating Kohn-Sham eigenvalues and eigenfunctions.
  Solving real generalised eigenvalue problem by standard LAPACK (fast)
  Determining occupation numbers for Kohn-Sham eigenstates.
  | Chemical potential (Fermi level) in eV                 : -.26575949E+01
  | Error in electron count due to remaining E_F inaccuracy: 0.00000000E+00
  | Maximum occupation number of highest empty state:  0.00E+00

  Highest occupied state (VBM) at     -5.27560856 eV
  | Occupation number:      2.00000000

  Lowest unoccupied state (CBM) at    -1.60808053 eV
  | Occupation number:      0.00000000

  Overall HOMO-LUMO gap:      3.66752803 eV.

  Total energy components:
  | Sum of eigenvalues            :        -165.88123007 Ha       -4513.85793277 eV
  | XC energy correction          :         -37.19778275 Ha       -1012.20316894 eV
  | XC potential correction       :          47.54725825 Ha        1293.82672614 eV
  | Free-atom electrostatic energy:        -143.48637917 Ha       -3904.46303420 eV
  | Hartree energy correction     :          -7.17031812 Ha        -195.11428329 eV
  | van der Waals energy corr.    :           0.00000000 Ha           0.00000000 eV
  | Entropy correction            :           0.00000000 Ha           0.00000000 eV
  | ---------------------------
  | Total energy                  :        -306.18845186 Ha       -8331.81169305 eV
  | Total energy, T -> 0          :        -306.18845186 Ha       -8331.81169305 eV  <-- do not rely on this value for anything but (periodic) metals
  | Electronic free energy        :        -306.18845186 Ha       -8331.81169305 eV

  Derived energy quantities:
  | Kinetic energy                :         305.03248033 Ha        8300.35610717 eV
  | Electrostatic energy          :        -574.02314944 Ha      -15619.96463128 eV
  | Energy correction for multipole
  | error in Hartree potential    :          -0.00745710 Ha          -0.20291808 eV
  | Sum of eigenvalues per atom                           :        -376.15482773 eV
  | Total energy (T->0) per atom                          :        -694.31764109 eV  <-- do not rely on this value for anything but (periodic) metals
  | Electronic free energy per atom                       :        -694.31764109 eV

  Self-consistency convergence accuracy:
  | Change of charge density      : 0.9513E-02
  | Change of sum of eigenvalues  : 0.1733E+01 eV
  | Change of total energy        : -.2578E-02 eV

  End self-consistency iteration #     6       :  max(cpu_time)    wall_clock(cpu1)
  | Time for this iteration                    :        1.073 s           1.073 s
  | Charge density update                      :        0.339 s           0.339 s
  | Density mixing                             :        0.009 s           0.009 s
  | Hartree multipole update                   :        0.004 s           0.004 s
  | Hartree multipole summation                :        0.208 s           0.207 s
  | Integration                                :        0.481 s           0.482 s
  | Solution of K.-S. eqns.                    :        0.030 s           0.031 s
  | Total energy evaluation                    :        0.000 s           0.001 s
------------------------------------------------------------

------------------------------------------------------------
          Begin self-consistency iteration #    7

  Date     :  20150727, Time     :  123500.597
------------------------------------------------------------
  Evaluating new KS density.
  Integration grid: deviation in total charge (<rho> - N_e) =  -7.105427E-15
  Pulay mixing of updated and previous charge densities.

  Evaluating partitioned Hartree potential by multipole expansion.
  | Analytical far-field extrapolation by fixed multipoles:
  | Hartree multipole sum: apparent total charge =  -0.598488E-05
  Summing up the Hartree potential.
  Time summed over all CPUs for potential: real work        1.651 s, elapsed        1.653 s
  | RMS charge density error from multipole expansion :   0.151913E-01

  Integrating Hamiltonian matrix: batch-based integration.
  Time summed over all CPUs for integration: real work        3.739 s, elapsed        3.841 s

  Updating Kohn-Sham eigenvalues, eigenvectors, occupation numbers, and Fermi level.
  Solving generalized eigenproblem
  Updating Kohn-Sham eigenvalues and eigenfunctions.
  Solving real generalised eigenvalue problem by standard LAPACK (fast)
  Determining occupation numbers for Kohn-Sham eigenstates.
  | Chemical potential (Fermi level) in eV                 : -.27146156E+01
  | Error in electron count due to remaining E_F inaccuracy: 0.00000000E+00
  | Maximum occupation number of highest empty state:  0.00E+00

  Highest occupied state (VBM) at     -5.42469815 eV
  | Occupation number:      2.00000000

  Lowest unoccupied state (CBM) at    -1.62682331 eV
  | Occupation number:      0.00000000

  Overall HOMO-LUMO gap:      3.79787485 eV.

  Total energy components:
  | Sum of eigenvalues            :        -166.01602088 Ha       -4517.52577731 eV
  | XC energy correction          :         -37.18313032 Ha       -1011.80445618 eV
  | XC potential correction       :          47.52766671 Ha        1293.29361318 eV
  | Free-atom electrostatic energy:        -143.48637917 Ha       -3904.46303420 eV
  | Hartree energy correction     :          -7.03044821 Ha        -191.30822943 eV
  | van der Waals energy corr.    :           0.00000000 Ha           0.00000000 eV
  | Entropy correction            :           0.00000000 Ha           0.00000000 eV
  | ---------------------------
  | Total energy                  :        -306.18831188 Ha       -8331.80788394 eV
  | Total energy, T -> 0          :        -306.18831188 Ha       -8331.80788394 eV  <-- do not rely on this value for anything but (periodic) metals
  | Electronic free energy        :        -306.18831188 Ha       -8331.80788394 eV

  Derived energy quantities:
  | Kinetic energy                :         305.07140872 Ha        8301.41540257 eV
  | Electrostatic energy          :        -574.07659027 Ha      -15621.41883033 eV
  | Energy correction for multipole
  | error in Hartree potential    :          -0.00725670 Ha          -0.19746483 eV
  | Sum of eigenvalues per atom                           :        -376.46048144 eV
  | Total energy (T->0) per atom                          :        -694.31732366 eV  <-- do not rely on this value for anything but (periodic) metals
  | Electronic free energy per atom                       :        -694.31732366 eV

  Self-consistency convergence accuracy:
  | Change of charge density      : 0.1150E-01
  | Change of sum of eigenvalues  : -.3668E+01 eV
  | Change of total energy        : 0.3809E-02 eV

  End self-consistency iteration #     7       :  max(cpu_time)    wall_clock(cpu1)
  | Time for this iteration                    :        1.073 s           1.072 s
  | Charge density update                      :        0.339 s           0.338 s
  | Density mixing                             :        0.010 s           0.010 s
  | Hartree multipole update                   :        0.004 s           0.004 s
  | Hartree multipole summation                :        0.207 s           0.208 s
  | Integration                                :        0.481 s           0.481 s
  | Solution of K.-S. eqns.                    :        0.031 s           0.031 s
  | Total energy evaluation                    :        0.000 s           0.000 s
------------------------------------------------------------

------------------------------------------------------------
          Begin self-consistency iteration #    8

  Date     :  20150727, Time     :  123501.670
------------------------------------------------------------
  Evaluating new KS density.
  Integration grid: deviation in total charge (<rho> - N_e) =  -1.421085E-14
  Pulay mixing of updated and previous charge densities.

  Evaluating partitioned Hartree potential by multipole expansion.
  | Analytical far-field extrapolation by fixed multipoles:
  | Hartree multipole sum: apparent total charge =  -0.597857E-05
  Summing up the Hartree potential.
  Time summed over all CPUs for potential: real work        1.650 s, elapsed        1.653 s
  | RMS charge density error from multipole expansion :   0.152119E-01

  Integrating Hamiltonian matrix: batch-based integration.
  Time summed over all CPUs for integration: real work        3.738 s, elapsed        3.840 s

  Updating Kohn-Sham eigenvalues, eigenvectors, occupation numbers, and Fermi level.
  Solving generalized eigenproblem
  Updating Kohn-Sham eigenvalues and eigenfunctions.
  Solving real generalised eigenvalue problem by standard LAPACK (fast)
  Determining occupation numbers for Kohn-Sham eigenstates.
  | Chemical potential (Fermi level) in eV                 : -.27139396E+01
  | Error in electron count due to remaining E_F inaccuracy: 0.00000000E+00
  | Maximum occupation number of highest empty state:  0.00E+00

  Highest occupied state (VBM) at     -5.41893130 eV
  | Occupation number:      2.00000000

  Lowest unoccupied state (CBM) at    -1.62692557 eV
  | Occupation number:      0.00000000

  Overall HOMO-LUMO gap:      3.79200574 eV.

  Total energy components:
  | Sum of eigenvalues            :        -166.01582405 Ha       -4517.52042129 eV
  | XC energy correction          :         -37.18314437 Ha       -1011.80483843 eV
  | XC potential correction       :          47.52765732 Ha        1293.29335774 eV
  | Free-atom electrostatic energy:        -143.48637917 Ha       -3904.46303420 eV
  | Hartree energy correction     :          -7.03062066 Ha        -191.31292201 eV
  | van der Waals energy corr.    :           0.00000000 Ha           0.00000000 eV
  | Entropy correction            :           0.00000000 Ha           0.00000000 eV
  | ---------------------------
  | Total energy                  :        -306.18831093 Ha       -8331.80785819 eV
  | Total energy, T -> 0          :        -306.18831093 Ha       -8331.80785819 eV  <-- do not rely on this value for anything but (periodic) metals
  | Electronic free energy        :        -306.18831093 Ha       -8331.80785819 eV

  Derived energy quantities:
  | Kinetic energy                :         305.07322892 Ha        8301.46493272 eV
  | Electrostatic energy          :        -574.07839548 Ha      -15621.46795248 eV
  | Energy correction for multipole
  | error in Hartree potential    :          -0.00726699 Ha          -0.19774472 eV
  | Sum of eigenvalues per atom                           :        -376.46003511 eV
  | Total energy (T->0) per atom                          :        -694.31732152 eV  <-- do not rely on this value for anything but (periodic) metals
  | Electronic free energy per atom                       :        -694.31732152 eV

  Self-consistency convergence accuracy:
  | Change of charge density      : 0.1438E-02
  | Change of sum of eigenvalues  : 0.5356E-02 eV
  | Change of total energy        : 0.2575E-04 eV

  End self-consistency iteration #     8       :  max(cpu_time)    wall_clock(cpu1)
  | Time for this iteration                    :        1.097 s           1.096 s
  | Charge density update                      :        0.362 s           0.361 s
  | Density mixing                             :        0.010 s           0.011 s
  | Hartree multipole update                   :        0.005 s           0.004 s
  | Hartree multipole summation                :        0.207 s           0.207 s
  | Integration                                :        0.481 s           0.482 s
  | Solution of K.-S. eqns.                    :        0.031 s           0.031 s
  | Total energy evaluation                    :        0.001 s           0.000 s
------------------------------------------------------------

------------------------------------------------------------
          Begin self-consistency iteration #    9

  Date     :  20150727, Time     :  123502.766
------------------------------------------------------------
  Evaluating new KS density.
  Integration grid: deviation in total charge (<rho> - N_e) =   2.131628E-14
  Pulay mixing of updated and previous charge densities.

  Evaluating partitioned Hartree potential by multipole expansion.
  | Analytical far-field extrapolation by fixed multipoles:
  | Hartree multipole sum: apparent total charge =  -0.597065E-05
  Summing up the Hartree potential.
  Time summed over all CPUs for potential: real work        1.650 s, elapsed        1.653 s
  | RMS charge density error from multipole expansion :   0.152105E-01

  Integrating Hamiltonian matrix: batch-based integration.
  Time summed over all CPUs for integration: real work        3.737 s, elapsed        3.837 s

  Updating Kohn-Sham eigenvalues, eigenvectors, occupation numbers, and Fermi level.
  Solving generalized eigenproblem
  Updating Kohn-Sham eigenvalues and eigenfunctions.
  Solving real generalised eigenvalue problem by standard LAPACK (fast)
  Determining occupation numbers for Kohn-Sham eigenstates.
  | Chemical potential (Fermi level) in eV                 : -.27156344E+01
  | Error in electron count due to remaining E_F inaccuracy: 0.00000000E+00
  | Maximum occupation number of highest empty state:  0.00E+00

  Highest occupied state (VBM) at     -5.42578056 eV
  | Occupation number:      2.00000000

  Lowest unoccupied state (CBM) at    -1.62733352 eV
  | Occupation number:      0.00000000

  Overall HOMO-LUMO gap:      3.79844704 eV.

  Total energy components:
  | Sum of eigenvalues            :        -166.01839517 Ha       -4517.59038492 eV
  | XC energy correction          :         -37.18280210 Ha       -1011.79552476 eV
  | XC potential correction       :          47.52719216 Ha        1293.28070005 eV
  | Free-atom electrostatic energy:        -143.48637917 Ha       -3904.46303420 eV
  | Hartree energy correction     :          -7.02792566 Ha        -191.23958726 eV
  | van der Waals energy corr.    :           0.00000000 Ha           0.00000000 eV
  | Entropy correction            :           0.00000000 Ha           0.00000000 eV
  | ---------------------------
  | Total energy                  :        -306.18830994 Ha       -8331.80783109 eV
  | Total energy, T -> 0          :        -306.18830994 Ha       -8331.80783109 eV  <-- do not rely on this value for anything but (periodic) metals
  | Electronic free energy        :        -306.18830994 Ha       -8331.80783109 eV

  Derived energy quantities:
  | Kinetic energy                :         305.07729681 Ha        8301.57562579 eV
  | Electrostatic energy          :        -574.08280465 Ha      -15621.58793212 eV
  | Energy correction for multipole
  | error in Hartree potential    :          -0.00726099 Ha          -0.19758162 eV
  | Sum of eigenvalues per atom                           :        -376.46586541 eV
  | Total energy (T->0) per atom                          :        -694.31731926 eV  <-- do not rely on this value for anything but (periodic) metals
  | Electronic free energy per atom                       :        -694.31731926 eV

  Self-consistency convergence accuracy:
  | Change of charge density      : 0.8542E-03
  | Change of sum of eigenvalues  : -.6996E-01 eV
  | Change of total energy        : 0.2710E-04 eV

  End self-consistency iteration #     9       :  max(cpu_time)    wall_clock(cpu1)
  | Time for this iteration                    :        1.072 s           1.072 s
  | Charge density update                      :        0.336 s           0.336 s
  | Density mixing                             :        0.012 s           0.012 s
  | Hartree multipole update                   :        0.004 s           0.004 s
  | Hartree multipole summation                :        0.208 s           0.208 s
  | Integration                                :        0.480 s           0.481 s
  | Solution of K.-S. eqns.                    :        0.031 s           0.031 s
  | Total energy evaluation                    :        0.000 s           0.000 s
------------------------------------------------------------

------------------------------------------------------------
          Begin self-consistency iteration #   10

  Date     :  20150727, Time     :  123503.838
------------------------------------------------------------
  Evaluating new KS density.
  Integration grid: deviation in total charge (<rho> - N_e) =  -2.131628E-14
  Pulay mixing of updated and previous charge densities.

  Evaluating partitioned Hartree potential by multipole expansion.
  | Analytical far-field extrapolation by fixed multipoles:
  | Hartree multipole sum: apparent total charge =  -0.596933E-05
  Summing up the Hartree potential.
  Time summed over all CPUs for potential: real work        1.650 s, elapsed        1.653 s
  | RMS charge density error from multipole expansion :   0.152223E-01

  Integrating Hamiltonian matrix: batch-based integration.
  Time summed over all CPUs for integration: real work        3.733 s, elapsed        3.816 s

  Updating Kohn-Sham eigenvalues, eigenvectors, occupation numbers, and Fermi level.
  Solving generalized eigenproblem
[...]
  |                                 -0.00907850       0.13555670       0.00688276
  |                                 -0.00745648       0.00688276       0.13269626
  ----------------------------------------------------------------------


  Total energy components:
  | Sum of eigenvalues            :        -166.01680922 Ha       -4517.54722911 eV
  | XC energy correction          :         -37.18298475 Ha       -1011.80049477 eV
  | XC potential correction       :          47.52741735 Ha        1293.28682785 eV
  | Free-atom electrostatic energy:        -143.48637917 Ha       -3904.46303420 eV
  | Hartree energy correction     :          -7.02955387 Ha        -191.28389326 eV
  | van der Waals energy corr.    :          -0.00100643 Ha          -0.02738637 eV
  | Entropy correction            :           0.00000000 Ha           0.00000000 eV
  | ---------------------------
  | Total energy                  :        -306.18931609 Ha       -8331.83520985 eV
  | Total energy, T -> 0          :        -306.18931609 Ha       -8331.83520985 eV  <-- do not rely on this value for anything but (periodic) metals
  | Electronic free energy        :        -306.18931609 Ha       -8331.83520985 eV

  Derived energy quantities:
  | Kinetic energy                :         305.07866585 Ha        8301.61287930 eV
  | Electrostatic energy          :        -574.08399077 Ha      -15621.62020802 eV
  | Energy correction for multipole
  | error in Hartree potential    :          -0.00727035 Ha          -0.19783628 eV
  | Sum of eigenvalues per atom                           :        -376.46226909 eV
  | Total energy (T->0) per atom                          :        -694.31960082 eV  <-- do not rely on this value for anything but (periodic) metals
  | Electronic free energy per atom                       :        -694.31960082 eV

  atomic forces [eV/Ang]:
  -----------------------
  atom #    1
   Hellmann-Feynman + Multipole  : -.692867E+01 -.110421E+02 0.313560E+01
   Pulay + GGA                   : 0.525599E+01 0.144413E+02 -.456405E+01
   Van der Waals               : -.329470E-02 0.270137E-03 0.238955E-02
   ----------------------------------------------------------------
   Total forces(   1)            : -.167597E+01 0.339941E+01 -.142606E+01
  atom #    2
   Hellmann-Feynman + Multipole  : 0.221930E+01 -.368307E+01 0.156692E+01
   Pulay + GGA                   : -.323816E-01 0.114709E+00 -.404853E-01
   Van der Waals               : -.169233E-02 0.152335E-02 0.230807E-02
   ----------------------------------------------------------------
   Total forces(   2)            : 0.218523E+01 -.356683E+01 0.152874E+01
  atom #    3
   Hellmann-Feynman + Multipole  : -.171177E+01 -.269005E+00 -.237275E+00
   Pulay + GGA                   : 0.682659E-01 0.129948E-01 0.197783E-01
   Van der Waals               : -.151473E-02 0.965714E-03 0.176598E-02
   ----------------------------------------------------------------
   Total forces(   3)            : -.164502E+01 -.255045E+00 -.215730E+00
  atom #    4
   Hellmann-Feynman + Multipole  : -.616297E+01 0.844439E+00 -.101574E+02
   Pulay + GGA                   : 0.898044E+01 -.529691E+00 0.116490E+02
   Van der Waals               : 0.394184E-02 0.941855E-03 0.226888E-02
   ----------------------------------------------------------------
   Total forces(   4)            : 0.282141E+01 0.315690E+00 0.149384E+01
  atom #    5
   Hellmann-Feynman + Multipole  : -.238778E+00 -.991053E+00 -.115760E+01
   Pulay + GGA                   : 0.424461E-01 0.917357E-01 0.893942E-01
   Van der Waals               : -.268437E-03 0.237809E-02 0.263623E-02
   ----------------------------------------------------------------
   Total forces(   5)            : -.196601E+00 -.896939E+00 -.106557E+01
  atom #    6
   Hellmann-Feynman + Multipole  : -.167433E+01 0.103864E+01 -.317206E+00
   Pulay + GGA                   : 0.125601E+00 -.582863E-01 0.204906E-01
   Van der Waals               : -.140872E-02 0.130399E-03 0.117093E-03
   ----------------------------------------------------------------
   Total forces(   6)            : -.155014E+01 0.980489E+00 -.296598E+00
  atom #    7
   Hellmann-Feynman + Multipole  : 0.570247E+01 -.782469E+01 -.102544E+02
   Pulay + GGA                   : -.620100E+01 0.866783E+01 0.122775E+02
   Van der Waals               : 0.292219E-02 -.419288E-02 -.501311E-02
   ----------------------------------------------------------------
   Total forces(   7)            : -.495613E+00 0.838941E+00 0.201817E+01
  atom #    8
   Hellmann-Feynman + Multipole  : -.379541E+00 0.207548E+00 -.237535E+01
   Pulay + GGA                   : 0.192000E-01 0.200365E-01 0.137397E+00
   Van der Waals               : -.103986E-02 0.115828E-02 -.210441E-02
   ----------------------------------------------------------------
   Total forces(   8)            : -.361381E+00 0.228743E+00 -.224006E+01
  atom #    9
   Hellmann-Feynman + Multipole  : 0.144800E+01 -.160343E+01 0.476344E+00
   Pulay + GGA                   : -.463679E-01 0.762620E-01 0.765959E-02
   Van der Waals               : 0.150161E-02 -.209483E-02 -.143613E-02
   ----------------------------------------------------------------
   Total forces(   9)            : 0.140314E+01 -.152926E+01 0.482567E+00
  atom #   10
   Hellmann-Feynman + Multipole  : -.144920E+01 -.136842E+02 0.141878E+00
   Pulay + GGA                   : 0.228037E+01 0.143613E+02 -.225324E+01
   Van der Waals               : 0.284548E-04 -.504848E-03 -.136069E-02
   ----------------------------------------------------------------
   Total forces(  10)            : 0.831200E+00 0.676647E+00 -.211273E+01
  atom #   11
   Hellmann-Feynman + Multipole  : -.279291E+00 0.540035E+00 0.295618E+00
   Pulay + GGA                   : -.821274E-01 0.954396E-01 0.711541E-01
   Van der Waals               : 0.148744E-02 -.161135E-02 0.375396E-03
   ----------------------------------------------------------------
   Total forces(  11)            : -.359931E+00 0.633863E+00 0.367148E+00
  atom #   12
   Hellmann-Feynman + Multipole  : -.996206E+00 -.895705E+00 0.158497E+01
   Pulay + GGA                   : 0.454293E-01 0.765189E-01 -.111647E+00
   Van der Waals               : -.662772E-03 0.103608E-02 -.194686E-02
   ----------------------------------------------------------------
   Total forces(  12)            : -.951439E+00 -.818150E+00 0.147137E+01
  Timings for vdw_correction_hirshfeld (Tkatchenko-Scheffler 2009):
  | CPU time:        2.848 s, Wall clock time:        2.847 s.
  Removing unitary transformations (pure translations, rotations) from forces on atoms.
  Atomic forces before filtering:
  | Net force on center of mass :  0.488495E-02 0.755788E-02 0.509373E-02 eV/A
  | Net torque on center of mass:  -.140663E-01 0.228903E-03 0.321112E-02 eV
  Atomic forces after filtering:
  | Net force on center of mass :  -.535218E-15 0.000000E+00 0.000000E+00 eV/A
  | Net torque on center of mass:  0.000000E+00 -.453161E-14 0.302107E-14 eV
 
  Energy and forces in a compact form:
  | Total energy uncorrected      :         -0.833183520985024E+04 eV
  | Total energy corrected        :         -0.833183520985024E+04 eV  <-- do not rely on this value for anything but (periodic) metals
  | Electronic free energy        :         -0.833183520985024E+04 eV
  Total atomic forces (unitary forces cleaned) [eV/Ang]:
  |   1         -0.167648460432099E+01          0.339946326101232E+01         -0.142718430561290E+01
  |   2          0.218499466243551E+01         -0.356652901411384E+01          0.152783462473288E+01
  |   3         -0.164547863498082E+01         -0.255236592903278E+00         -0.216584923400237E+00
  |   4          0.282107325960072E+01          0.315178164564642E+00          0.149343131974524E+01
  |   5         -0.196931186869661E+00         -0.897737998244425E+00         -0.106574717896990E+01
  |   6         -0.155062754776034E+01          0.979744207335644E+00         -0.297058650785238E+00
  |   7         -0.496355563516464E+00          0.837659818526692E+00          0.201776115305128E+01
  |   8         -0.362324333455630E+00          0.227082598821520E+00         -0.224046537219408E+01
  |   9          0.140258723178693E+01         -0.153032389552334E+01          0.482275970793137E+00
  |  10          0.830998800320717E+00          0.676060112609896E+00         -0.211287906759543E+01
  |  11         -0.360060765358283E+00          0.633219644869130E+00          0.367148328975844E+00
  |  12         -0.951391317881683E+00         -0.818580306954966E+00          0.147146810125941E+01
 
  ------------------------------------ 
  Start decomposition of the XC Energy 
  ------------------------------------ 
  Hartree-Fock part   :          0.000000000 Ha              0.000000000 eV
  ------------------------------------ 
  X Energy            :        -35.880113894 Ha           -976.347575079 eV
  C Energy GGA        :         -1.302870851 Ha            -35.452919692 eV
  Total XC Energy     :        -37.182984746 Ha          -1011.800494771 eV
  LDA X and C from self-consistent density 
  X Energy LDA        :        -32.321340794 Ha           -879.508431901 eV
  C Energy LDA        :         -2.634233445 Ha            -71.681139145 eV
  ------------------------------------ 
  End decomposition of the XC Energy 
  ------------------------------------ 
  Performing Hirshfeld analysis of fragment charges and moments.
  ----------------------------------------------------------------------
  | Atom     1: O
  |   Hirshfeld charge        :     -0.35066577
  |   Free atom volume        :     23.95238533
  |   Hirshfeld volume        :     23.96884667
  |   Hirshfeld dipole vector :      0.04210739       0.05452187      -0.00798348
  |   Hirshfeld dipole moment :      0.06934986
  |   Hirshfeld second moments:      0.00325198      -0.03576458       0.02805001
  |                                 -0.03576458      -0.03646167      -0.02949194
  |                                  0.02805001      -0.02949194      -0.09418110
  ----------------------------------------------------------------------
  | Atom     2: H
  |   Hirshfeld charge        :      0.11702485
  |   Free atom volume        :     10.44207651
  |   Hirshfeld volume        :      7.30653735
  |   Hirshfeld dipole vector :     -0.05777830       0.09659845      -0.03905630
  |   Hirshfeld dipole moment :      0.11914272
  |   Hirshfeld second moments:      0.10832910       0.00257178       0.00639633
  |                                  0.00257178       0.08116095      -0.00228252
  |                                  0.00639633      -0.00228252       0.07540886
  ----------------------------------------------------------------------
  | Atom     3: H
  |   Hirshfeld charge        :      0.06108242
  |   Free atom volume        :     10.44207651
  |   Hirshfeld volume        :      8.41811254
  |   Hirshfeld dipole vector :      0.04822167       0.00715523       0.00817122
  |   Hirshfeld dipole moment :      0.04942971
  |   Hirshfeld second moments:      0.02218413      -0.02969698       0.00515315
  |                                 -0.02969698       0.08084864      -0.00591913
  |                                  0.00515315      -0.00591913       0.05728074
  ----------------------------------------------------------------------
  | Atom     4: O
  |   Hirshfeld charge        :     -0.18384282
  |   Free atom volume        :     23.95238533
  |   Hirshfeld volume        :     20.39215409
  |   Hirshfeld dipole vector :     -0.01641141      -0.02528281       0.03194135
  |   Hirshfeld dipole moment :      0.04391816
  |   Hirshfeld second moments:      0.07481247      -0.02654374       0.00736381
  |                                 -0.02654374       0.08246263       0.03812184
  |                                  0.00736381       0.03812184       0.04904582
  ----------------------------------------------------------------------
  | Atom     5: H
  |   Hirshfeld charge        :      0.17257884
  |   Free atom volume        :     10.44207651
  |   Hirshfeld volume        :      6.26363134
  |   Hirshfeld dipole vector :      0.00697645       0.07141025       0.08607605
  |   Hirshfeld dipole moment :      0.11205882
  |   Hirshfeld second moments:      0.12936362      -0.00923287       0.01305424
  |                                 -0.00923287       0.12912555      -0.00378639
  |                                  0.01305424      -0.00378639       0.10014298
  ----------------------------------------------------------------------
  | Atom     6: H
  |   Hirshfeld charge        :      0.17637184
  |   Free atom volume        :     10.44207651
  |   Hirshfeld volume        :      5.63210538
  |   Hirshfeld dipole vector :      0.09215110      -0.07810960       0.01317922
  |   Hirshfeld dipole moment :      0.12151801
  |   Hirshfeld second moments:      0.12779641       0.00261755       0.00084503
  |                                  0.00261755       0.13323763       0.01523020
  |                                  0.00084503       0.01523020       0.13492588
  ----------------------------------------------------------------------
  | Atom     7: O
  |   Hirshfeld charge        :     -0.34356425
  |   Free atom volume        :     23.95238533
  |   Hirshfeld volume        :     23.22017865
  |   Hirshfeld dipole vector :     -0.03899778       0.02702837       0.03802089
  |   Hirshfeld dipole moment :      0.06080253
  |   Hirshfeld second moments:     -0.04538683      -0.04368131       0.02492698
  |                                 -0.04368131      -0.05060794      -0.02339430
  |                                  0.02492698      -0.02339430       0.02312376
  ----------------------------------------------------------------------
  | Atom     8: H
  |   Hirshfeld charge        :      0.11986141
  |   Free atom volume        :     10.44207651
  |   Hirshfeld volume        :      6.88456727
  |   Hirshfeld dipole vector :      0.01443556      -0.01302528       0.12227831
  |   Hirshfeld dipole moment :      0.12381449
  |   Hirshfeld second moments:      0.09847921      -0.01903946       0.00551303
  |                                 -0.01903946       0.09642095      -0.00458988
  |                                  0.00551303      -0.00458988       0.09640876
  ----------------------------------------------------------------------
  | Atom     9: H
  |   Hirshfeld charge        :      0.07224722
  |   Free atom volume        :     10.44207651
  |   Hirshfeld volume        :      8.06703130
  |   Hirshfeld dipole vector :     -0.03755266       0.03478957       0.00343661
  |   Hirshfeld dipole moment :      0.05130621
  |   Hirshfeld second moments:      0.04104280       0.01776226      -0.01598427
  |                                  0.01776226       0.04282643       0.00761572
  |                                 -0.01598427       0.00761572       0.09795240
  ----------------------------------------------------------------------
  | Atom    10: O
  |   Hirshfeld charge        :     -0.19101882
  |   Free atom volume        :     23.95238533
  |   Hirshfeld volume        :     20.15427782
  |   Hirshfeld dipole vector :      0.02338643       0.01300075       0.01456227
  |   Hirshfeld dipole moment :      0.03046316
  |   Hirshfeld second moments:      0.05784694      -0.02130784      -0.04307206
  |                                 -0.02130784       0.07028233      -0.00655113
  |                                 -0.04307206      -0.00655113       0.09436603
  ----------------------------------------------------------------------
  | Atom    11: H
  |   Hirshfeld charge        :      0.16892643
  |   Free atom volume        :     10.44207651
  |   Hirshfeld volume        :      5.53919392
  |   Hirshfeld dipole vector :     -0.05979746       0.08210196       0.06832235
  |   Hirshfeld dipole moment :      0.12241083
  |   Hirshfeld second moments:      0.12877187       0.00057628      -0.01050944
  |                                  0.00057628       0.13068576      -0.01199103
  |                                 -0.01050944      -0.01199103       0.13955629
  ----------------------------------------------------------------------
  | Atom    12: H
  |   Hirshfeld charge        :      0.18093875
  |   Free atom volume        :     10.44207651
  |   Hirshfeld volume        :      5.75233637
  |   Hirshfeld dipole vector :      0.05859745       0.05106576      -0.09290031
  |   Hirshfeld dipole moment :      0.12112738
  |   Hirshfeld second moments:      0.12274892      -0.00907850      -0.00745648
  |                                 -0.00907850       0.13555670       0.00688276
  |                                 -0.00745648       0.00688276       0.13269626
  ----------------------------------------------------------------------


------------------------------------------------------------------------------
  Final output of selected total energy values:

  The following output summarizes some interesting total energy values
  at the end of a run (AFTER all relaxation, molecular dynamics, etc.).

  | Total energy of the DFT / Hartree-Fock s.c.f. calculation      :          -8331.835209850 eV
  | Final zero-broadening corrected energy (caution - metals only) :          -8331.835209850 eV
  | For reference only, the value of 1 Hartree used in FHI-aims is :             27.211384500 eV

  Before relying on these values, please be sure to understand exactly which
  total energy value is referred to by a given number. Different objects may
  all carry the same name 'total energy'. Definitions:

  Total energy of the DFT / Hartree-Fock s.c.f. calculation:
  | Note that this energy does not include ANY quantities calculated after the
  | s.c.f. cycle, in particular not ANY RPA, MP2, etc. many-body perturbation terms.

  Final zero-broadening corrected energy:
  | For metallic systems only, a broadening of the occupation numbers at the Fermi
  | level can be extrapolated back to zero broadening by an electron-gas inspired
  | formula. For all systems that are not real metals, this value can be
  | meaningless and should be avoided.

------------------------------------------------------------------------------

------------------------------------------------------------
          Leaving FHI-aims.
          Date     :  20150727, Time     :  123513.567

          Computational steps:
          | Number of self-consistency cycles          :           16

          Detailed time accounting                     :  max(cpu_time)    wall_clock(cpu1)
          | Total time                                 :       21.095 s          21.134 s
          | Preparation time                           :        0.170 s           0.572 s
          | Grid partitioning                          :        0.134 s           0.134 s
          | Preloading free-atom quantities on grid    :        0.013 s           0.013 s
          | Free-atom superposition energy             :        0.047 s           0.046 s
          | Total time for integrations                :        8.428 s           8.434 s
          | Total time for solution of K.-S. equations :        0.614 s           0.613 s
          | Total time for density & force components  :        6.856 s           6.856 s
          | Total time for mixing                      :        0.163 s           0.164 s
          | Total time for Hartree multipole update    :        0.067 s           0.068 s
          | Total time for Hartree multipole sum       :        4.011 s           4.007 s
          | Total time for total energy evaluation     :        0.006 s           0.005 s
          | Total time for scaled ZORA corrections     :        0.000 s           0.000 s
          | Total time for TS (2009) vdW correction    :        0.034 s           0.034 s

          Have a nice day.
------------------------------------------------------------
