  MPI-parallelism will be employed.
------------------------------------------------------------
          Invoking FHI-aims ...
          Version 081213
          Compiled on 2013/08/29 at 17:41:06 on host generoso.

          When using FHI-aims, please cite the following reference:

          Volker Blum, Ralf Gehrke, Felix Hanke, Paula Havu,
          Ville Havu, Xinguo Ren, Karsten Reuter, and Matthias Scheffler,
          'Ab Initio Molecular Simulations with Numeric Atom-Centered Orbitals: FHI-aims',
          Computer Physics Communications 180, 2175-2196 (2009)

          For any questions about FHI-aims, please visit the aimsclub website
          with its forums and wiki. Contributions to both the forums and the
          wiki are warmly encouraged - they are for you, and everyone is welcome there.

------------------------------------------------------------

  Date     :  20150727, Time     :  113327.141
  Time zero on CPU 1             :   0.519910000000000E-01  s.
  Internal wall clock time zero  :           207228807.141  s.

  Using        8 parallel tasks.
  Task        0 on host gen60 reporting.
  Task        1 on host gen60 reporting.
  Task        2 on host gen60 reporting.
  Task        3 on host gen60 reporting.
  Task        4 on host gen60 reporting.
  Task        5 on host gen60 reporting.
  Task        6 on host gen60 reporting.
  Task        7 on host gen60 reporting.

  Performing system and environment tests:
  | Environment variable OMP_NUM_THREADS correctly set to 1.
  | Checking for scalapack...
  | No scalapack compiled in.

  Obtaining array dimensions for all initial allocations:
  
  -----------------------------------------------------------------------
  Parsing control.in (first pass over file, find array dimensions only).
  The contents of control.in will be repeated verbatim below
  unless switched off by setting 'verbatim_writeout .false.' .
  in the first line of control.in .
  -----------------------------------------------------------------------
  
  #########################################################################################
  #
  #  Volker Blum, FHI 2008 : Test run input file control.in
  #
  #########################################################################################
  #
  #  Physical model
  #
    xc                 rpbe
    spin               none
    relativistic       atomic_zora scalar
    charge             0.
   vdw_correction_hirshfeld
  #
  #  SCF convergence
  #
    occupation_type    gaussian 0.01
    mixer              pulay
      n_max_pulay        10
      charge_mix_param   0.1
    sc_accuracy_rho    5E-5
    sc_accuracy_eev    5E-3
    sc_accuracy_etot   5E-6
    sc_iter_limit      3000
  #
  #  Eigenvalue solver
  #
    KS_method          lapack
      empty_states       8
      basis_threshold    0.e-5
  #
  #  Efficiency
  #
  #   all previous settings are now default, except stratmann still
  #   undecided. Continue to handle stratmann with care, if at all.
  #
  #  partition_type stratmann
    partition_type rho_r2
  #  hartree_partition_type stratmann
  #
  #  Oprions for large clusters (100's of atoms: memory saving / better scaling)
  #
  # for periodic systems:
  #
    density_update_method orbital
    packed_matrix_format none
  #  k_grid 6 6 6
  #  output k_eigenvalue 1
  #  distributed_spline_storage .true.
  #
  #  Relaxation
  #
  #  relax_geometry   bfgs 5.e-3
    sc_accuracy_forces 5.E-4
    final_forces_cleaned .true.
  #
  #  Output options
  #
  #  output mulliken
    output Hirshfeld
  #  output dipole
  
  #harmonic_length_scale 0.001
  
  ################################################################################
  #
  #  FHI-aims code project
  #  VB, Fritz-Haber Institut, 2007
  #
  #  Suggested "safe" defaults for H atom (to be pasted into control.in file)
  #  Basis constructed for a non-relativistic H2 molecule using the
  #  PW-LDA functional.
  #
  ################################################################################
    species        H
  #     global species definitions
      nucleus             1
      cut_pot             4.0  2.0  1.0
      cut_free_atom       finite 8.0
      logarithmic         0.00010000 100.00  1.0123
      basis_dep_cutoff    1d-4  # 1d-4 is safe default - please check 5d-4 if you wish!
      radial_base         24 7.0
      radial_multiplier   2
      angular_grids       specified
        division   0.2783  110
        division   0.3822  194
        division   0.5626  302
  #      division   0.5922  434
  #      division   0.6227  590
  #      division   0.7206  770
        outer_grid  302
      l_hartree           4
  ################################################################################
  #
  #  Definition of "minimal" basis
  #
  ################################################################################
  #     valence basis states
      valence      1  s   1.
  #     ion occupancy
      ion_occ      1  s   0.5
  ################################################################################
  #
  #  Suggested additional basis functions. For production calculations,
  #  uncomment them one after another (the most important basis functions are
  #  listed first).
  #
  ################################################################################
  #  "First tier" - improvements: -1014.90 meV to -62.69 meV
       hydro 2 s 2.1
       hydro 2 p 3.5
  #  "Second tier" - improvements: -12.89 meV to -1.83 meV
       hydro 1 s 0.85
       hydro 2 p 3.7
       hydro 2 s 1.2
       hydro 3 d 7
  #  "Third tier" - improvements: -0.25 meV to -0.12 meV
  #     hydro 4 f 11.2
  #     hydro 3 p 4.8
  #     hydro 4 d 9
  #     hydro 3 s 3.2
  
  ################################################################################
  #
  #  FHI-aims code project
  #  VB, Fritz-Haber Institut, 2007
  #
  #  Suggested "safe" defaults for O atom (to be pasted into control.in file)
  #  All values have been tested for a non-relativistic, non-spinpolarized O2
  #  molecule using the PW-LDA functional. Validity for PBE is expected.
  #
  #  Constructed for dimers: 1.0 A, 1.208 A, 1.5 A, 2.0 A, 3.0 A
  #
  ################################################################################
    species        O
  #     global species definitions
      nucleus             8
      mass                15.9994
      l_hartree           4
      cut_pot             4.0  2.0  1.0
      cut_free_atom       finite 8.0
      basis_dep_cutoff    1d-4  # 1d-4 is safe default - please check 5d-4 if you wish!
      logarithmic         0.00010000 100.00  1.0123
      radial_base         36 7.0
      radial_multiplier   2
       angular_grids specified
        division   0.4087  110
        division   0.5181  194
        division   0.6184  302
  #      division   0.7315  434
  #      division   0.7934  590
  #      division   0.9656  770
  #      division   1.4041  974
  #      outer_grid 974
        outer_grid 302
  ################################################################################
  #
  #  Definition of "minimal" basis
  #
  ################################################################################
  #     valence basis states
      valence      2  s   2.
      valence      2  p   4.
  #     ion occupancy
      ion_occ      2  s   1.
      ion_occ      2  p   3.
  ################################################################################
  #
  #  Suggested additional basis functions. For production calculations,
  #  uncomment them one after another (the most important basis functions are
  #  listed first).
  #
  ################################################################################
  #  "First tier" - improvements: -699.05 meV to -159.38 meV
       hydro 2 p 1.8
       hydro 3 d 7.6
       hydro 3 s 6.4
  #  "Second tier" - improvements: -49.91 meV to -5.39 meV
       hydro 4 f 11.6
       hydro 3 p 6.2
       hydro 3 d 5.6
       hydro 5 g 17.6
       hydro 1 s 0.75
  #  "Third tier" - improvements: -2.83 meV to -0.50 meV
  #     ionic 2 p auto
  #     hydro 4 f 10.8
  #     hydro 4 d 4.7
  #     hydro 2 s 6.8
  #  "Fourth tier" - improvements: -0.40 meV to -0.12 meV
  #     hydro 3 p 5
  #     hydro 3 s 3.3
  #     hydro 5 g 15.6
  #     hydro 4 f 17.6
  #     hydro 4 d 14
  # Further basis functions - -0.08 meV and below
  #     hydro 3 s 2.1
  #     hydro 4 d 11.6
  #     hydro 3 p 16
  #     hydro 2 s 17.2
  
  
  -----------------------------------------------------------------------
  Completed first pass over input file control.in .
  -----------------------------------------------------------------------
  
  
  -----------------------------------------------------------------------
  Parsing geometry.in (first pass over file, find array dimensions only).
  The contents of geometry.in will be repeated verbatim below
  unless switched off by setting 'verbatim_writeout .false.' .
  in the first line of geometry.in .
  -----------------------------------------------------------------------
  
  atom      -4.053030000      0.065001000     -1.525160000  O
  atom      -4.566710000      0.974813000     -1.912820000  H
  atom      -3.067820000      0.330172000     -1.477310000  H
  atom      -4.581760000     -0.256435000      0.939478000  O
  atom      -4.349860000      0.471090000      1.504340000  H
  atom      -5.393870000     -0.726611000      1.228070000  H
  atom      -5.293160000      2.192130000     -2.328800000  O
  atom      -4.829300000      2.988660000     -1.973850000  H
  atom      -5.428570000      2.328640000     -3.235170000  H
  atom      -1.645860000      0.870179000     -1.502250000  O
  atom      -1.568890000      1.501730000     -0.721051000  H
  atom      -0.824432000      0.282220000     -1.377720000  H
  atom      -3.818880000      2.024990000      2.187990000  O
  atom      -3.690880000      1.961360000      3.202150000  H
  atom      -4.546490000      2.751300000      2.045370000  H
  atom      -1.975360000      2.858040000      0.453140000  O
  atom      -1.223550000      3.375850000      0.786238000  H
  atom      -2.537520000      2.567960000      1.156120000  H
  atom      -5.628340000      3.730740000      1.385610000  O
  atom      -6.090650000      4.418470000      1.860350000  H
  atom      -5.158540000      4.200260000      0.615875000  H
  
  -----------------------------------------------------------------------
  Completed first pass over input file geometry.in .
  -----------------------------------------------------------------------
  
 
  Basic array size parameters: 
  | Number of species                 :        2
  | Number of atoms                   :       21
  | Max. basis fn. angular momentum   :        4
  | Max. atomic/ionic basis occupied n:        2
  | Max. number of basis fn. types    :        2
  | Max. radial fns per species/type  :        8
  | Max. logarithmic grid size        :     1301
  | Max. radial integration grid size :       73
  | Max. angular integration grid size:      302
  | Max. angular grid division number :        8
  | Radial grid for Hartree potential :     1301
  | Number of spin channels           :        1

------------------------------------------------------------
          Reading file control.in.
------------------------------------------------------------
  XC: Using RPBE gradient-corrected functionals.
  Spin treatment: No spin polarisation.
  Scalar relativistic treatment of kinetic energy: on-site free-atom approximation to ZORA.
  Charge =   0.000000E+00: Neutral system requested explicitly.
  Using non-empirical van der Waals correction (Hirshfeld partitioning):
  Occupation type: Gaussian broadening, width =   0.100000E-01 eV.
  Using pulay charge density mixing.
  Pulay mixing - number of memorized iterations:   10
  Charge density mixing - mixing parameter:     0.1000
  Convergence accuracy of self-consistent charge density: 0.5000E-04
  Convergence accuracy of sum of eigenvalues: 0.5000E-02
  Convergence accuracy of total energy: 0.5000E-05
  Maximum number of s.-c. iterations  :  3000
  Kohn-Sham eigenvalues and eigenfunctions calculated by lapack diagonalisation (D&C).
  Number of empty states per atom:        8
  Threshold for basis singularities: 0.0000E+00
  Partition function in integrals calculations: rho / r^2
 Using packed matrix format           0
  Convergence accuracy of forces: 0.5000E-03
  Cleaning forces before final output.
  Hirshfeld charge analysis will be performed.
 
  Reading configuration options for species H                   .
  | Found nuclear charge :   1.0000
  | Found cutoff potl. onset [A], width [A], scale factor :    4.00000    2.00000    1.00000
  | Found cutoff specification for free atom: Cutoff potential begins at    8.00000 A.
  | Found logarithmic grid data [bohr] : 0.1000E-03 0.1000E+03 0.1012E+01
  | Threshold for basis-dependent cutoff potential is   0.100000E-03
  | Found data for basic radial integration grid :    24 points, outermost radius =    7.000 A
  | Found multiplier for basic radial grid :   2
  | Found angular grid specification: user-specified.
  | Specified grid contains     4 separate shells.
  | Check grid settings after all constraints further below.
  | Found l_max for Hartree potential  :   4
  | Found free-atom valence shell :  1 s   1.000
  | No ionic wave fns used. Skipping ion_occ.
  | Found hydrogenic basis function :  2 s   2.100
  | Found hydrogenic basis function :  2 p   3.500
  | Found hydrogenic basis function :  1 s   0.850
  | Found hydrogenic basis function :  2 p   3.700
  | Found hydrogenic basis function :  2 s   1.200
  | Found hydrogenic basis function :  3 d   7.000
  Species H                   : Missing cutoff potential type.
  Defaulting to exp(1/x)/(1-x)^2 type cutoff potential.
  Species H : On-site basis accuracy parameter (for Gram-Schmidt orthonormalisation) not specified.
  Using default value basis_acc =  0.1000000E-03.
  Species H                   : Using default innermost maximum threshold i_radial=  2 for radial functions.
  Species H                   : Basic radial grid will be enhanced according to radial_multiplier =   2, to contain    49 grid points.
 
  Reading configuration options for species O                   .
  | Found nuclear charge :   8.0000
  | Found atomic mass :    15.9994000000000      amu
  | Found l_max for Hartree potential  :   4
  | Found cutoff potl. onset [A], width [A], scale factor :    4.00000    2.00000    1.00000
  | Found cutoff specification for free atom: Cutoff potential begins at    8.00000 A.
  | Threshold for basis-dependent cutoff potential is   0.100000E-03
  | Found logarithmic grid data [bohr] : 0.1000E-03 0.1000E+03 0.1012E+01
  | Found data for basic radial integration grid :    36 points, outermost radius =    7.000 A
  | Found multiplier for basic radial grid :   2
  | Found angular grid specification: user-specified.
  | Specified grid contains     4 separate shells.
  | Check grid settings after all constraints further below.
  | Found free-atom valence shell :  2 s   2.000
  | Found free-atom valence shell :  2 p   4.000
  | No ionic wave fns used. Skipping ion_occ.
  | No ionic wave fns used. Skipping ion_occ.
  | Found hydrogenic basis function :  2 p   1.800
  | Found hydrogenic basis function :  3 d   7.600
  | Found hydrogenic basis function :  3 s   6.400
  | Found hydrogenic basis function :  4 f  11.600
  | Found hydrogenic basis function :  3 p   6.200
  | Found hydrogenic basis function :  3 d   5.600
  | Found hydrogenic basis function :  5 g  17.600
  | Found hydrogenic basis function :  1 s   0.750
  Species O                   : Missing cutoff potential type.
  Defaulting to exp(1/x)/(1-x)^2 type cutoff potential.
  Species O : On-site basis accuracy parameter (for Gram-Schmidt orthonormalisation) not specified.
  Using default value basis_acc =  0.1000000E-03.
  Species O                   : Using default innermost maximum threshold i_radial=  2 for radial functions.
  Species O                   : Basic radial grid will be enhanced according to radial_multiplier =   2, to contain    73 grid points.
 
  Finished reading input file 'control.in'. Consistency checks are next.
 
  Target number of points in a grid batch is not set. Defaulting to  100
  Method for grid partitioning is not set. Defaulting to parallel hash+maxmin partitioning.
  Batch size limit is not set. Defaulting to    200
  By default, will store active basis functions for each batch.
  If in need of memory, prune_basis_once .false. can be used to disable this option.
  communication_type for Hartree potential was not specified.
  Defaulting to calc_hartree .
  Pulay mixer: Number of initial linear mixing iterations not set.
  Defaulting to    0 iterations.
  Work space size for distributed Hartree potential not set.
  Defaulting to   0.200000E+03 MB.
  Algorithm-dependent basis array size parameters:
  | n_max_pulay                         :       10
  Geometry relaxation not requested: no relaxation will be performed.
  Handling of forces: Unphysical translation and rotation will be removed from forces.
  No accuracy limit for integral partition fn. given. Defaulting to 0.1000E-14.
  No threshold value for u(r) in integrations given. Defaulting to 0.1000E-05.
  No accuracy for occupation numbers given. Defaulting to 0.1000E-07.
  No threshold value for occupation numbers given. Defaulting to 0.0000E+00.
  No accuracy for fermi level given. Defaulting to 0.1000E-19.
  Maximum # of iterations to find E_F not set. Defaulting to  200.
  Will not use alltoall communication since running on < 1024 CPUs.
  Partitioning for Hartree potential was not defined. Using partition_type for integrals.
  | Reporting present value of keyword multip_moments_threshold  :       0.10000000E-09
  | This value may affect high angular momentum components of the Hartree potential in periodic systems.
  No q(lm)/r^(l+1) cutoff set for long-range Hartree potential.
  | Using default value of  0.100000E-09 .
  | Verify using the multipole_threshold keyword.
  Defaulting to new monopole extrapolation.
  Density update method: Loop over occupied states selected for charge density update.
------------------------------------------------------------


------------------------------------------------------------
          Reading geometry description geometry.in.
------------------------------------------------------------
  Input structure read successfully.
  The structure contains       21 atoms,  and a total of         70.000 electrons.

  Input geometry:
  | No unit cell requested.
  | Atomic structure:
  |       Atom                x [A]            y [A]            z [A]
  |    1: Species O             -4.053030         0.065001        -1.525160
  |    2: Species H             -4.566710         0.974813        -1.912820
  |    3: Species H             -3.067820         0.330172        -1.477310
  |    4: Species O             -4.581760        -0.256435         0.939478
  |    5: Species H             -4.349860         0.471090         1.504340
  |    6: Species H             -5.393870        -0.726611         1.228070
  |    7: Species O             -5.293160         2.192130        -2.328800
  |    8: Species H             -4.829300         2.988660        -1.973850
  |    9: Species H             -5.428570         2.328640        -3.235170
  |   10: Species O             -1.645860         0.870179        -1.502250
  |   11: Species H             -1.568890         1.501730        -0.721051
  |   12: Species H             -0.824432         0.282220        -1.377720
  |   13: Species O             -3.818880         2.024990         2.187990
  |   14: Species H             -3.690880         1.961360         3.202150
  |   15: Species H             -4.546490         2.751300         2.045370
  |   16: Species O             -1.975360         2.858040         0.453140
  |   17: Species H             -1.223550         3.375850         0.786238
  |   18: Species H             -2.537520         2.567960         1.156120
  |   19: Species O             -5.628340         3.730740         1.385610
  |   20: Species H             -6.090650         4.418470         1.860350
  |   21: Species H             -5.158540         4.200260         0.615875
  |

  | The smallest distance between any two atoms is         0.92654057 AA.
  |
  | The first atom of this pair is atom number                      7 .
  | The second atom of this pair is atom number                     9 .

  Structure-dependent array size parameters: 
  | Maximum number of distinct radial functions  :       18
  | Maximum number of basis functions            :      483
  | Number of Kohn-Sham states (occupied + empty):      119
------------------------------------------------------------

------------------------------------------------------------
          Preparing all fixed parts of the calculation.
------------------------------------------------------------
  Determining machine precision:
    2.225073858507201E-308
  Setting up grids for atomic and cluster calculations.

  Creating wave function, potential, and density for free atoms.

  Species: H

  List of occupied orbitals and eigenvalues:
    n    l              occ      energy [Ha]    energy [eV]
    1    0           1.0000        -0.241408        -6.5691


  Species: O

  List of occupied orbitals and eigenvalues:
    n    l              occ      energy [Ha]    energy [eV]
    1    0           2.0000       -18.944147      -515.4965
    2    0           2.0000        -0.883529       -24.0421
    2    1           4.0000        -0.330176        -8.9845

  Creating fixed part of basis set: Ionic, confined, hydrogenic.
 
  H                    hydrogenic:
 
  List of hydrogenic basis orbitals: 
    n    l      effective z      eigenvalue [eV]  inner max. [A]     outer max. [A]     outer radius [A]   
    2    0         2.100000       -14.9965           0.193241           1.317192           5.372934
    2    1         3.500000       -41.6672           0.602363           0.602363           4.056010
    1    0         0.850000        -9.8292           0.624864           0.624864           5.372934
    2    1         3.700000       -46.5653           0.573616           0.573616           3.909951
    2    0         1.200000        -4.5995           0.334977           2.228160           5.505921
    3    2         7.000000       -74.0753           0.680692           0.680692           3.769152
 
 
  O                    hydrogenic:
 
  List of hydrogenic basis orbitals: 
    n    l      effective z      eigenvalue [eV]  inner max. [A]     outer max. [A]     outer radius [A]   
    2    1         1.800000       -11.0118           1.178546           1.178546           5.432516
    3    2         7.600000       -87.3182           0.624117           0.624117           3.541422
    3    0         6.400000       -61.9209           0.061166           1.081887           4.306510
    4    3        11.600000      -114.4238           0.731621           0.731621           3.584982
    3    1         6.200000       -58.1113           0.255677           1.030255           4.306510
    3    2         5.600000       -47.4081           0.847222           0.847222           4.413102
    5    4        17.600000      -168.5799           0.749730           0.749730           3.372413
    1    0         0.750000        -7.6499           0.705275           0.705275           5.366508
 

  Adding cutoff potential to free-atom effective potential.
  Creating atomic-like basis functions for current effective potential.

  Species H                   :

  List of atomic basis orbitals and eigenvalues:
    n    l      energy [Ha]    energy [eV]    outer radius [A]
    1    0        -0.241374        -6.5681       5.372934


  Species O                   :

  List of atomic basis orbitals and eigenvalues:
    n    l      energy [Ha]    energy [eV]    outer radius [A]
    1    0       -18.944147      -515.4965       1.415745
    2    0        -0.883529       -24.0421       5.048305
    2    1        -0.330173        -8.9845       5.301302

  Assembling full basis from fixed parts.
  | Species H :   atomic orbital   1 s accepted.
  | Species H :    hydro orbital   2 s accepted.
  | Species H :    hydro orbital   1 s accepted.
  | Species H :    hydro orbital   2 s accepted.
  | Species H :    hydro orbital   2 p accepted.
  | Species H :    hydro orbital   2 p accepted.
  | Species H :    hydro orbital   3 d accepted.
  | Species O :   atomic orbital   1 s accepted.
  | Species O :    hydro orbital   3 s accepted.
  | Species O :   atomic orbital   2 s accepted.
  | Species O :    hydro orbital   1 s accepted.
  | Species O :    hydro orbital   3 p accepted.
  | Species O :   atomic orbital   2 p accepted.
  | Species O :    hydro orbital   2 p accepted.
  | Species O :    hydro orbital   3 d accepted.
  | Species O :    hydro orbital   3 d accepted.
  | Species O :    hydro orbital   4 f accepted.
  | Species O :    hydro orbital   5 g accepted.
 
  Basis size parameters after reduction:
  | Total number of radial functions:       18
  | Total number of basis functions :      483
 
  Testing on-site integration grid accuracy.
  |  Species  Function  <phi|h_atom|phi> (log., in eV)  <phi|h_atom|phi> (rad., in eV)
           1        1                 -6.5683835025                 -6.5684759159
           1        2                 13.3711789951                 13.3708738703
           1        3                 23.6590910787                 23.6532055418
           1        4                 16.2963827186                 16.1870710655 ***
           1        5                 28.7627214838                 28.7627215090
           1        6                 59.5965249172                 59.5965950857
           1        7                 60.2220506392                 60.2220503827
           2        8               -515.4964576505               -515.4964530710
           2        9                 15.3030791347                 15.3030722972
           2       10                -21.7296094581                -21.7296135470
           2       11                 14.2969371730                 14.2969701621
           2       12                 21.0679693190                 21.0679697493
           2       13                 -2.3833606469                 -2.3833613176
           2       14                 13.7067136422                 13.7066766629
           2       15                 45.8013116808                 45.8013116965
           2       16                 52.2309815402                 52.2309831494
           2       17                 85.4120732416                 85.4120732763
           2       18                142.1019167745                142.1019167817
 * Note: Onsite integrals marked "***" above are less accurate than
 * onsite_accuracy_threshold =    0.03000 eV. Usually, this is harmless.
 * When in doubt, tighten the "radial" and/or "radial_multiplier" flags to check.

  Preparing densities etc. for the partition functions (integrals / Hartree potential).

  Preparations completed.
  max(cpu_time)          :      0.171 s.
  Wall clock time (cpu1) :      0.596 s.
------------------------------------------------------------

------------------------------------------------------------
          Begin self-consistency loop: Initialization.

          Date     :  20150727, Time     :  113327.779
------------------------------------------------------------

  Initializing index lists of integration centers etc. from given atomic structure:
  | Number of centers in hartree potential         :        21
  | Number of centers in hartree multipole         :        21
  | Number of centers in electron density summation:        21
  | Number of centers in basis integrals           :        21
  | Number of centers in integrals                 :        21
  Partitioning the integration grid into batches with parallel hashing+maxmin method.
  | Number of batches:     2709
  | Maximal batch size:     167
  | Minimal batch size:      53
  | Average batch size:     101.659
  | Standard deviation of batch sizes:      30.697

  Integration load balanced across     8 MPI tasks.
  Work distribution over tasks is as follows:
  Task     0 has      34423 integration points.
  Task     1 has      34389 integration points.
  Task     2 has      34388 integration points.
  Task     3 has      34492 integration points.
  Task     4 has      34462 integration points.
  Task     5 has      34354 integration points.
  Task     6 has      34461 integration points.
  Task     7 has      34425 integration points.
  Initializing partition tables, free-atom densities, potentials, etc. across the integration grid (initialize_grid_storage).
  | Net number of integration points:   275394
  | of which are non-zero points    :   274807
  Obtaining max. number of non-zero basis functions in each batch (get_n_compute_maxes).
  | Maximal number of non-zero basis functions:      477 in task     0
  | Maximal number of non-zero basis functions:      477 in task     1
  | Maximal number of non-zero basis functions:      478 in task     2
  | Maximal number of non-zero basis functions:      478 in task     3
  | Maximal number of non-zero basis functions:      477 in task     4
  | Maximal number of non-zero basis functions:      478 in task     5
  | Maximal number of non-zero basis functions:      477 in task     6
  | Maximal number of non-zero basis functions:      478 in task     7
  Integrating Hamiltonian matrix: batch-based integration.
  Time summed over all CPUs for integration: real work       15.267 s, elapsed       15.663 s
  Integrating overlap matrix.
  Time summed over all CPUs for integration: real work        8.434 s, elapsed        8.593 s

  Updating Kohn-Sham eigenvalues, eigenvectors, occupation numbers, and Fermi level.
  Solving generalized eigenproblem
  Updating Kohn-Sham eigenvalues and eigenfunctions.
  Transforming overlap matrix and checking for singularities.
  Overlap matrix is nonsingular:
  | Lowest eigenvalue:  0.215673E-03
  Solving real generalised eigenvalue problem by standard LAPACK (fast)
  Determining occupation numbers for Kohn-Sham eigenstates.
  | Chemical potential (Fermi level) in eV                 : -.35612689E+01
  | Error in electron count due to remaining E_F inaccuracy: 0.00000000E+00
  | Maximum occupation number of highest empty state:  0.00E+00

  Writing Kohn-Sham eigenvalues.

  State    Occupation    Eigenvalue [Ha]    Eigenvalue [eV]
      1       2.00000         -19.064800         -518.77961
      2       2.00000         -19.057404         -518.57835
      3       2.00000         -19.052101         -518.43405
      4       2.00000         -19.050556         -518.39200
      5       2.00000         -19.042524         -518.17345
      6       2.00000         -19.036167         -518.00047
      7       2.00000         -19.019933         -517.55871
      8       2.00000          -1.121238          -30.51043
      9       2.00000          -1.110275          -30.21212
     10       2.00000          -1.101021          -29.96032
     11       2.00000          -1.098432          -29.88986
     12       2.00000          -1.086536          -29.56615
     13       2.00000          -1.068069          -29.06362
     14       2.00000          -1.042379          -28.36457
     15       2.00000          -0.654653          -17.81401
     16       2.00000          -0.650243          -17.69402
     17       2.00000          -0.648549          -17.64793
     18       2.00000          -0.629171          -17.12062
     19       2.00000          -0.610588          -16.61493
     20       2.00000          -0.605110          -16.46588
     21       2.00000          -0.604313          -16.44419
     22       2.00000          -0.550563          -14.98159
     23       2.00000          -0.525839          -14.30882
     24       2.00000          -0.510918          -13.90278
     25       2.00000          -0.506753          -13.78946
     26       2.00000          -0.498977          -13.57785
     27       2.00000          -0.487887          -13.27607
     28       2.00000          -0.475567          -12.94085
     29       2.00000          -0.443917          -12.07961
     30       2.00000          -0.441956          -12.02625
     31       2.00000          -0.440792          -11.99456
     32       2.00000          -0.439024          -11.94645
     33       2.00000          -0.431467          -11.74081
     34       2.00000          -0.429876          -11.69753
     35       2.00000          -0.402709          -10.95826
     36       0.00000          -0.100267           -2.72841
     37       0.00000          -0.070543           -1.91958
     38       0.00000          -0.068522           -1.86458
     39       0.00000          -0.053312           -1.45070
     40       0.00000          -0.042657           -1.16076
     41       0.00000          -0.033197           -0.90334
     42       0.00000          -0.012640           -0.34396
     43       0.00000           0.017183            0.46758
     44       0.00000           0.022435            0.61049
     45       0.00000           0.031633            0.86077
     46       0.00000           0.043217            1.17599
     47       0.00000           0.049082            1.33559
     48       0.00000           0.055683            1.51522
     49       0.00000           0.059704            1.62462
     50       0.00000           0.072693            1.97809
     51       0.00000           0.080485            2.19012
     52       0.00000           0.087100            2.37010
     53       0.00000           0.094776            2.57900
     54       0.00000           0.100298            2.72926
     55       0.00000           0.103517            2.81683
     56       0.00000           0.108891            2.96308
     57       0.00000           0.113192            3.08010
     58       0.00000           0.118752            3.23141
     59       0.00000           0.123178            3.35184
     60       0.00000           0.131720            3.58429
     61       0.00000           0.135480            3.68661
     62       0.00000           0.139063            3.78410
     63       0.00000           0.148474            4.04019
     64       0.00000           0.155994            4.24480
     65       0.00000           0.157715            4.29163
     66       0.00000           0.164334            4.47174
     67       0.00000           0.170645            4.64349
     68       0.00000           0.190838            5.19296
     69       0.00000           0.192757            5.24518
     70       0.00000           0.200249            5.44904
     71       0.00000           0.212607            5.78534
     72       0.00000           0.225000            6.12256
     73       0.00000           0.236577            6.43760
     74       0.00000           0.247209            6.72689
     75       0.00000           0.251492            6.84345
     76       0.00000           0.274336            7.46507
     77       0.00000           0.278032            7.56565
     78       0.00000           0.294750            8.02056
     79       0.00000           0.306381            8.33704
     80       0.00000           0.309446            8.42046
     81       0.00000           0.318648            8.67086
     82       0.00000           0.335160            9.12016
     83       0.00000           0.339288            9.23249
     84       0.00000           0.344439            9.37265
     85       0.00000           0.354295            9.64086
     86       0.00000           0.362928            9.87578
     87       0.00000           0.373758           10.17048
     88       0.00000           0.377133           10.26232
     89       0.00000           0.392586           10.68282
     90       0.00000           0.399166           10.86186
     91       0.00000           0.408340           11.11149
     92       0.00000           0.414976           11.29207
     93       0.00000           0.428861           11.66989
     94       0.00000           0.438266           11.92582
     95       0.00000           0.442849           12.05053
     96       0.00000           0.457788           12.45704
     97       0.00000           0.465404           12.66430
     98       0.00000           0.484490           13.18364
     99       0.00000           0.494205           13.44800
    100       0.00000           0.501922           13.65798
    101       0.00000           0.508268           13.83066
    102       0.00000           0.515236           14.02030
    103       0.00000           0.541329           14.73032
    104       0.00000           0.542101           14.75132
    105       0.00000           0.557537           15.17136
    106       0.00000           0.561089           15.26802
    107       0.00000           0.590000           16.05473
    108       0.00000           0.606375           16.50031
    109       0.00000           0.612216           16.65924
    110       0.00000           0.634504           17.26572
    111       0.00000           0.664351           18.07791
    112       0.00000           0.677998           18.44926
    113       0.00000           0.690817           18.79810
    114       0.00000           0.715150           19.46023
    115       0.00000           0.737246           20.06149
    116       0.00000           0.759235           20.65982
    117       0.00000           0.768655           20.91615
    118       0.00000           0.778564           21.18579
    119       0.00000           0.787014           21.41574

  Highest occupied state (VBM) at    -10.95825669 eV
  | Occupation number:      2.00000000

  Lowest unoccupied state (CBM) at    -2.72840719 eV
  | Occupation number:      0.00000000

  Overall HOMO-LUMO gap:      8.22984950 eV.
  Calculating total energy contributions from superposition of free atom densities.

  Total energy components:
  | Sum of eigenvalues            :        -303.88061686 Ha       -8269.01230745 eV
  | XC energy correction          :         -63.85525522 Ha       -1737.58990224 eV
  | XC potential correction       :          81.60722943 Ha        2220.64569807 eV
  | Free-atom electrostatic energy:        -250.18995816 Ha       -6808.01514943 eV
  | Hartree energy correction     :           0.00000000 Ha           0.00000000 eV
  | van der Waals energy corr.    :           0.00000000 Ha           0.00000000 eV
  | Entropy correction            :           0.00000000 Ha           0.00000000 eV
  | ---------------------------
  | Total energy                  :        -536.31860081 Ha      -14593.97166104 eV
  | Total energy, T -> 0          :        -536.31860081 Ha      -14593.97166104 eV  <-- do not rely on this value for anything but (periodic) metals
  | Electronic free energy        :        -536.31860081 Ha      -14593.97166104 eV

  Derived energy quantities:
  | Kinetic energy                :         530.93421409 Ha       14447.45504370 eV
  | Electrostatic energy          :       -1003.39755967 Ha      -27303.83680251 eV
  | Energy correction for multipole
  | error in Hartree potential    :           0.00000000 Ha           0.00000000 eV
  | Sum of eigenvalues per atom                           :        -393.76249083 eV
  | Total energy (T->0) per atom                          :        -694.95103148 eV  <-- do not rely on this value for anything but (periodic) metals
  | Electronic free energy per atom                       :        -694.95103148 eV
  Initialize hartree_potential_storage
  Max. number of atoms included in rho_multipole:           21

  End scf initialization - timings             :  max(cpu_time)    wall_clock(cpu1)
  | Time for scf. initialization               :        4.103 s           4.103 s
  | Boundary condition initialization          :        0.000 s           0.000 s
  | Integration                                :        3.040 s           3.040 s
  | Solution of K.-S. eqns.                    :        0.439 s           0.439 s
  | Grid partitioning                          :        0.233 s           0.233 s
  | Preloading free-atom quantities on grid    :        0.013 s           0.014 s
  | Free-atom superposition energy             :        0.116 s           0.115 s
  | Total energy evaluation                    :        0.000 s           0.001 s
------------------------------------------------------------

------------------------------------------------------------
          Begin self-consistency iteration #    1

  Date     :  20150727, Time     :  113331.882
------------------------------------------------------------
  Evaluating new KS density.
  Integration grid: deviation in total charge (<rho> - N_e) =   1.421085E-14
  Pulay mixing of updated and previous charge densities.

  Evaluating partitioned Hartree potential by multipole expansion.
  | Analytical far-field extrapolation by fixed multipoles:
  | Hartree multipole sum: apparent total charge =  -0.299961E-05
  Summing up the Hartree potential.
  Time summed over all CPUs for potential: real work        4.983 s, elapsed        5.005 s
  | RMS charge density error from multipole expansion :   0.196377E-02

  Integrating Hamiltonian matrix: batch-based integration.
  Time summed over all CPUs for integration: real work       15.224 s, elapsed       15.602 s

  Updating Kohn-Sham eigenvalues, eigenvectors, occupation numbers, and Fermi level.
  Solving generalized eigenproblem
  Updating Kohn-Sham eigenvalues and eigenfunctions.
  Solving real generalised eigenvalue problem by standard LAPACK (fast)
  Determining occupation numbers for Kohn-Sham eigenstates.
  | Chemical potential (Fermi level) in eV                 : -.30835364E+01
  | Error in electron count due to remaining E_F inaccuracy: 0.00000000E+00
  | Maximum occupation number of highest empty state:  0.00E+00

  Writing Kohn-Sham eigenvalues.

  State    Occupation    Eigenvalue [Ha]    Eigenvalue [eV]
      1       2.00000         -18.994574         -516.86866
      2       2.00000         -18.985756         -516.62871
      3       2.00000         -18.979034         -516.44578
      4       2.00000         -18.968418         -516.15692
      5       2.00000         -18.968270         -516.15290
      6       2.00000         -18.956640         -515.83643
      7       2.00000         -18.915186         -514.70839
      8       2.00000          -1.086847          -29.57462
      9       2.00000          -1.072519          -29.18472
     10       2.00000          -1.068957          -29.08780
     11       2.00000          -1.048893          -28.54183
     12       2.00000          -1.046329          -28.47206
     13       2.00000          -1.032796          -28.10381
     14       2.00000          -0.981614          -26.71107
     15       2.00000          -0.621077          -16.90038
     16       2.00000          -0.620449          -16.88329
     17       2.00000          -0.604296          -16.44372
     18       2.00000          -0.602372          -16.39139
     19       2.00000          -0.577961          -15.72713
     20       2.00000          -0.574828          -15.64187
     21       2.00000          -0.560853          -15.26160
     22       2.00000          -0.509843          -13.87353
     23       2.00000          -0.494120          -13.44570
     24       2.00000          -0.472211          -12.84951
     25       2.00000          -0.461190          -12.54962
     26       2.00000          -0.458029          -12.46359
     27       2.00000          -0.444854          -12.10510
     28       2.00000          -0.431025          -11.72878
     29       2.00000          -0.408141          -11.10608
     30       2.00000          -0.403473          -10.97907
     31       2.00000          -0.396568          -10.79117
     32       2.00000          -0.393763          -10.71482
     33       2.00000          -0.385152          -10.48053
     34       2.00000          -0.380088          -10.34271
     35       2.00000          -0.339884           -9.24870
     36       0.00000          -0.092532           -2.51792
     37       0.00000          -0.062174           -1.69184
     38       0.00000          -0.059518           -1.61955
     39       0.00000          -0.043223           -1.17614
     40       0.00000          -0.034787           -0.94659
     41       0.00000          -0.023940           -0.65145
     42       0.00000          -0.007466           -0.20316
     43       0.00000           0.028387            0.77244
     44       0.00000           0.034135            0.92886
     45       0.00000           0.044245            1.20397
     46       0.00000           0.052129            1.41849
     47       0.00000           0.060644            1.65022
     48       0.00000           0.064208            1.74718
     49       0.00000           0.069437            1.88947
     50       0.00000           0.082720            2.25093
     51       0.00000           0.091105            2.47909
     52       0.00000           0.098937            2.69222
     53       0.00000           0.104058            2.83157
     54       0.00000           0.113861            3.09832
     55       0.00000           0.116836            3.17926
     56       0.00000           0.120224            3.27147
     57       0.00000           0.125866            3.42499
     58       0.00000           0.130597            3.55374
     59       0.00000           0.134990            3.67327
     60       0.00000           0.142153            3.86818
     61       0.00000           0.151747            4.12924
     62       0.00000           0.155941            4.24337
     63       0.00000           0.164650            4.48035
     64       0.00000           0.166682            4.53566
     65       0.00000           0.175276            4.76951
     66       0.00000           0.183100            4.98242
     67       0.00000           0.187644            5.10605
     68       0.00000           0.201223            5.47556
     69       0.00000           0.205223            5.58440
     70       0.00000           0.213678            5.81447
     71       0.00000           0.229156            6.23566
     72       0.00000           0.236819            6.44418
     73       0.00000           0.250423            6.81435
     74       0.00000           0.257783            7.01463
     75       0.00000           0.264383            7.19423
     76       0.00000           0.286047            7.78373
     77       0.00000           0.289131            7.86765
     78       0.00000           0.305654            8.31726
     79       0.00000           0.314816            8.56659
     80       0.00000           0.320409            8.71876
     81       0.00000           0.328952            8.95123
     82       0.00000           0.348724            9.48926
     83       0.00000           0.352510            9.59227
     84       0.00000           0.356110            9.69024
     85       0.00000           0.365361            9.94198
     86       0.00000           0.376824           10.25391
     87       0.00000           0.384710           10.46850
     88       0.00000           0.389506           10.59899
     89       0.00000           0.402206           10.94457
     90       0.00000           0.411953           11.20981
     91       0.00000           0.421950           11.48185
     92       0.00000           0.426382           11.60245
     93       0.00000           0.441834           12.02292
     94       0.00000           0.452367           12.30954
     95       0.00000           0.454134           12.35762
     96       0.00000           0.464779           12.64729
     97       0.00000           0.475720           12.94501
     98       0.00000           0.498635           13.56855
     99       0.00000           0.505055           13.74325
    100       0.00000           0.510790           13.89930
    101       0.00000           0.520579           14.16566
    102       0.00000           0.528292           14.37555
    103       0.00000           0.556960           15.15565
    104       0.00000           0.558959           15.21005
    105       0.00000           0.573346           15.60153
    106       0.00000           0.578039           15.72923
    107       0.00000           0.607298           16.52543
    108       0.00000           0.620030           16.87188
    109       0.00000           0.624393           16.99059
    110       0.00000           0.650287           17.69522
    111       0.00000           0.679819           18.49880
    112       0.00000           0.693809           18.87951
    113       0.00000           0.710347           19.32951
    114       0.00000           0.732642           19.93621
    115       0.00000           0.753438           20.50210
    116       0.00000           0.771864           21.00349
    117       0.00000           0.781108           21.25503
    118       0.00000           0.789983           21.49652
    119       0.00000           0.802017           21.82400

  Highest occupied state (VBM) at     -9.24870143 eV
  | Occupation number:      2.00000000

  Lowest unoccupied state (CBM) at    -2.51791594 eV
  | Occupation number:      0.00000000

  Overall HOMO-LUMO gap:      6.73078550 eV.

  Total energy components:
  | Sum of eigenvalues            :        -300.49202366 Ha       -8176.80399491 eV
  | XC energy correction          :         -64.19111611 Ha       -1746.72914193 eV
  | XC potential correction       :          82.04605256 Ha        2232.58668280 eV
  | Free-atom electrostatic energy:        -250.18995816 Ha       -6808.01514943 eV
  | Hartree energy correction     :          -3.28347693 Ha         -89.34795316 eV
  | van der Waals energy corr.    :           0.00000000 Ha           0.00000000 eV
  | Entropy correction            :           0.00000000 Ha           0.00000000 eV
  | ---------------------------
  | Total energy                  :        -536.11052229 Ha      -14588.30955663 eV
  | Total energy, T -> 0          :        -536.11052229 Ha      -14588.30955663 eV  <-- do not rely on this value for anything but (periodic) metals
  | Electronic free energy        :        -536.11052229 Ha      -14588.30955663 eV

  Derived energy quantities:
  | Kinetic energy                :         532.94642749 Ha       14502.21015626 eV
  | Electrostatic energy          :       -1004.86583367 Ha      -27343.79057095 eV
  | Energy correction for multipole
  | error in Hartree potential    :           0.00004509 Ha           0.00122689 eV
  | Sum of eigenvalues per atom                           :        -389.37161881 eV
  | Total energy (T->0) per atom                          :        -694.68140746 eV  <-- do not rely on this value for anything but (periodic) metals
  | Electronic free energy per atom                       :        -694.68140746 eV

  Self-consistency convergence accuracy:
  | Change of charge density      : 0.7832E+00
  | Change of sum of eigenvalues  : 0.9221E+02 eV
  | Change of total energy        : 0.5662E+01 eV

  End self-consistency iteration #     1       :  max(cpu_time)    wall_clock(cpu1)
  | Time for this iteration                    :        4.030 s           4.031 s
  | Charge density update                      :        1.317 s           1.317 s
  | Density mixing                             :        0.005 s           0.005 s
  | Hartree multipole update                   :        0.007 s           0.007 s
  | Hartree multipole summation                :        0.627 s           0.627 s
  | Integration                                :        1.954 s           1.953 s
  | Solution of K.-S. eqns.                    :        0.120 s           0.121 s
  | Total energy evaluation                    :        0.000 s           0.000 s
------------------------------------------------------------

------------------------------------------------------------
          Begin self-consistency iteration #    2

  Date     :  20150727, Time     :  113335.913
------------------------------------------------------------
  Evaluating new KS density.
  Integration grid: deviation in total charge (<rho> - N_e) =   1.421085E-14
  Pulay mixing of updated and previous charge densities.

  Evaluating partitioned Hartree potential by multipole expansion.
  | Analytical far-field extrapolation by fixed multipoles:
  | Hartree multipole sum: apparent total charge =  -0.912447E-05
  Summing up the Hartree potential.
  Time summed over all CPUs for potential: real work        4.983 s, elapsed        5.005 s
  | RMS charge density error from multipole expansion :   0.795702E-02

  Integrating Hamiltonian matrix: batch-based integration.
  Time summed over all CPUs for integration: real work       15.215 s, elapsed       15.564 s

  Updating Kohn-Sham eigenvalues, eigenvectors, occupation numbers, and Fermi level.
  Solving generalized eigenproblem
  Updating Kohn-Sham eigenvalues and eigenfunctions.
  Solving real generalised eigenvalue problem by standard LAPACK (fast)
  Determining occupation numbers for Kohn-Sham eigenstates.
  | Chemical potential (Fermi level) in eV                 : -.36561057E+01
  | Error in electron count due to remaining E_F inaccuracy: 0.00000000E+00
  | Maximum occupation number of highest empty state:  0.00E+00

  Highest occupied state (VBM) at     -5.01284916 eV
  | Occupation number:      2.00000000

  Lowest unoccupied state (CBM) at    -2.11929269 eV
  | Occupation number:      0.00000000

  Overall HOMO-LUMO gap:      2.89355647 eV.

  Total energy components:
  | Sum of eigenvalues            :        -292.23985847 Ha       -7952.25115514 eV
  | XC energy correction          :         -65.04017682 Ha       -1769.83325950 eV
  | XC potential correction       :          83.15430345 Ha        2262.74372407 eV
  | Free-atom electrostatic energy:        -250.18995816 Ha       -6808.01514943 eV
  | Hartree energy correction     :         -11.54437435 Ha        -314.13840912 eV
  | van der Waals energy corr.    :           0.00000000 Ha           0.00000000 eV
  | Entropy correction            :           0.00000000 Ha           0.00000000 eV
  | ---------------------------
  | Total energy                  :        -535.86006435 Ha      -14581.49424912 eV
  | Total energy, T -> 0          :        -535.86006435 Ha      -14581.49424912 eV  <-- do not rely on this value for anything but (periodic) metals
  | Electronic free energy        :        -535.86006435 Ha      -14581.49424912 eV

  Derived energy quantities:
  | Kinetic energy                :         537.09188162 Ha       14615.01370267 eV
  | Electrostatic energy          :       -1007.91176915 Ha      -27426.67469229 eV
  | Energy correction for multipole
  | error in Hartree potential    :          -0.00104108 Ha          -0.02832919 eV
  | Sum of eigenvalues per atom                           :        -378.67862644 eV
  | Total energy (T->0) per atom                          :        -694.35686901 eV  <-- do not rely on this value for anything but (periodic) metals
  | Electronic free energy per atom                       :        -694.35686901 eV

  Self-consistency convergence accuracy:
  | Change of charge density      : 0.5938E+00
  | Change of sum of eigenvalues  : 0.2246E+03 eV
  | Change of total energy        : 0.6815E+01 eV

  End self-consistency iteration #     2       :  max(cpu_time)    wall_clock(cpu1)
  | Time for this iteration                    :        4.024 s           4.026 s
  | Charge density update                      :        1.315 s           1.315 s
  | Density mixing                             :        0.007 s           0.008 s
  | Hartree multipole update                   :        0.007 s           0.007 s
  | Hartree multipole summation                :        0.627 s           0.626 s
  | Integration                                :        1.949 s           1.949 s
  | Solution of K.-S. eqns.                    :        0.120 s           0.120 s
  | Total energy evaluation                    :        0.000 s           0.000 s
------------------------------------------------------------

------------------------------------------------------------
          Begin self-consistency iteration #    3

  Date     :  20150727, Time     :  113339.939
------------------------------------------------------------
  Evaluating new KS density.
  Integration grid: deviation in total charge (<rho> - N_e) =   5.684342E-14
  Pulay mixing of updated and previous charge densities.

  Evaluating partitioned Hartree potential by multipole expansion.
  | Analytical far-field extrapolation by fixed multipoles:
  | Hartree multipole sum: apparent total charge =  -0.976185E-05
  Summing up the Hartree potential.
  Time summed over all CPUs for potential: real work        4.982 s, elapsed        5.003 s
  | RMS charge density error from multipole expansion :   0.155523E-01

  Integrating Hamiltonian matrix: batch-based integration.
  Time summed over all CPUs for integration: real work       15.216 s, elapsed       15.588 s

  Updating Kohn-Sham eigenvalues, eigenvectors, occupation numbers, and Fermi level.
  Solving generalized eigenproblem
  Updating Kohn-Sham eigenvalues and eigenfunctions.
  Solving real generalised eigenvalue problem by standard LAPACK (fast)
  Determining occupation numbers for Kohn-Sham eigenstates.
  | Chemical potential (Fermi level) in eV                 : -.34650730E+01
  | Error in electron count due to remaining E_F inaccuracy: 0.00000000E+00
  | Maximum occupation number of highest empty state:  0.00E+00

  Highest occupied state (VBM) at     -4.68399092 eV
  | Occupation number:      2.00000000

  Lowest unoccupied state (CBM) at    -2.18302173 eV
  | Occupation number:      0.00000000

  Overall HOMO-LUMO gap:      2.50096918 eV.

  Total energy components:
  | Sum of eigenvalues            :        -292.45784998 Ha       -7958.18300589 eV
  | XC energy correction          :         -64.99323141 Ha       -1768.55580982 eV
  | XC potential correction       :          83.08544950 Ha        2260.87011273 eV
  | Free-atom electrostatic energy:        -250.18995816 Ha       -6808.01514943 eV
  | Hartree energy correction     :         -11.29636660 Ha        -307.38977507 eV
  | van der Waals energy corr.    :           0.00000000 Ha           0.00000000 eV
  | Entropy correction            :           0.00000000 Ha           0.00000000 eV
  | ---------------------------
  | Total energy                  :        -535.85195665 Ha      -14581.27362748 eV
  | Total energy, T -> 0          :        -535.85195665 Ha      -14581.27362748 eV  <-- do not rely on this value for anything but (periodic) metals
  | Electronic free energy        :        -535.85195665 Ha      -14581.27362748 eV

  Derived energy quantities:
  | Kinetic energy                :         534.27371205 Ha       14538.32740691 eV
  | Electrostatic energy          :       -1005.13243729 Ha      -27351.04522456 eV
  | Energy correction for multipole
  | error in Hartree potential    :          -0.00723789 Ha          -0.19695312 eV
  | Sum of eigenvalues per atom                           :        -378.96109552 eV
  | Total energy (T->0) per atom                          :        -694.34636321 eV  <-- do not rely on this value for anything but (periodic) metals
  | Electronic free energy per atom                       :        -694.34636321 eV

  Self-consistency convergence accuracy:
  | Change of charge density      : 0.2913E+00
  | Change of sum of eigenvalues  : -.5932E+01 eV
  | Change of total energy        : 0.2206E+00 eV

  End self-consistency iteration #     3       :  max(cpu_time)    wall_clock(cpu1)
  | Time for this iteration                    :        4.030 s           4.030 s
  | Charge density update                      :        1.316 s           1.316 s
  | Density mixing                             :        0.010 s           0.009 s
  | Hartree multipole update                   :        0.006 s           0.007 s
  | Hartree multipole summation                :        0.627 s           0.626 s
  | Integration                                :        1.952 s           1.952 s
  | Solution of K.-S. eqns.                    :        0.119 s           0.120 s
  | Total energy evaluation                    :        0.000 s           0.000 s
------------------------------------------------------------

------------------------------------------------------------
          Begin self-consistency iteration #    4

  Date     :  20150727, Time     :  113343.970
------------------------------------------------------------
  Evaluating new KS density.
  Integration grid: deviation in total charge (<rho> - N_e) =   1.421085E-14
  Pulay mixing of updated and previous charge densities.

  Evaluating partitioned Hartree potential by multipole expansion.
  | Analytical far-field extrapolation by fixed multipoles:
  | Hartree multipole sum: apparent total charge =  -0.120667E-04
  Summing up the Hartree potential.
  Time summed over all CPUs for potential: real work        4.982 s, elapsed        5.002 s
  | RMS charge density error from multipole expansion :   0.208808E-01

  Integrating Hamiltonian matrix: batch-based integration.
  Time summed over all CPUs for integration: real work       15.211 s, elapsed       15.593 s

  Updating Kohn-Sham eigenvalues, eigenvectors, occupation numbers, and Fermi level.
  Solving generalized eigenproblem
  Updating Kohn-Sham eigenvalues and eigenfunctions.
  Solving real generalised eigenvalue problem by standard LAPACK (fast)
  Determining occupation numbers for Kohn-Sham eigenstates.
  | Chemical potential (Fermi level) in eV                 : -.29412052E+01
  | Error in electron count due to remaining E_F inaccuracy: 0.00000000E+00
  | Maximum occupation number of highest empty state:  0.00E+00

  Highest occupied state (VBM) at     -3.07570376 eV
  | Occupation number:      2.00000000

  Lowest unoccupied state (CBM) at    -2.11439210 eV
  | Occupation number:      0.00000000

  Overall HOMO-LUMO gap:      0.96131166 eV.

  Total energy components:
  | Sum of eigenvalues            :        -289.71452609 Ha       -7883.53336480 eV
  | XC energy correction          :         -65.29724880 Ha       -1776.82854402 eV
  | XC potential correction       :          83.48036544 Ha        2271.61632207 eV
  | Free-atom electrostatic energy:        -250.18995816 Ha       -6808.01514943 eV
  | Hartree energy correction     :         -14.11381425 Ha        -384.05642630 eV
  | van der Waals energy corr.    :           0.00000000 Ha           0.00000000 eV
  | Entropy correction            :           0.00000000 Ha           0.00000000 eV
  | ---------------------------
  | Total energy                  :        -535.83518187 Ha      -14580.81716248 eV
  | Total energy, T -> 0          :        -535.83518187 Ha      -14580.81716248 eV  <-- do not rely on this value for anything but (periodic) metals
  | Electronic free energy        :        -535.83518187 Ha      -14580.81716248 eV

  Derived energy quantities:
  | Kinetic energy                :         534.45829565 Ha       14543.35018215 eV
  | Electrostatic energy          :       -1004.99622872 Ha      -27347.33880062 eV
  | Energy correction for multipole
  | error in Hartree potential    :          -0.01040248 Ha          -0.28306598 eV
  | Sum of eigenvalues per atom                           :        -375.40635070 eV
  | Total energy (T->0) per atom                          :        -694.32462678 eV  <-- do not rely on this value for anything but (periodic) metals
  | Electronic free energy per atom                       :        -694.32462678 eV

  Self-consistency convergence accuracy:
  | Change of charge density      : 0.1636E+00
  | Change of sum of eigenvalues  : 0.7465E+02 eV
  | Change of total energy        : 0.4565E+00 eV

  End self-consistency iteration #     4       :  max(cpu_time)    wall_clock(cpu1)
  | Time for this iteration                    :        4.034 s           4.034 s
  | Charge density update                      :        1.316 s           1.315 s
  | Density mixing                             :        0.012 s           0.012 s
  | Hartree multipole update                   :        0.007 s           0.007 s
  | Hartree multipole summation                :        0.626 s           0.626 s
  | Integration                                :        1.953 s           1.953 s
  | Solution of K.-S. eqns.                    :        0.120 s           0.120 s
  | Total energy evaluation                    :        0.001 s           0.000 s
------------------------------------------------------------

------------------------------------------------------------
          Begin self-consistency iteration #    5

  Date     :  20150727, Time     :  113348.004
------------------------------------------------------------
  Evaluating new KS density.
  Integration grid: deviation in total charge (<rho> - N_e) =   5.684342E-14
  Pulay mixing of updated and previous charge densities.

  Evaluating partitioned Hartree potential by multipole expansion.
  | Analytical far-field extrapolation by fixed multipoles:
  | Hartree multipole sum: apparent total charge =  -0.120299E-04
  Summing up the Hartree potential.
  Time summed over all CPUs for potential: real work        4.982 s, elapsed        5.002 s
  | RMS charge density error from multipole expansion :   0.212859E-01

  Integrating Hamiltonian matrix: batch-based integration.
  Time summed over all CPUs for integration: real work       15.211 s, elapsed       15.597 s

  Updating Kohn-Sham eigenvalues, eigenvectors, occupation numbers, and Fermi level.
  Solving generalized eigenproblem
  Updating Kohn-Sham eigenvalues and eigenfunctions.
  Solving real generalised eigenvalue problem by standard LAPACK (fast)
  Determining occupation numbers for Kohn-Sham eigenstates.
  | Chemical potential (Fermi level) in eV                 : -.29318569E+01
  | Error in electron count due to remaining E_F inaccuracy: 0.00000000E+00
  | Maximum occupation number of highest empty state:  0.00E+00

  Highest occupied state (VBM) at     -3.05041810 eV
  | Occupation number:      2.00000000

  Lowest unoccupied state (CBM) at    -2.09969152 eV
  | Occupation number:      0.00000000

  Overall HOMO-LUMO gap:      0.95072658 eV.

  Total energy components:
  | Sum of eigenvalues            :        -289.69980858 Ha       -7883.13288080 eV
  | XC energy correction          :         -65.30689168 Ha       -1777.09094014 eV
  | XC potential correction       :          83.49216544 Ha        2271.93741645 eV
  | Free-atom electrostatic energy:        -250.18995816 Ha       -6808.01514943 eV
  | Hartree energy correction     :         -14.13046896 Ha        -384.50962403 eV
  | van der Waals energy corr.    :           0.00000000 Ha           0.00000000 eV
  | Entropy correction            :           0.00000000 Ha           0.00000000 eV
  | ---------------------------
  | Total energy                  :        -535.83496194 Ha      -14580.81117795 eV
  | Total energy, T -> 0          :        -535.83496194 Ha      -14580.81117795 eV  <-- do not rely on this value for anything but (periodic) metals
  | Electronic free energy        :        -535.83496194 Ha      -14580.81117795 eV

  Derived energy quantities:
  | Kinetic energy                :         534.53301295 Ha       14545.38334342 eV
  | Electrostatic energy          :       -1005.06108321 Ha      -27349.10358123 eV
  | Energy correction for multipole
  | error in Hartree potential    :          -0.01048497 Ha          -0.28531045 eV
  | Sum of eigenvalues per atom                           :        -375.38728004 eV
  | Total energy (T->0) per atom                          :        -694.32434181 eV  <-- do not rely on this value for anything but (periodic) metals
  | Electronic free energy per atom                       :        -694.32434181 eV

  Self-consistency convergence accuracy:
  | Change of charge density      : 0.2919E-01
  | Change of sum of eigenvalues  : 0.4005E+00 eV
  | Change of total energy        : 0.5985E-02 eV

  End self-consistency iteration #     5       :  max(cpu_time)    wall_clock(cpu1)
  | Time for this iteration                    :        4.035 s           4.036 s
  | Charge density update                      :        1.316 s           1.316 s
  | Density mixing                             :        0.014 s           0.013 s
  | Hartree multipole update                   :        0.007 s           0.007 s
  | Hartree multipole summation                :        0.626 s           0.626 s
  | Integration                                :        1.953 s           1.953 s
  | Solution of K.-S. eqns.                    :        0.120 s           0.120 s
  | Total energy evaluation                    :        0.000 s           0.000 s
------------------------------------------------------------

------------------------------------------------------------
          Begin self-consistency iteration #    6

  Date     :  20150727, Time     :  113352.040
------------------------------------------------------------
  Evaluating new KS density.
  Integration grid: deviation in total charge (<rho> - N_e) =   4.263256E-14
  Pulay mixing of updated and previous charge densities.

  Evaluating partitioned Hartree potential by multipole expansion.
  | Analytical far-field extrapolation by fixed multipoles:
  | Hartree multipole sum: apparent total charge =  -0.119687E-04
  Summing up the Hartree potential.
  Time summed over all CPUs for potential: real work        4.982 s, elapsed        5.002 s
  | RMS charge density error from multipole expansion :   0.214541E-01

  Integrating Hamiltonian matrix: batch-based integration.
  Time summed over all CPUs for integration: real work       15.209 s, elapsed       15.592 s

  Updating Kohn-Sham eigenvalues, eigenvectors, occupation numbers, and Fermi level.
  Solving generalized eigenproblem
  Updating Kohn-Sham eigenvalues and eigenfunctions.
  Solving real generalised eigenvalue problem by standard LAPACK (fast)
  Determining occupation numbers for Kohn-Sham eigenstates.
  | Chemical potential (Fermi level) in eV                 : -.29365209E+01
  | Error in electron count due to remaining E_F inaccuracy: 0.00000000E+00
  | Maximum occupation number of highest empty state:  0.00E+00

  Highest occupied state (VBM) at     -3.07977073 eV
  | Occupation number:      2.00000000

  Lowest unoccupied state (CBM) at    -2.09510124 eV
  | Occupation number:      0.00000000

  Overall HOMO-LUMO gap:      0.98466949 eV.

  Total energy components:
  | Sum of eigenvalues            :        -289.73847481 Ha       -7884.18504242 eV
  | XC energy correction          :         -65.30654667 Ha       -1777.08155191 eV
  | XC potential correction       :          83.49129041 Ha        2271.91360581 eV
  | Free-atom electrostatic energy:        -250.18995816 Ha       -6808.01514943 eV
  | Hartree energy correction     :         -14.09121829 Ha        -383.44155904 eV
  | van der Waals energy corr.    :           0.00000000 Ha           0.00000000 eV
  | Entropy correction            :           0.00000000 Ha           0.00000000 eV
  | ---------------------------
  | Total energy                  :        -535.83490752 Ha      -14580.80969698 eV
  | Total energy, T -> 0          :        -535.83490752 Ha      -14580.80969698 eV  <-- do not rely on this value for anything but (periodic) metals
  | Electronic free energy        :        -535.83490752 Ha      -14580.80969698 eV

  Derived energy quantities:
  | Kinetic energy                :         534.55568122 Ha       14546.00017838 eV
  | Electrostatic energy          :       -1005.08404207 Ha      -27349.72832345 eV
  | Energy correction for multipole
  | error in Hartree potential    :          -0.01051263 Ha          -0.28606320 eV
  | Sum of eigenvalues per atom                           :        -375.43738297 eV
  | Total energy (T->0) per atom                          :        -694.32427128 eV  <-- do not rely on this value for anything but (periodic) metals
  | Electronic free energy per atom                       :        -694.32427128 eV

  Self-consistency convergence accuracy:
  | Change of charge density      : 0.1522E-01
  | Change of sum of eigenvalues  : -.1052E+01 eV
  | Change of total energy        : 0.1481E-02 eV

  End self-consistency iteration #     6       :  max(cpu_time)    wall_clock(cpu1)
  | Time for this iteration                    :        4.035 s           4.035 s
  | Charge density update                      :        1.314 s           1.313 s
  | Density mixing                             :        0.016 s           0.016 s
  | Hartree multipole update                   :        0.007 s           0.007 s
  | Hartree multipole summation                :        0.626 s           0.626 s
  | Integration                                :        1.953 s           1.952 s
  | Solution of K.-S. eqns.                    :        0.120 s           0.120 s
  | Total energy evaluation                    :        0.000 s           0.001 s
------------------------------------------------------------

------------------------------------------------------------
          Begin self-consistency iteration #    7

  Date     :  20150727, Time     :  113356.075
------------------------------------------------------------
  Evaluating new KS density.
  Integration grid: deviation in total charge (<rho> - N_e) =   4.263256E-14
  Pulay mixing of updated and previous charge densities.

  Evaluating partitioned Hartree potential by multipole expansion.
  | Analytical far-field extrapolation by fixed multipoles:
  | Hartree multipole sum: apparent total charge =  -0.116906E-04
  Summing up the Hartree potential.
  Time summed over all CPUs for potential: real work        4.982 s, elapsed        5.003 s
  | RMS charge density error from multipole expansion :   0.214390E-01

  Integrating Hamiltonian matrix: batch-based integration.
  Time summed over all CPUs for integration: real work       15.214 s, elapsed       15.586 s

  Updating Kohn-Sham eigenvalues, eigenvectors, occupation numbers, and Fermi level.
  Solving generalized eigenproblem
  Updating Kohn-Sham eigenvalues and eigenfunctions.
  Solving real generalised eigenvalue problem by standard LAPACK (fast)
  Determining occupation numbers for Kohn-Sham eigenstates.
  | Chemical potential (Fermi level) in eV                 : -.29813137E+01
  | Error in electron count due to remaining E_F inaccuracy: 0.00000000E+00
  | Maximum occupation number of highest empty state:  0.00E+00

  Highest occupied state (VBM) at     -3.26838667 eV
  | Occupation number:      2.00000000

  Lowest unoccupied state (CBM) at    -2.09498557 eV
  | Occupation number:      0.00000000

  Overall HOMO-LUMO gap:      1.17340109 eV.

  Total energy components:
  | Sum of eigenvalues            :        -289.95777097 Ha       -7890.15239475 eV
  | XC energy correction          :         -65.28878943 Ha       -1776.59835285 eV
  | XC potential correction       :          83.46737301 Ha        2271.26278014 eV
  | Free-atom electrostatic energy:        -250.18995816 Ha       -6808.01514943 eV
  | Hartree energy correction     :         -13.86562896 Ha        -377.30296096 eV
  | van der Waals energy corr.    :           0.00000000 Ha           0.00000000 eV
  | Entropy correction            :           0.00000000 Ha           0.00000000 eV
  | ---------------------------
  | Total energy                  :        -535.83477452 Ha      -14580.80607784 eV
  | Total energy, T -> 0          :        -535.83477452 Ha      -14580.80607784 eV  <-- do not rely on this value for anything but (periodic) metals
  | Electronic free energy        :        -535.83477452 Ha      -14580.80607784 eV

  Derived energy quantities:
  | Kinetic energy                :         534.62791978 Ha       14547.96588945 eV
  | Electrostatic energy          :       -1005.17390486 Ha      -27352.17361444 eV
  | Energy correction for multipole
  | error in Hartree potential    :          -0.01035061 Ha          -0.28165450 eV
  | Sum of eigenvalues per atom                           :        -375.72154261 eV
  | Total energy (T->0) per atom                          :        -694.32409894 eV  <-- do not rely on this value for anything but (periodic) metals
  | Electronic free energy per atom                       :        -694.32409894 eV

  Self-consistency convergence accuracy:
  | Change of charge density      : 0.1188E-01
  | Change of sum of eigenvalues  : -.5967E+01 eV
  | Change of total energy        : 0.3619E-02 eV

  End self-consistency iteration #     7       :  max(cpu_time)    wall_clock(cpu1)
  | Time for this iteration                    :        4.036 s           4.036 s
  | Charge density update                      :        1.314 s           1.313 s
  | Density mixing                             :        0.017 s           0.018 s
  | Hartree multipole update                   :        0.006 s           0.007 s
  | Hartree multipole summation                :        0.627 s           0.626 s
  | Integration                                :        1.952 s           1.952 s
  | Solution of K.-S. eqns.                    :        0.119 s           0.119 s
  | Total energy evaluation                    :        0.000 s           0.000 s
------------------------------------------------------------

------------------------------------------------------------
          Begin self-consistency iteration #    8

  Date     :  20150727, Time     :  113400.111
------------------------------------------------------------
  Evaluating new KS density.
  Integration grid: deviation in total charge (<rho> - N_e) =   4.263256E-14
  Pulay mixing of updated and previous charge densities.

  Evaluating partitioned Hartree potential by multipole expansion.
  | Analytical far-field extrapolation by fixed multipoles:
  | Hartree multipole sum: apparent total charge =  -0.117330E-04
  Summing up the Hartree potential.
  Time summed over all CPUs for potential: real work        5.014 s, elapsed        5.104 s
  | RMS charge density error from multipole expansion :   0.215307E-01

  Integrating Hamiltonian matrix: batch-based integration.
  Time summed over all CPUs for integration: real work       15.219 s, elapsed       15.589 s

  Updating Kohn-Sham eigenvalues, eigenvectors, occupation numbers, and Fermi level.
  Solving generalized eigenproblem
  Updating Kohn-Sham eigenvalues and eigenfunctions.
  Solving real generalised eigenvalue problem by standard LAPACK (fast)
  Determining occupation numbers for Kohn-Sham eigenstates.
  | Chemical potential (Fermi level) in eV                 : -.29745491E+01
  | Error in electron count due to remaining E_F inaccuracy: 0.00000000E+00
  | Maximum occupation number of highest empty state:  0.00E+00

  Highest occupied state (VBM) at     -3.22153081 eV
  | Occupation number:      2.00000000

  Lowest unoccupied state (CBM) at    -2.09652197 eV
  | Occupation number:      0.00000000

  Overall HOMO-LUMO gap:      1.12500884 eV.

  Total energy components:
  | Sum of eigenvalues            :        -289.91119908 Ha       -7888.88510896 eV
  | XC energy correction          :         -65.29318471 Ha       -1776.71795428 eV
  | XC potential correction       :          83.47309164 Ha        2271.41839200 eV
  | Free-atom electrostatic energy:        -250.18995816 Ha       -6808.01514943 eV
  | Hartree energy correction     :         -13.91352100 Ha        -378.60616979 eV
  | van der Waals energy corr.    :           0.00000000 Ha           0.00000000 eV
[...]
  Timings for vdw_correction_hirshfeld (Tkatchenko-Scheffler 2009):
  | CPU time:       10.880 s, Wall clock time:       10.881 s.
  Removing unitary transformations (pure translations, rotations) from forces on atoms.
  Atomic forces before filtering:
  | Net force on center of mass :  0.879513E-02 0.508922E-02 0.354203E-02 eV/A
  | Net torque on center of mass:  -.157897E-02 -.658774E-03 -.306221E-02 eV
  Atomic forces after filtering:
  | Net force on center of mass :  -.535218E-15 0.356812E-15 -.124884E-14 eV/A
  | Net torque on center of mass:  0.188817E-15 0.755268E-15 -.377634E-15 eV
 
  Energy and forces in a compact form:
  | Total energy uncorrected      :         -0.145809372479359E+05 eV
  | Total energy corrected        :         -0.145809372479359E+05 eV  <-- do not rely on this value for anything but (periodic) metals
  | Electronic free energy        :         -0.145809372479359E+05 eV
  Total atomic forces (unitary forces cleaned) [eV/Ang]:
  |   1         -0.648209998857235E+00          0.268241197719457E+01         -0.189370156947487E+01
  |   2          0.211781007985899E+01         -0.358341493544362E+01          0.141728726112608E+01
  |   3         -0.191067263680712E+01         -0.577402698025210E+00         -0.214225740928183E+00
  |   4         -0.674593456563714E+00         -0.196763289711743E+01         -0.419402489731732E+00
  |   5         -0.304475335640353E+00          0.685857848324295E+00          0.980224176918059E+00
  |   6          0.611207095669847E+00          0.711119182394017E+00          0.198570253113008E+00
  |   7         -0.683691520336550E-01          0.134507936403557E+01          0.255094298194489E+01
  |   8         -0.324281372114551E+00         -0.705113070022355E+00         -0.509310796664096E+00
  |   9         -0.246849263313621E+00          0.450017127948264E+00         -0.246186513979813E+01
  |  10          0.317090500298558E+01         -0.890229380398983E-01          0.104360600648562E+01
  |  11         -0.308371556558183E+00         -0.418861618357295E+00         -0.734972905184810E+00
  |  12         -0.161403339995667E+01          0.958433945608136E+00         -0.344795810423832E+00
  |  13         -0.493965253898222E+00          0.106112909896363E+01          0.256178554591421E+01
  |  14         -0.275729390611406E+00          0.173617216143806E+00         -0.219139281970731E+01
  |  15          0.995812954838397E+00         -0.121164711662753E+01          0.282031266671672E+00
  |  16          0.153613436663500E+01          0.905561869320788E+00         -0.207139672526841E+01
  |  17         -0.377922154468083E+00         -0.220348965288866E+00          0.230136050775914E+00
  |  18         -0.897191805304927E+00         -0.548589265375258E+00          0.171961659123846E+01
  |  19          0.101966700121600E+01          0.545290582410062E+00         -0.198224298518902E+01
  |  20         -0.373944761510754E+00          0.625181025076279E+00          0.375552429821515E+00
  |  21         -0.932926963565324E+00         -0.821665733121947E+00          0.146355441836096E+01
 
  ------------------------------------ 
  Start decomposition of the XC Energy 
  ------------------------------------ 
  Hartree-Fock part   :          0.000000000 Ha              0.000000000 eV
  ------------------------------------ 
  X Energy            :        -62.988121841 Ha          -1713.994002360 eV
  C Energy GGA        :         -2.303754016 Ha            -62.688336325 eV
  Total XC Energy     :        -65.291875858 Ha          -1776.682338685 eV
  LDA X and C from self-consistent density 
  X Energy LDA        :        -56.796753975 Ha          -1545.518310768 eV
  C Energy LDA        :         -4.625906750 Ha           -125.877327243 eV
  ------------------------------------ 
  End decomposition of the XC Energy 
  ------------------------------------ 
  Performing Hirshfeld analysis of fragment charges and moments.
  ----------------------------------------------------------------------
  | Atom     1: O
  |   Hirshfeld charge        :     -0.40278827
  |   Free atom volume        :     23.95238533
  |   Hirshfeld volume        :     24.65989148
  |   Hirshfeld dipole vector :      0.02921378       0.06790241       0.03419193
  |   Hirshfeld dipole moment :      0.08144489
  |   Hirshfeld second moments:     -0.01429549      -0.02292559       0.01491868
  |                                 -0.02292559      -0.07554425      -0.03552400
  |                                  0.01491868      -0.03552400      -0.09685596
  ----------------------------------------------------------------------
  | Atom     2: H
  |   Hirshfeld charge        :      0.04998679
  |   Free atom volume        :     10.44207651
  |   Hirshfeld volume        :      8.81153168
  |   Hirshfeld dipole vector :     -0.02303239       0.04619017      -0.00838564
  |   Hirshfeld dipole moment :      0.05229094
  |   Hirshfeld second moments:      0.06058813       0.02680603       0.00324615
  |                                  0.02680603       0.01774377       0.00532142
  |                                  0.00324615       0.00532142       0.05422485
  ----------------------------------------------------------------------
  | Atom     3: H
  |   Hirshfeld charge        :      0.04132553
  |   Free atom volume        :     10.44207651
  |   Hirshfeld volume        :      9.08024906
  |   Hirshfeld dipole vector :      0.04581172       0.01497760       0.01977365
  |   Hirshfeld dipole moment :      0.05209644
  |   Hirshfeld second moments:      0.01620586      -0.02881594      -0.00172105
  |                                 -0.02881594       0.05681924      -0.00779127
  |                                 -0.00172105      -0.00779127       0.04308991
  ----------------------------------------------------------------------
  | Atom     4: O
  |   Hirshfeld charge        :     -0.30928145
  |   Free atom volume        :     23.95238533
  |   Hirshfeld volume        :     22.58285529
  |   Hirshfeld dipole vector :     -0.02885758       0.02477338       0.01051946
  |   Hirshfeld dipole moment :      0.03946060
  |   Hirshfeld second moments:      0.01503338       0.05551644      -0.01177960
  |                                  0.05551644       0.00762412       0.01835611
  |                                 -0.01177960       0.01835611      -0.01800321
  ----------------------------------------------------------------------
  | Atom     5: H
  |   Hirshfeld charge        :      0.06846954
  |   Free atom volume        :     10.44207651
  |   Hirshfeld volume        :      8.17198178
  |   Hirshfeld dipole vector :      0.01550115       0.04440950       0.02878009
  |   Hirshfeld dipole moment :      0.05514330
  |   Hirshfeld second moments:      0.08195032       0.00157392      -0.01232010
  |                                  0.00157392       0.03418327      -0.01759630
  |                                 -0.01232010      -0.01759630       0.06637107
  ----------------------------------------------------------------------
  | Atom     6: H
  |   Hirshfeld charge        :      0.11769069
  |   Free atom volume        :     10.44207651
  |   Hirshfeld volume        :      7.15214595
  |   Hirshfeld dipole vector :     -0.10065741      -0.05938510       0.01759048
  |   Hirshfeld dipole moment :      0.11818600
  |   Hirshfeld second moments:      0.08781162       0.01444363      -0.00041190
  |                                  0.01444363       0.10215425       0.01236098
  |                                 -0.00041190       0.01236098       0.08919147
  ----------------------------------------------------------------------
  | Atom     7: O
  |   Hirshfeld charge        :     -0.17570368
  |   Free atom volume        :     23.95238533
  |   Hirshfeld volume        :     20.15649631
  |   Hirshfeld dipole vector :      0.03450656      -0.01571154      -0.01668119
  |   Hirshfeld dipole moment :      0.04142242
  |   Hirshfeld second moments:      0.04487261       0.02230571       0.02925458
  |                                  0.02230571       0.08781544       0.01199625
  |                                  0.02925458       0.01199625       0.10743176
  ----------------------------------------------------------------------
  | Atom     8: H
  |   Hirshfeld charge        :      0.16864230
  |   Free atom volume        :     10.44207651
  |   Hirshfeld volume        :      6.31553645
  |   Hirshfeld dipole vector :      0.05748463       0.08529721       0.04066801
  |   Hirshfeld dipole moment :      0.11060734
  |   Hirshfeld second moments:      0.10433083      -0.00184111       0.00095632
  |                                 -0.00184111       0.11935383      -0.00465480
  |                                  0.00095632      -0.00465480       0.13342526
  ----------------------------------------------------------------------
  | Atom     9: H
  |   Hirshfeld charge        :      0.16884132
  |   Free atom volume        :     10.44207651
  |   Hirshfeld volume        :      5.92072730
  |   Hirshfeld dipole vector :     -0.01643527       0.00639639      -0.11909749
  |   Hirshfeld dipole moment :      0.12039620
  |   Hirshfeld second moments:      0.12176489       0.01263721       0.00918081
  |                                  0.01263721       0.13429592       0.00361205
  |                                  0.00918081       0.00361205       0.12632967
  ----------------------------------------------------------------------
  | Atom    10: O
  |   Hirshfeld charge        :     -0.21827274
  |   Free atom volume        :     23.95238533
  |   Hirshfeld volume        :     21.32289050
  |   Hirshfeld dipole vector :     -0.02322439      -0.02963097       0.03799509
  |   Hirshfeld dipole moment :      0.05348825
  |   Hirshfeld second moments:      0.05919987      -0.02765011       0.00716878
  |                                 -0.02765011       0.05452182       0.03005879
  |                                  0.00716878       0.03005879       0.01928767
  ----------------------------------------------------------------------
  | Atom    11: H
  |   Hirshfeld charge        :      0.10348876
  |   Free atom volume        :     10.44207651
  |   Hirshfeld volume        :      7.65542746
  |   Hirshfeld dipole vector :      0.00922299       0.01940186       0.04747890
  |   Hirshfeld dipole moment :      0.05211278
  |   Hirshfeld second moments:      0.10415490      -0.00024549       0.00895021
  |                                 -0.00024549       0.06721651      -0.02492215
  |                                  0.00895021      -0.02492215       0.05637270
  ----------------------------------------------------------------------
  | Atom    12: H
  |   Hirshfeld charge        :      0.15069834
  |   Free atom volume        :     10.44207651
  |   Hirshfeld volume        :      6.31551789
  |   Hirshfeld dipole vector :      0.08710997      -0.07768251       0.01492933
  |   Hirshfeld dipole moment :      0.11766734
  |   Hirshfeld second moments:      0.11444741       0.00004799       0.00038144
  |                                  0.00004799       0.11606454       0.01451037
  |                                  0.00038144       0.01451037       0.11608806
  ----------------------------------------------------------------------
  | Atom    13: O
  |   Hirshfeld charge        :     -0.19082695
  |   Free atom volume        :     23.95238533
  |   Hirshfeld volume        :     20.32467734
  |   Hirshfeld dipole vector :     -0.00297043      -0.01154832      -0.01442221
  |   Hirshfeld dipole moment :      0.01871329
  |   Hirshfeld second moments:      0.06120902      -0.01400969       0.00602729
  |                                 -0.01400969       0.05741475      -0.00659971
  |                                  0.00602729      -0.00659971       0.09891479
  ----------------------------------------------------------------------
  | Atom    14: H
  |   Hirshfeld charge        :      0.16246513
  |   Free atom volume        :     10.44207651
  |   Hirshfeld volume        :      5.88686696
  |   Hirshfeld dipole vector :      0.01776863      -0.01598839       0.11375966
  |   Hirshfeld dipole moment :      0.11624377
  |   Hirshfeld second moments:      0.13013209      -0.00816902      -0.00040662
  |                                 -0.00816902       0.12396097       0.00028393
  |                                 -0.00040662       0.00028393       0.12147267
  ----------------------------------------------------------------------
  | Atom    15: H
  |   Hirshfeld charge        :      0.10415008
  |   Free atom volume        :     10.44207651
  |   Hirshfeld volume        :      7.30079772
  |   Hirshfeld dipole vector :     -0.02781000       0.02311118       0.00266308
  |   Hirshfeld dipole moment :      0.03625762
  |   Hirshfeld second moments:      0.06698488       0.02367357      -0.01825579
  |                                  0.02367357       0.06843336       0.01265219
  |                                 -0.01825579       0.01265219       0.11060267
  ----------------------------------------------------------------------
  | Atom    16: O
  |   Hirshfeld charge        :     -0.25779074
  |   Free atom volume        :     23.95238533
  |   Hirshfeld volume        :     20.87595493
  |   Hirshfeld dipole vector :      0.01455472      -0.02893625       0.02575257
  |   Hirshfeld dipole moment :      0.04138045
  |   Hirshfeld second moments:      0.06929281       0.03841600      -0.00764680
  |                                  0.03841600       0.03967674       0.01811079
  |                                 -0.00764680       0.01811079       0.04094045
  ----------------------------------------------------------------------
  | Atom    17: H
  |   Hirshfeld charge        :      0.15205180
  |   Free atom volume        :     10.44207651
  |   Hirshfeld volume        :      6.04593144
  |   Hirshfeld dipole vector :      0.09952897       0.06018712       0.03519361
  |   Hirshfeld dipole moment :      0.12151994
  |   Hirshfeld second moments:      0.11928619       0.00803476      -0.01016649
  |                                  0.00803476       0.11651141      -0.00002990
  |                                 -0.01016649      -0.00002990       0.12428731
  ----------------------------------------------------------------------
  | Atom    18: H
  |   Hirshfeld charge        :      0.09679290
  |   Free atom volume        :     10.44207651
  |   Hirshfeld volume        :      7.45956022
  |   Hirshfeld dipole vector :     -0.02155787      -0.02191348       0.03146249
  |   Hirshfeld dipole moment :      0.04398671
  |   Hirshfeld second moments:      0.07679441      -0.00558127       0.03378626
  |                                 -0.00558127       0.08844924       0.01715753
  |                                  0.03378626       0.01715753       0.07084747
  ----------------------------------------------------------------------
  | Atom    19: O
  |   Hirshfeld charge        :     -0.18506355
  |   Free atom volume        :     23.95238533
  |   Hirshfeld volume        :     19.96251670
  |   Hirshfeld dipole vector :      0.01855561       0.01093965       0.01111505
  |   Hirshfeld dipole moment :      0.02423904
  |   Hirshfeld second moments:      0.06431739      -0.02229657      -0.04026712
  |                                 -0.02229657       0.07813716      -0.00669472
  |                                 -0.04026712      -0.00669472       0.09706220
  ----------------------------------------------------------------------
  | Atom    20: H
  |   Hirshfeld charge        :      0.17430590
  |   Free atom volume        :     10.44207651
  |   Hirshfeld volume        :      5.44187863
  |   Hirshfeld dipole vector :     -0.06205326       0.08257828       0.06700343
  |   Hirshfeld dipole moment :      0.12312287
  |   Hirshfeld second moments:      0.13186952       0.00040953      -0.00926556
  |                                  0.00040953       0.13395439      -0.01217900
  |                                 -0.00926556      -0.01217900       0.14176666
  ----------------------------------------------------------------------
  | Atom    21: H
  |   Hirshfeld charge        :      0.18078298
  |   Free atom volume        :     10.44207651
  |   Hirshfeld volume        :      6.06457275
  |   Hirshfeld dipole vector :      0.05098055       0.05157145      -0.08716249
  |   Hirshfeld dipole moment :      0.11338399
  |   Hirshfeld second moments:      0.11296650      -0.01067627      -0.00234900
  |                                 -0.01067627       0.13617110       0.00381157
  |                                 -0.00234900       0.00381157       0.12457392
  ----------------------------------------------------------------------


------------------------------------------------------------------------------
  Final output of selected total energy values:

  The following output summarizes some interesting total energy values
  at the end of a run (AFTER all relaxation, molecular dynamics, etc.).

  | Total energy of the DFT / Hartree-Fock s.c.f. calculation      :         -14580.937247936 eV
  | Final zero-broadening corrected energy (caution - metals only) :         -14580.937247936 eV
  | For reference only, the value of 1 Hartree used in FHI-aims is :             27.211384500 eV

  Before relying on these values, please be sure to understand exactly which
  total energy value is referred to by a given number. Different objects may
  all carry the same name 'total energy'. Definitions:

  Total energy of the DFT / Hartree-Fock s.c.f. calculation:
  | Note that this energy does not include ANY quantities calculated after the
  | s.c.f. cycle, in particular not ANY RPA, MP2, etc. many-body perturbation terms.

  Final zero-broadening corrected energy:
  | For metallic systems only, a broadening of the occupation numbers at the Fermi
  | level can be extrapolated back to zero broadening by an electron-gas inspired
  | formula. For all systems that are not real metals, this value can be
  | meaningless and should be avoided.

------------------------------------------------------------------------------

------------------------------------------------------------
          Leaving FHI-aims.
          Date     :  20150727, Time     :  113440.617

          Computational steps:
          | Number of self-consistency cycles          :           15

          Detailed time accounting                     :  max(cpu_time)    wall_clock(cpu1)
          | Total time                                 :       73.410 s          73.476 s
          | Preparation time                           :        0.171 s           0.596 s
          | Grid partitioning                          :        0.233 s           0.233 s
          | Preloading free-atom quantities on grid    :        0.013 s           0.014 s
          | Free-atom superposition energy             :        0.116 s           0.115 s
          | Total time for integrations                :       32.317 s          32.319 s
          | Total time for solution of K.-S. equations :        2.235 s           2.238 s
          | Total time for density & force components  :       25.516 s          25.518 s
          | Total time for mixing                      :        0.270 s           0.277 s
          | Total time for Hartree multipole update    :        0.101 s           0.105 s
          | Total time for Hartree multipole sum       :       11.506 s          11.503 s
          | Total time for total energy evaluation     :        0.002 s           0.007 s
          | Total time for scaled ZORA corrections     :        0.000 s           0.000 s
          | Total time for TS (2009) vdW correction    :        0.097 s           0.097 s

          Have a nice day.
------------------------------------------------------------
