  MPI-parallelism will be employed.
------------------------------------------------------------
          Invoking FHI-aims ...
          Version 081213
          Compiled on 2013/08/29 at 17:41:06 on host generoso.

          When using FHI-aims, please cite the following reference:

          Volker Blum, Ralf Gehrke, Felix Hanke, Paula Havu,
          Ville Havu, Xinguo Ren, Karsten Reuter, and Matthias Scheffler,
          'Ab Initio Molecular Simulations with Numeric Atom-Centered Orbitals: FHI-aims',
          Computer Physics Communications 180, 2175-2196 (2009)

          For any questions about FHI-aims, please visit the aimsclub website
          with its forums and wiki. Contributions to both the forums and the
          wiki are warmly encouraged - they are for you, and everyone is welcome there.

------------------------------------------------------------

  Date     :  20150727, Time     :  121013.008
  Time zero on CPU 1             :   0.509920000000000E-01  s.
  Internal wall clock time zero  :           207231013.008  s.

  Using        8 parallel tasks.
  Task        0 on host gen60 reporting.
  Task        1 on host gen60 reporting.
  Task        2 on host gen60 reporting.
  Task        3 on host gen60 reporting.
  Task        4 on host gen60 reporting.
  Task        5 on host gen60 reporting.
  Task        6 on host gen60 reporting.
  Task        7 on host gen60 reporting.

  Performing system and environment tests:
  | Environment variable OMP_NUM_THREADS correctly set to 1.
  | Checking for scalapack...
  | No scalapack compiled in.

  Obtaining array dimensions for all initial allocations:
  
  -----------------------------------------------------------------------
  Parsing control.in (first pass over file, find array dimensions only).
  The contents of control.in will be repeated verbatim below
  unless switched off by setting 'verbatim_writeout .false.' .
  in the first line of control.in .
  -----------------------------------------------------------------------
  
  #########################################################################################
  #
  #  Volker Blum, FHI 2008 : Test run input file control.in
  #
  #########################################################################################
  #
  #  Physical model
  #
    xc                 rpbe
    spin               none
    relativistic       atomic_zora scalar
    charge             0.
   vdw_correction_hirshfeld
  #
  #  SCF convergence
  #
    occupation_type    gaussian 0.01
    mixer              pulay
      n_max_pulay        10
      charge_mix_param   0.1
    sc_accuracy_rho    5E-5
    sc_accuracy_eev    5E-3
    sc_accuracy_etot   5E-6
    sc_iter_limit      3000
  #
  #  Eigenvalue solver
  #
    KS_method          lapack
      empty_states       8
      basis_threshold    0.e-5
  #
  #  Efficiency
  #
  #   all previous settings are now default, except stratmann still
  #   undecided. Continue to handle stratmann with care, if at all.
  #
  #  partition_type stratmann
    partition_type rho_r2
  #  hartree_partition_type stratmann
  #
  #  Oprions for large clusters (100's of atoms: memory saving / better scaling)
  #
  # for periodic systems:
  #
    density_update_method orbital
    packed_matrix_format none
  #  k_grid 6 6 6
  #  output k_eigenvalue 1
  #  distributed_spline_storage .true.
  #
  #  Relaxation
  #
  #  relax_geometry   bfgs 5.e-3
    sc_accuracy_forces 5.E-4
    final_forces_cleaned .true.
  #
  #  Output options
  #
  #  output mulliken
    output Hirshfeld
  #  output dipole
  
  #harmonic_length_scale 0.001
  
  ################################################################################
  #
  #  FHI-aims code project
  #  VB, Fritz-Haber Institut, 2007
  #
  #  Suggested "safe" defaults for H atom (to be pasted into control.in file)
  #  Basis constructed for a non-relativistic H2 molecule using the
  #  PW-LDA functional.
  #
  ################################################################################
    species        H
  #     global species definitions
      nucleus             1
      cut_pot             4.0  2.0  1.0
      cut_free_atom       finite 8.0
      logarithmic         0.00010000 100.00  1.0123
      basis_dep_cutoff    1d-4  # 1d-4 is safe default - please check 5d-4 if you wish!
      radial_base         24 7.0
      radial_multiplier   2
      angular_grids       specified
        division   0.2783  110
        division   0.3822  194
        division   0.5626  302
  #      division   0.5922  434
  #      division   0.6227  590
  #      division   0.7206  770
        outer_grid  302
      l_hartree           4
  ################################################################################
  #
  #  Definition of "minimal" basis
  #
  ################################################################################
  #     valence basis states
      valence      1  s   1.
  #     ion occupancy
      ion_occ      1  s   0.5
  ################################################################################
  #
  #  Suggested additional basis functions. For production calculations,
  #  uncomment them one after another (the most important basis functions are
  #  listed first).
  #
  ################################################################################
  #  "First tier" - improvements: -1014.90 meV to -62.69 meV
       hydro 2 s 2.1
       hydro 2 p 3.5
  #  "Second tier" - improvements: -12.89 meV to -1.83 meV
       hydro 1 s 0.85
       hydro 2 p 3.7
       hydro 2 s 1.2
       hydro 3 d 7
  #  "Third tier" - improvements: -0.25 meV to -0.12 meV
  #     hydro 4 f 11.2
  #     hydro 3 p 4.8
  #     hydro 4 d 9
  #     hydro 3 s 3.2
  
  ################################################################################
  #
  #  FHI-aims code project
  #  VB, Fritz-Haber Institut, 2007
  #
  #  Suggested "safe" defaults for O atom (to be pasted into control.in file)
  #  All values have been tested for a non-relativistic, non-spinpolarized O2
  #  molecule using the PW-LDA functional. Validity for PBE is expected.
  #
  #  Constructed for dimers: 1.0 A, 1.208 A, 1.5 A, 2.0 A, 3.0 A
  #
  ################################################################################
    species        O
  #     global species definitions
      nucleus             8
      mass                15.9994
      l_hartree           4
      cut_pot             4.0  2.0  1.0
      cut_free_atom       finite 8.0
      basis_dep_cutoff    1d-4  # 1d-4 is safe default - please check 5d-4 if you wish!
      logarithmic         0.00010000 100.00  1.0123
      radial_base         36 7.0
      radial_multiplier   2
       angular_grids specified
        division   0.4087  110
        division   0.5181  194
        division   0.6184  302
  #      division   0.7315  434
  #      division   0.7934  590
  #      division   0.9656  770
  #      division   1.4041  974
  #      outer_grid 974
        outer_grid 302
  ################################################################################
  #
  #  Definition of "minimal" basis
  #
  ################################################################################
  #     valence basis states
      valence      2  s   2.
      valence      2  p   4.
  #     ion occupancy
      ion_occ      2  s   1.
      ion_occ      2  p   3.
  ################################################################################
  #
  #  Suggested additional basis functions. For production calculations,
  #  uncomment them one after another (the most important basis functions are
  #  listed first).
  #
  ################################################################################
  #  "First tier" - improvements: -699.05 meV to -159.38 meV
       hydro 2 p 1.8
       hydro 3 d 7.6
       hydro 3 s 6.4
  #  "Second tier" - improvements: -49.91 meV to -5.39 meV
       hydro 4 f 11.6
       hydro 3 p 6.2
       hydro 3 d 5.6
       hydro 5 g 17.6
       hydro 1 s 0.75
  #  "Third tier" - improvements: -2.83 meV to -0.50 meV
  #     ionic 2 p auto
  #     hydro 4 f 10.8
  #     hydro 4 d 4.7
  #     hydro 2 s 6.8
  #  "Fourth tier" - improvements: -0.40 meV to -0.12 meV
  #     hydro 3 p 5
  #     hydro 3 s 3.3
  #     hydro 5 g 15.6
  #     hydro 4 f 17.6
  #     hydro 4 d 14
  # Further basis functions - -0.08 meV and below
  #     hydro 3 s 2.1
  #     hydro 4 d 11.6
  #     hydro 3 p 16
  #     hydro 2 s 17.2
  
  
  -----------------------------------------------------------------------
  Completed first pass over input file control.in .
  -----------------------------------------------------------------------
  
  
  -----------------------------------------------------------------------
  Parsing geometry.in (first pass over file, find array dimensions only).
  The contents of geometry.in will be repeated verbatim below
  unless switched off by setting 'verbatim_writeout .false.' .
  in the first line of geometry.in .
  -----------------------------------------------------------------------
  
  atom      -4.053030000      0.065001000     -1.525160000  O
  atom      -4.566710000      0.974813000     -1.912820000  H
  atom      -3.067820000      0.330172000     -1.477310000  H
  atom      -4.581760000     -0.256435000      0.939478000  O
  atom      -4.349860000      0.471090000      1.504340000  H
  atom      -5.393870000     -0.726611000      1.228070000  H
  atom      -3.818880000      2.024990000      2.187990000  O
  atom      -3.690880000      1.961360000      3.202150000  H
  atom      -4.546490000      2.751300000      2.045370000  H
  atom      -4.066610000      4.258280000     -0.900064000  O
  atom      -3.224110000      3.876870000     -0.569443000  H
  atom      -3.737450000      5.116530000     -1.322720000  H
  
  -----------------------------------------------------------------------
  Completed first pass over input file geometry.in .
  -----------------------------------------------------------------------
  
 
  Basic array size parameters: 
  | Number of species                 :        2
  | Number of atoms                   :       12
  | Max. basis fn. angular momentum   :        4
  | Max. atomic/ionic basis occupied n:        2
  | Max. number of basis fn. types    :        2
  | Max. radial fns per species/type  :        8
  | Max. logarithmic grid size        :     1301
  | Max. radial integration grid size :       73
  | Max. angular integration grid size:      302
  | Max. angular grid division number :        8
  | Radial grid for Hartree potential :     1301
  | Number of spin channels           :        1

------------------------------------------------------------
          Reading file control.in.
------------------------------------------------------------
  XC: Using RPBE gradient-corrected functionals.
  Spin treatment: No spin polarisation.
  Scalar relativistic treatment of kinetic energy: on-site free-atom approximation to ZORA.
  Charge =   0.000000E+00: Neutral system requested explicitly.
  Using non-empirical van der Waals correction (Hirshfeld partitioning):
  Occupation type: Gaussian broadening, width =   0.100000E-01 eV.
  Using pulay charge density mixing.
  Pulay mixing - number of memorized iterations:   10
  Charge density mixing - mixing parameter:     0.1000
  Convergence accuracy of self-consistent charge density: 0.5000E-04
  Convergence accuracy of sum of eigenvalues: 0.5000E-02
  Convergence accuracy of total energy: 0.5000E-05
  Maximum number of s.-c. iterations  :  3000
  Kohn-Sham eigenvalues and eigenfunctions calculated by lapack diagonalisation (D&C).
  Number of empty states per atom:        8
  Threshold for basis singularities: 0.0000E+00
  Partition function in integrals calculations: rho / r^2
 Using packed matrix format           0
  Convergence accuracy of forces: 0.5000E-03
  Cleaning forces before final output.
  Hirshfeld charge analysis will be performed.
 
  Reading configuration options for species H                   .
  | Found nuclear charge :   1.0000
  | Found cutoff potl. onset [A], width [A], scale factor :    4.00000    2.00000    1.00000
  | Found cutoff specification for free atom: Cutoff potential begins at    8.00000 A.
  | Found logarithmic grid data [bohr] : 0.1000E-03 0.1000E+03 0.1012E+01
  | Threshold for basis-dependent cutoff potential is   0.100000E-03
  | Found data for basic radial integration grid :    24 points, outermost radius =    7.000 A
  | Found multiplier for basic radial grid :   2
  | Found angular grid specification: user-specified.
  | Specified grid contains     4 separate shells.
  | Check grid settings after all constraints further below.
  | Found l_max for Hartree potential  :   4
  | Found free-atom valence shell :  1 s   1.000
  | No ionic wave fns used. Skipping ion_occ.
  | Found hydrogenic basis function :  2 s   2.100
  | Found hydrogenic basis function :  2 p   3.500
  | Found hydrogenic basis function :  1 s   0.850
  | Found hydrogenic basis function :  2 p   3.700
  | Found hydrogenic basis function :  2 s   1.200
  | Found hydrogenic basis function :  3 d   7.000
  Species H                   : Missing cutoff potential type.
  Defaulting to exp(1/x)/(1-x)^2 type cutoff potential.
  Species H : On-site basis accuracy parameter (for Gram-Schmidt orthonormalisation) not specified.
  Using default value basis_acc =  0.1000000E-03.
  Species H                   : Using default innermost maximum threshold i_radial=  2 for radial functions.
  Species H                   : Basic radial grid will be enhanced according to radial_multiplier =   2, to contain    49 grid points.
 
  Reading configuration options for species O                   .
  | Found nuclear charge :   8.0000
  | Found atomic mass :    15.9994000000000      amu
  | Found l_max for Hartree potential  :   4
  | Found cutoff potl. onset [A], width [A], scale factor :    4.00000    2.00000    1.00000
  | Found cutoff specification for free atom: Cutoff potential begins at    8.00000 A.
  | Threshold for basis-dependent cutoff potential is   0.100000E-03
  | Found logarithmic grid data [bohr] : 0.1000E-03 0.1000E+03 0.1012E+01
  | Found data for basic radial integration grid :    36 points, outermost radius =    7.000 A
  | Found multiplier for basic radial grid :   2
  | Found angular grid specification: user-specified.
  | Specified grid contains     4 separate shells.
  | Check grid settings after all constraints further below.
  | Found free-atom valence shell :  2 s   2.000
  | Found free-atom valence shell :  2 p   4.000
  | No ionic wave fns used. Skipping ion_occ.
  | No ionic wave fns used. Skipping ion_occ.
  | Found hydrogenic basis function :  2 p   1.800
  | Found hydrogenic basis function :  3 d   7.600
  | Found hydrogenic basis function :  3 s   6.400
  | Found hydrogenic basis function :  4 f  11.600
  | Found hydrogenic basis function :  3 p   6.200
  | Found hydrogenic basis function :  3 d   5.600
  | Found hydrogenic basis function :  5 g  17.600
  | Found hydrogenic basis function :  1 s   0.750
  Species O                   : Missing cutoff potential type.
  Defaulting to exp(1/x)/(1-x)^2 type cutoff potential.
  Species O : On-site basis accuracy parameter (for Gram-Schmidt orthonormalisation) not specified.
  Using default value basis_acc =  0.1000000E-03.
  Species O                   : Using default innermost maximum threshold i_radial=  2 for radial functions.
  Species O                   : Basic radial grid will be enhanced according to radial_multiplier =   2, to contain    73 grid points.
 
  Finished reading input file 'control.in'. Consistency checks are next.
 
  Target number of points in a grid batch is not set. Defaulting to  100
  Method for grid partitioning is not set. Defaulting to parallel hash+maxmin partitioning.
  Batch size limit is not set. Defaulting to    200
  By default, will store active basis functions for each batch.
  If in need of memory, prune_basis_once .false. can be used to disable this option.
  communication_type for Hartree potential was not specified.
  Defaulting to calc_hartree .
  Pulay mixer: Number of initial linear mixing iterations not set.
  Defaulting to    0 iterations.
  Work space size for distributed Hartree potential not set.
  Defaulting to   0.200000E+03 MB.
  Algorithm-dependent basis array size parameters:
  | n_max_pulay                         :       10
  Geometry relaxation not requested: no relaxation will be performed.
  Handling of forces: Unphysical translation and rotation will be removed from forces.
  No accuracy limit for integral partition fn. given. Defaulting to 0.1000E-14.
  No threshold value for u(r) in integrations given. Defaulting to 0.1000E-05.
  No accuracy for occupation numbers given. Defaulting to 0.1000E-07.
  No threshold value for occupation numbers given. Defaulting to 0.0000E+00.
  No accuracy for fermi level given. Defaulting to 0.1000E-19.
  Maximum # of iterations to find E_F not set. Defaulting to  200.
  Will not use alltoall communication since running on < 1024 CPUs.
  Partitioning for Hartree potential was not defined. Using partition_type for integrals.
  | Reporting present value of keyword multip_moments_threshold  :       0.10000000E-09
  | This value may affect high angular momentum components of the Hartree potential in periodic systems.
  No q(lm)/r^(l+1) cutoff set for long-range Hartree potential.
  | Using default value of  0.100000E-09 .
  | Verify using the multipole_threshold keyword.
  Defaulting to new monopole extrapolation.
  Density update method: Loop over occupied states selected for charge density update.
------------------------------------------------------------


------------------------------------------------------------
          Reading geometry description geometry.in.
------------------------------------------------------------
  Input structure read successfully.
  The structure contains       12 atoms,  and a total of         40.000 electrons.

  Input geometry:
  | No unit cell requested.
  | Atomic structure:
  |       Atom                x [A]            y [A]            z [A]
  |    1: Species O             -4.053030         0.065001        -1.525160
  |    2: Species H             -4.566710         0.974813        -1.912820
  |    3: Species H             -3.067820         0.330172        -1.477310
  |    4: Species O             -4.581760        -0.256435         0.939478
  |    5: Species H             -4.349860         0.471090         1.504340
  |    6: Species H             -5.393870        -0.726611         1.228070
  |    7: Species O             -3.818880         2.024990         2.187990
  |    8: Species H             -3.690880         1.961360         3.202150
  |    9: Species H             -4.546490         2.751300         2.045370
  |   10: Species O             -4.066610         4.258280        -0.900064
  |   11: Species H             -3.224110         3.876870        -0.569443
  |   12: Species H             -3.737450         5.116530        -1.322720
  |

  | The smallest distance between any two atoms is         0.94981015 AA.
  |
  | The first atom of this pair is atom number                      4 .
  | The second atom of this pair is atom number                     5 .

  Structure-dependent array size parameters: 
  | Maximum number of distinct radial functions  :       18
  | Maximum number of basis functions            :      276
  | Number of Kohn-Sham states (occupied + empty):       68
------------------------------------------------------------

------------------------------------------------------------
          Preparing all fixed parts of the calculation.
------------------------------------------------------------
  Determining machine precision:
    2.225073858507201E-308
  Setting up grids for atomic and cluster calculations.

  Creating wave function, potential, and density for free atoms.

  Species: H

  List of occupied orbitals and eigenvalues:
    n    l              occ      energy [Ha]    energy [eV]
    1    0           1.0000        -0.241408        -6.5691


  Species: O

  List of occupied orbitals and eigenvalues:
    n    l              occ      energy [Ha]    energy [eV]
    1    0           2.0000       -18.944147      -515.4965
    2    0           2.0000        -0.883529       -24.0421
    2    1           4.0000        -0.330176        -8.9845

  Creating fixed part of basis set: Ionic, confined, hydrogenic.
 
  H                    hydrogenic:
 
  List of hydrogenic basis orbitals: 
    n    l      effective z      eigenvalue [eV]  inner max. [A]     outer max. [A]     outer radius [A]   
    2    0         2.100000       -14.9965           0.193241           1.317192           5.372934
    2    1         3.500000       -41.6672           0.602363           0.602363           4.056010
    1    0         0.850000        -9.8292           0.624864           0.624864           5.372934
    2    1         3.700000       -46.5653           0.573616           0.573616           3.909951
    2    0         1.200000        -4.5995           0.334977           2.228160           5.505921
    3    2         7.000000       -74.0753           0.680692           0.680692           3.769152
 
 
  O                    hydrogenic:
 
  List of hydrogenic basis orbitals: 
    n    l      effective z      eigenvalue [eV]  inner max. [A]     outer max. [A]     outer radius [A]   
    2    1         1.800000       -11.0118           1.178546           1.178546           5.432516
    3    2         7.600000       -87.3182           0.624117           0.624117           3.541422
    3    0         6.400000       -61.9209           0.061166           1.081887           4.306510
    4    3        11.600000      -114.4238           0.731621           0.731621           3.584982
    3    1         6.200000       -58.1113           0.255677           1.030255           4.306510
    3    2         5.600000       -47.4081           0.847222           0.847222           4.413102
    5    4        17.600000      -168.5799           0.749730           0.749730           3.372413
    1    0         0.750000        -7.6499           0.705275           0.705275           5.366508
 

  Adding cutoff potential to free-atom effective potential.
  Creating atomic-like basis functions for current effective potential.

  Species H                   :

  List of atomic basis orbitals and eigenvalues:
    n    l      energy [Ha]    energy [eV]    outer radius [A]
    1    0        -0.241374        -6.5681       5.372934


  Species O                   :

  List of atomic basis orbitals and eigenvalues:
    n    l      energy [Ha]    energy [eV]    outer radius [A]
    1    0       -18.944147      -515.4965       1.415745
    2    0        -0.883529       -24.0421       5.048305
    2    1        -0.330173        -8.9845       5.301302

  Assembling full basis from fixed parts.
  | Species H :   atomic orbital   1 s accepted.
  | Species H :    hydro orbital   2 s accepted.
  | Species H :    hydro orbital   1 s accepted.
  | Species H :    hydro orbital   2 s accepted.
  | Species H :    hydro orbital   2 p accepted.
  | Species H :    hydro orbital   2 p accepted.
  | Species H :    hydro orbital   3 d accepted.
  | Species O :   atomic orbital   1 s accepted.
  | Species O :    hydro orbital   3 s accepted.
  | Species O :   atomic orbital   2 s accepted.
  | Species O :    hydro orbital   1 s accepted.
  | Species O :    hydro orbital   3 p accepted.
  | Species O :   atomic orbital   2 p accepted.
  | Species O :    hydro orbital   2 p accepted.
  | Species O :    hydro orbital   3 d accepted.
  | Species O :    hydro orbital   3 d accepted.
  | Species O :    hydro orbital   4 f accepted.
  | Species O :    hydro orbital   5 g accepted.
 
  Basis size parameters after reduction:
  | Total number of radial functions:       18
  | Total number of basis functions :      276
 
  Testing on-site integration grid accuracy.
  |  Species  Function  <phi|h_atom|phi> (log., in eV)  <phi|h_atom|phi> (rad., in eV)
           1        1                 -6.5683835025                 -6.5684759159
           1        2                 13.3711789951                 13.3708738703
           1        3                 23.6590910787                 23.6532055418
           1        4                 16.2963827186                 16.1870710655 ***
           1        5                 28.7627214838                 28.7627215090
           1        6                 59.5965249172                 59.5965950857
           1        7                 60.2220506392                 60.2220503827
           2        8               -515.4964576505               -515.4964530710
           2        9                 15.3030791347                 15.3030722972
           2       10                -21.7296094581                -21.7296135470
           2       11                 14.2969371730                 14.2969701621
           2       12                 21.0679693190                 21.0679697493
           2       13                 -2.3833606469                 -2.3833613176
           2       14                 13.7067136422                 13.7066766629
           2       15                 45.8013116808                 45.8013116965
           2       16                 52.2309815402                 52.2309831494
           2       17                 85.4120732416                 85.4120732763
           2       18                142.1019167745                142.1019167817
 * Note: Onsite integrals marked "***" above are less accurate than
 * onsite_accuracy_threshold =    0.03000 eV. Usually, this is harmless.
 * When in doubt, tighten the "radial" and/or "radial_multiplier" flags to check.

  Preparing densities etc. for the partition functions (integrals / Hartree potential).

  Preparations completed.
  max(cpu_time)          :      0.171 s.
  Wall clock time (cpu1) :      0.675 s.
------------------------------------------------------------

------------------------------------------------------------
          Begin self-consistency loop: Initialization.

          Date     :  20150727, Time     :  121013.747
------------------------------------------------------------

  Initializing index lists of integration centers etc. from given atomic structure:
  | Number of centers in hartree potential         :        12
  | Number of centers in hartree multipole         :        12
  | Number of centers in electron density summation:        12
  | Number of centers in basis integrals           :        12
  | Number of centers in integrals                 :        12
  Partitioning the integration grid into batches with parallel hashing+maxmin method.
  | Number of batches:     1581
  | Maximal batch size:     178
  | Minimal batch size:      49
  | Average batch size:      99.537
  | Standard deviation of batch sizes:      24.678

  Integration load balanced across     8 MPI tasks.
  Work distribution over tasks is as follows:
  Task     0 has      19712 integration points.
  Task     1 has      19715 integration points.
  Task     2 has      19679 integration points.
  Task     3 has      19708 integration points.
  Task     4 has      19622 integration points.
  Task     5 has      19625 integration points.
  Task     6 has      19681 integration points.
  Task     7 has      19626 integration points.
  Initializing partition tables, free-atom densities, potentials, etc. across the integration grid (initialize_grid_storage).
  | Net number of integration points:   157368
  | of which are non-zero points    :   156837
  Obtaining max. number of non-zero basis functions in each batch (get_n_compute_maxes).
  | Maximal number of non-zero basis functions:      274 in task     0
  | Maximal number of non-zero basis functions:      273 in task     1
  | Maximal number of non-zero basis functions:      273 in task     2
  | Maximal number of non-zero basis functions:      273 in task     3
  | Maximal number of non-zero basis functions:      273 in task     4
  | Maximal number of non-zero basis functions:      273 in task     5
  | Maximal number of non-zero basis functions:      273 in task     6
  | Maximal number of non-zero basis functions:      274 in task     7
  Integrating Hamiltonian matrix: batch-based integration.
  Time summed over all CPUs for integration: real work        4.225 s, elapsed        4.337 s
  Integrating overlap matrix.
  Time summed over all CPUs for integration: real work        2.230 s, elapsed        2.314 s

  Updating Kohn-Sham eigenvalues, eigenvectors, occupation numbers, and Fermi level.
  Solving generalized eigenproblem
  Updating Kohn-Sham eigenvalues and eigenfunctions.
  Transforming overlap matrix and checking for singularities.
  Overlap matrix is nonsingular:
  | Lowest eigenvalue:  0.304449E-03
  Solving real generalised eigenvalue problem by standard LAPACK (fast)
  Determining occupation numbers for Kohn-Sham eigenstates.
  | Chemical potential (Fermi level) in eV                 : -.53520643E+01
  | Error in electron count due to remaining E_F inaccuracy: 0.00000000E+00
  | Maximum occupation number of highest empty state:  0.00E+00

  Writing Kohn-Sham eigenvalues.

  State    Occupation    Eigenvalue [Ha]    Eigenvalue [eV]
      1       2.00000         -19.052079         -518.43344
      2       2.00000         -19.040023         -518.10538
      3       2.00000         -19.032042         -517.88822
      4       2.00000         -19.019440         -517.54528
      5       2.00000          -1.100235          -29.93891
      6       2.00000          -1.083039          -29.47100
      7       2.00000          -1.064242          -28.95950
      8       2.00000          -1.043112          -28.38453
      9       2.00000          -0.648417          -17.64434
     10       2.00000          -0.603337          -16.41764
     11       2.00000          -0.593772          -16.15737
     12       2.00000          -0.569967          -15.50960
     13       2.00000          -0.509403          -13.86155
     14       2.00000          -0.504860          -13.73794
     15       2.00000          -0.492656          -13.40585
     16       2.00000          -0.474735          -12.91819
     17       2.00000          -0.439486          -11.95903
     18       2.00000          -0.427027          -11.62000
     19       2.00000          -0.424398          -11.54847
     20       2.00000          -0.402212          -10.94475
     21       0.00000          -0.098319           -2.67539
     22       0.00000          -0.075507           -2.05464
     23       0.00000          -0.062009           -1.68734
     24       0.00000          -0.039326           -1.07011
     25       0.00000          -0.026358           -0.71724
     26       0.00000          -0.013179           -0.35862
     27       0.00000           0.002301            0.06261
     28       0.00000           0.046005            1.25186
     29       0.00000           0.075435            2.05270
     30       0.00000           0.078427            2.13411
     31       0.00000           0.090804            2.47091
     32       0.00000           0.099935            2.71937
     33       0.00000           0.100953            2.74708
     34       0.00000           0.108269            2.94615
     35       0.00000           0.113428            3.08652
     36       0.00000           0.118210            3.21665
     37       0.00000           0.129888            3.53444
     38       0.00000           0.145897            3.97007
     39       0.00000           0.161937            4.40654
     40       0.00000           0.165595            4.50607
     41       0.00000           0.185450            5.04634
     42       0.00000           0.197788            5.38210
     43       0.00000           0.223230            6.07439
     44       0.00000           0.239152            6.50765
     45       0.00000           0.245170            6.67141
     46       0.00000           0.270490            7.36042
     47       0.00000           0.273547            7.44359
     48       0.00000           0.301710            8.20995
     49       0.00000           0.331382            9.01736
     50       0.00000           0.334232            9.09493
     51       0.00000           0.367729           10.00642
     52       0.00000           0.372082           10.12487
     53       0.00000           0.389565           10.60060
     54       0.00000           0.401298           10.91986
     55       0.00000           0.405400           11.03149
     56       0.00000           0.414632           11.28272
     57       0.00000           0.425191           11.57004
     58       0.00000           0.434412           11.82096
     59       0.00000           0.450384           12.25558
     60       0.00000           0.460026           12.51795
     61       0.00000           0.500358           13.61544
     62       0.00000           0.508435           13.83522
     63       0.00000           0.531883           14.47328
     64       0.00000           0.560452           15.25069
     65       0.00000           0.578752           15.74866
     66       0.00000           0.584101           15.89419
     67       0.00000           0.608547           16.55940
     68       0.00000           0.677528           18.43648

  Highest occupied state (VBM) at    -10.94474726 eV
  | Occupation number:      2.00000000

  Lowest unoccupied state (CBM) at    -2.67539027 eV
  | Occupation number:      0.00000000

  Overall HOMO-LUMO gap:      8.26935699 eV.
  Calculating total energy contributions from superposition of free atom densities.

  Total energy components:
  | Sum of eigenvalues            :        -173.04896655 Ha       -4708.90196607 eV
  | XC energy correction          :         -36.37662508 Ha        -989.85833198 eV
  | XC potential correction       :          46.46958420 Ha        1264.50172328 eV
  | Free-atom electrostatic energy:        -143.49559215 Ha       -3904.71373202 eV
  | Hartree energy correction     :           0.00000000 Ha           0.00000000 eV
  | van der Waals energy corr.    :           0.00000000 Ha           0.00000000 eV
  | Entropy correction            :           0.00000000 Ha           0.00000000 eV
  | ---------------------------
  | Total energy                  :        -306.45159958 Ha       -8338.97230679 eV
  | Total energy, T -> 0          :        -306.45159958 Ha       -8338.97230679 eV  <-- do not rely on this value for anything but (periodic) metals
  | Electronic free energy        :        -306.45159958 Ha       -8338.97230679 eV

  Derived energy quantities:
  | Kinetic energy                :         303.18118016 Ha        8249.97966642 eV
  | Electrostatic energy          :        -573.25615465 Ha      -15599.09364124 eV
  | Energy correction for multipole
  | error in Hartree potential    :           0.00000000 Ha           0.00000000 eV
  | Sum of eigenvalues per atom                           :        -392.40849717 eV
  | Total energy (T->0) per atom                          :        -694.91435890 eV  <-- do not rely on this value for anything but (periodic) metals
  | Electronic free energy per atom                       :        -694.91435890 eV
  Initialize hartree_potential_storage
  Max. number of atoms included in rho_multipole:           12

  End scf initialization - timings             :  max(cpu_time)    wall_clock(cpu1)
  | Time for scf. initialization               :        1.202 s           1.201 s
  | Boundary condition initialization          :        0.000 s           0.000 s
  | Integration                                :        0.834 s           0.834 s
  | Solution of K.-S. eqns.                    :        0.119 s           0.119 s
  | Grid partitioning                          :        0.101 s           0.100 s
  | Preloading free-atom quantities on grid    :        0.014 s           0.013 s
  | Free-atom superposition energy             :        0.045 s           0.045 s
  | Total energy evaluation                    :        0.000 s           0.000 s
------------------------------------------------------------

------------------------------------------------------------
          Begin self-consistency iteration #    1

  Date     :  20150727, Time     :  121014.948
------------------------------------------------------------
  Evaluating new KS density.
  Integration grid: deviation in total charge (<rho> - N_e) =  -1.421085E-14
  Pulay mixing of updated and previous charge densities.

  Evaluating partitioned Hartree potential by multipole expansion.
  | Analytical far-field extrapolation by fixed multipoles:
  | Hartree multipole sum: apparent total charge =  -0.166995E-05
  Summing up the Hartree potential.
  Time summed over all CPUs for potential: real work        1.653 s, elapsed        1.665 s
  | RMS charge density error from multipole expansion :   0.137901E-02

  Integrating Hamiltonian matrix: batch-based integration.
  Time summed over all CPUs for integration: real work        4.209 s, elapsed        4.307 s

  Updating Kohn-Sham eigenvalues, eigenvectors, occupation numbers, and Fermi level.
  Solving generalized eigenproblem
  Updating Kohn-Sham eigenvalues and eigenfunctions.
  Solving real generalised eigenvalue problem by standard LAPACK (fast)
  Determining occupation numbers for Kohn-Sham eigenstates.
  | Chemical potential (Fermi level) in eV                 : -.49572250E+01
  | Error in electron count due to remaining E_F inaccuracy: 0.00000000E+00
  | Maximum occupation number of highest empty state:  0.00E+00

  Writing Kohn-Sham eigenvalues.

  State    Occupation    Eigenvalue [Ha]    Eigenvalue [eV]
      1       2.00000         -18.965429         -516.07557
      2       2.00000         -18.965132         -516.06749
      3       2.00000         -18.961123         -515.95841
      4       2.00000         -18.939852         -515.37960
      5       2.00000          -1.052638          -28.64374
      6       2.00000          -1.046840          -28.48596
      7       2.00000          -1.031104          -28.05777
      8       2.00000          -1.000282          -27.21906
      9       2.00000          -0.606245          -16.49678
     10       2.00000          -0.572797          -15.58661
     11       2.00000          -0.567154          -15.43305
     12       2.00000          -0.534300          -14.53905
     13       2.00000          -0.468602          -12.75130
     14       2.00000          -0.467490          -12.72105
     15       2.00000          -0.454570          -12.36947
     16       2.00000          -0.431377          -11.73835
     17       2.00000          -0.392511          -10.68076
     18       2.00000          -0.388675          -10.57638
     19       2.00000          -0.386829          -10.52614
     20       2.00000          -0.355368           -9.67006
     21       0.00000          -0.089375           -2.43203
     22       0.00000          -0.066456           -1.80835
     23       0.00000          -0.054010           -1.46969
     24       0.00000          -0.028659           -0.77984
     25       0.00000          -0.016478           -0.44838
     26       0.00000          -0.006221           -0.16929
     27       0.00000           0.010965            0.29836
     28       0.00000           0.054675            1.48778
     29       0.00000           0.084922            2.31085
     30       0.00000           0.088154            2.39880
     31       0.00000           0.097561            2.65477
     32       0.00000           0.108684            2.95744
     33       0.00000           0.109215            2.97188
     34       0.00000           0.117096            3.18636
     35       0.00000           0.124232            3.38052
     36       0.00000           0.127214            3.46166
     37       0.00000           0.139419            3.79380
     38       0.00000           0.159446            4.33875
     39       0.00000           0.172813            4.70248
     40       0.00000           0.177011            4.81671
     41       0.00000           0.194852            5.30218
     42       0.00000           0.206513            5.61950
     43       0.00000           0.233286            6.34803
     44       0.00000           0.247797            6.74289
     45       0.00000           0.256644            6.98363
     46       0.00000           0.280487            7.63245
     47       0.00000           0.284670            7.74625
     48       0.00000           0.313496            8.53066
     49       0.00000           0.338380            9.20779
     50       0.00000           0.343890            9.35772
     51       0.00000           0.375559           10.21949
     52       0.00000           0.382010           10.39502
     53       0.00000           0.399418           10.86872
     54       0.00000           0.409785           11.15082
     55       0.00000           0.415535           11.30729
     56       0.00000           0.425670           11.58308
     57       0.00000           0.436027           11.86490
     58       0.00000           0.441736           12.02024
     59       0.00000           0.460318           12.52590
     60       0.00000           0.470944           12.81503
     61       0.00000           0.510473           13.89067
     62       0.00000           0.519825           14.14516
     63       0.00000           0.542815           14.77073
     64       0.00000           0.574069           15.62123
     65       0.00000           0.591940           16.10750
     66       0.00000           0.597916           16.27011
     67       0.00000           0.626892           17.05859
     68       0.00000           0.690421           18.78731

  Highest occupied state (VBM) at     -9.67006423 eV
  | Occupation number:      2.00000000

  Lowest unoccupied state (CBM) at    -2.43202857 eV
  | Occupation number:      0.00000000

  Overall HOMO-LUMO gap:      7.23803566 eV.

  Total energy components:
  | Sum of eigenvalues            :        -171.17663356 Ha       -4657.95319312 eV
  | XC energy correction          :         -36.57145002 Ha        -995.15978830 eV
  | XC potential correction       :          46.72509514 Ha        1271.45452959 eV
  | Free-atom electrostatic energy:        -143.49559215 Ha       -3904.71373202 eV
  | Hartree energy correction     :          -1.81133797 Ha         -49.28901383 eV
  | van der Waals energy corr.    :           0.00000000 Ha           0.00000000 eV
  | Entropy correction            :           0.00000000 Ha           0.00000000 eV
  | ---------------------------
  | Total energy                  :        -306.32991856 Ha       -8335.66119769 eV
  | Total energy, T -> 0          :        -306.32991856 Ha       -8335.66119769 eV  <-- do not rely on this value for anything but (periodic) metals
  | Electronic free energy        :        -306.32991856 Ha       -8335.66119769 eV

  Derived energy quantities:
  | Kinetic energy                :         304.32834913 Ha        8281.19572239 eV
  | Electrostatic energy          :        -574.08681766 Ha      -15621.69713178 eV
  | Energy correction for multipole
  | error in Hartree potential    :          -0.00007925 Ha          -0.00215646 eV
  | Sum of eigenvalues per atom                           :        -388.16276609 eV
  | Total energy (T->0) per atom                          :        -694.63843314 eV  <-- do not rely on this value for anything but (periodic) metals
  | Electronic free energy per atom                       :        -694.63843314 eV

  Self-consistency convergence accuracy:
  | Change of charge density      : 0.5959E+00
  | Change of sum of eigenvalues  : 0.5095E+02 eV
  | Change of total energy        : 0.3311E+01 eV

  End self-consistency iteration #     1       :  max(cpu_time)    wall_clock(cpu1)
  | Time for this iteration                    :        1.160 s           1.160 s
  | Charge density update                      :        0.373 s           0.373 s
  | Density mixing                             :        0.003 s           0.003 s
  | Hartree multipole update                   :        0.004 s           0.004 s
  | Hartree multipole summation                :        0.209 s           0.209 s
  | Integration                                :        0.540 s           0.540 s
  | Solution of K.-S. eqns.                    :        0.030 s           0.030 s
  | Total energy evaluation                    :        0.001 s           0.000 s
------------------------------------------------------------

------------------------------------------------------------
          Begin self-consistency iteration #    2

  Date     :  20150727, Time     :  121016.108
------------------------------------------------------------
  Evaluating new KS density.
  Integration grid: deviation in total charge (<rho> - N_e) =   2.842171E-14
  Pulay mixing of updated and previous charge densities.

  Evaluating partitioned Hartree potential by multipole expansion.
  | Analytical far-field extrapolation by fixed multipoles:
  | Hartree multipole sum: apparent total charge =  -0.470587E-05
  Summing up the Hartree potential.
  Time summed over all CPUs for potential: real work        1.653 s, elapsed        1.665 s
  | RMS charge density error from multipole expansion :   0.537685E-02

  Integrating Hamiltonian matrix: batch-based integration.
  Time summed over all CPUs for integration: real work        4.213 s, elapsed        4.326 s

  Updating Kohn-Sham eigenvalues, eigenvectors, occupation numbers, and Fermi level.
  Solving generalized eigenproblem
  Updating Kohn-Sham eigenvalues and eigenfunctions.
  Solving real generalised eigenvalue problem by standard LAPACK (fast)
  Determining occupation numbers for Kohn-Sham eigenstates.
  | Chemical potential (Fermi level) in eV                 : -.39033206E+01
  | Error in electron count due to remaining E_F inaccuracy: 0.00000000E+00
  | Maximum occupation number of highest empty state:  0.00E+00

  Highest occupied state (VBM) at     -6.74992705 eV
  | Occupation number:      2.00000000

  Lowest unoccupied state (CBM) at    -1.92802113 eV
  | Occupation number:      0.00000000

  Overall HOMO-LUMO gap:      4.82190592 eV.

  Total energy components:
  | Sum of eigenvalues            :        -166.97761115 Ha       -4543.69197989 eV
  | XC energy correction          :         -37.02700812 Ha       -1007.55615477 eV
  | XC potential correction       :          47.32217429 Ha        1287.70187995 eV
  | Free-atom electrostatic energy:        -143.49559215 Ha       -3904.71373202 eV
  | Hartree energy correction     :          -6.01761561 Ha        -163.74765203 eV
  | van der Waals energy corr.    :           0.00000000 Ha           0.00000000 eV
  | Entropy correction            :           0.00000000 Ha           0.00000000 eV
  | ---------------------------
  | Total energy                  :        -306.19565273 Ha       -8332.00763875 eV
  | Total energy, T -> 0          :        -306.19565273 Ha       -8332.00763875 eV  <-- do not rely on this value for anything but (periodic) metals
  | Electronic free energy        :        -306.19565273 Ha       -8332.00763875 eV

  Derived energy quantities:
  | Kinetic energy                :         306.49770407 Ha        8340.22687377 eV
  | Electrostatic energy          :        -575.66634868 Ha      -15664.67835776 eV
  | Energy correction for multipole
  | error in Hartree potential    :          -0.00086876 Ha          -0.02364005 eV
  | Sum of eigenvalues per atom                           :        -378.64099832 eV
  | Total energy (T->0) per atom                          :        -694.33396990 eV  <-- do not rely on this value for anything but (periodic) metals
  | Electronic free energy per atom                       :        -694.33396990 eV

  Self-consistency convergence accuracy:
  | Change of charge density      : 0.4484E+00
  | Change of sum of eigenvalues  : 0.1143E+03 eV
  | Change of total energy        : 0.3654E+01 eV

  End self-consistency iteration #     2       :  max(cpu_time)    wall_clock(cpu1)
  | Time for this iteration                    :        1.161 s           1.161 s
  | Charge density update                      :        0.370 s           0.370 s
  | Density mixing                             :        0.005 s           0.005 s
  | Hartree multipole update                   :        0.004 s           0.004 s
  | Hartree multipole summation                :        0.209 s           0.209 s
  | Integration                                :        0.542 s           0.542 s
  | Solution of K.-S. eqns.                    :        0.031 s           0.030 s
  | Total energy evaluation                    :        0.000 s           0.000 s
------------------------------------------------------------

------------------------------------------------------------
          Begin self-consistency iteration #    3

  Date     :  20150727, Time     :  121017.269
------------------------------------------------------------
  Evaluating new KS density.
  Integration grid: deviation in total charge (<rho> - N_e) =   7.105427E-15
  Pulay mixing of updated and previous charge densities.

  Evaluating partitioned Hartree potential by multipole expansion.
  | Analytical far-field extrapolation by fixed multipoles:
  | Hartree multipole sum: apparent total charge =  -0.465772E-05
  Summing up the Hartree potential.
  Time summed over all CPUs for potential: real work        1.652 s, elapsed        1.664 s
  | RMS charge density error from multipole expansion :   0.112005E-01

  Integrating Hamiltonian matrix: batch-based integration.
  Time summed over all CPUs for integration: real work        4.203 s, elapsed        4.302 s

  Updating Kohn-Sham eigenvalues, eigenvectors, occupation numbers, and Fermi level.
  Solving generalized eigenproblem
  Updating Kohn-Sham eigenvalues and eigenfunctions.
  Solving real generalised eigenvalue problem by standard LAPACK (fast)
  Determining occupation numbers for Kohn-Sham eigenstates.
  | Chemical potential (Fermi level) in eV                 : -.36792411E+01
  | Error in electron count due to remaining E_F inaccuracy: 0.00000000E+00
  | Maximum occupation number of highest empty state:  0.00E+00

  Highest occupied state (VBM) at     -6.52828374 eV
  | Occupation number:      2.00000000

  Lowest unoccupied state (CBM) at    -1.83527426 eV
  | Occupation number:      0.00000000

  Overall HOMO-LUMO gap:      4.69300948 eV.

  Total energy components:
  | Sum of eigenvalues            :        -167.18264538 Ha       -4549.27124514 eV
  | XC energy correction          :         -37.00037419 Ha       -1006.83140863 eV
  | XC potential correction       :          47.28396462 Ha        1286.66214202 eV
  | Free-atom electrostatic energy:        -143.49559215 Ha       -3904.71373202 eV
  | Hartree energy correction     :          -5.79695073 Ha        -157.74305522 eV
  | van der Waals energy corr.    :           0.00000000 Ha           0.00000000 eV
  | Entropy correction            :           0.00000000 Ha           0.00000000 eV
  | ---------------------------
  | Total energy                  :        -306.19159782 Ha       -8331.89729899 eV
  | Total energy, T -> 0          :        -306.19159782 Ha       -8331.89729899 eV  <-- do not rely on this value for anything but (periodic) metals
  | Electronic free energy        :        -306.19159782 Ha       -8331.89729899 eV

  Derived energy quantities:
  | Kinetic energy                :         304.82694652 Ha        8294.76324770 eV
  | Electrostatic energy          :        -574.01817015 Ha      -15619.82913806 eV
  | Energy correction for multipole
  | error in Hartree potential    :          -0.00427363 Ha          -0.11629136 eV
  | Sum of eigenvalues per atom                           :        -379.10593710 eV
  | Total energy (T->0) per atom                          :        -694.32477492 eV  <-- do not rely on this value for anything but (periodic) metals
  | Electronic free energy per atom                       :        -694.32477492 eV

  Self-consistency convergence accuracy:
  | Change of charge density      : 0.2346E+00
  | Change of sum of eigenvalues  : -.5579E+01 eV
  | Change of total energy        : 0.1103E+00 eV

  End self-consistency iteration #     3       :  max(cpu_time)    wall_clock(cpu1)
  | Time for this iteration                    :        1.156 s           1.156 s
  | Charge density update                      :        0.368 s           0.368 s
  | Density mixing                             :        0.005 s           0.005 s
  | Hartree multipole update                   :        0.005 s           0.004 s
  | Hartree multipole summation                :        0.208 s           0.209 s
  | Integration                                :        0.539 s           0.539 s
  | Solution of K.-S. eqns.                    :        0.031 s           0.031 s
  | Total energy evaluation                    :        0.000 s           0.000 s
------------------------------------------------------------

------------------------------------------------------------
          Begin self-consistency iteration #    4

  Date     :  20150727, Time     :  121018.425
------------------------------------------------------------
  Evaluating new KS density.
  Integration grid: deviation in total charge (<rho> - N_e) =  -1.421085E-14
  Pulay mixing of updated and previous charge densities.

  Evaluating partitioned Hartree potential by multipole expansion.
  | Analytical far-field extrapolation by fixed multipoles:
  | Hartree multipole sum: apparent total charge =  -0.575308E-05
  Summing up the Hartree potential.
  Time summed over all CPUs for potential: real work        1.652 s, elapsed        1.665 s
  | RMS charge density error from multipole expansion :   0.147784E-01

  Integrating Hamiltonian matrix: batch-based integration.
  Time summed over all CPUs for integration: real work        4.196 s, elapsed        4.295 s

  Updating Kohn-Sham eigenvalues, eigenvectors, occupation numbers, and Fermi level.
  Solving generalized eigenproblem
  Updating Kohn-Sham eigenvalues and eigenfunctions.
  Solving real generalised eigenvalue problem by standard LAPACK (fast)
  Determining occupation numbers for Kohn-Sham eigenstates.
  | Chemical potential (Fermi level) in eV                 : -.31959899E+01
  | Error in electron count due to remaining E_F inaccuracy: 0.00000000E+00
  | Maximum occupation number of highest empty state:  0.00E+00

  Highest occupied state (VBM) at     -5.27244637 eV
  | Occupation number:      2.00000000

  Lowest unoccupied state (CBM) at    -1.63793224 eV
  | Occupation number:      0.00000000

  Overall HOMO-LUMO gap:      3.63451413 eV.

  Total energy components:
  | Sum of eigenvalues            :        -165.64834187 Ha       -4507.52072244 eV
  | XC energy correction          :         -37.18331888 Ha       -1011.80958705 eV
  | XC potential correction       :          47.52322040 Ha        1293.17262297 eV
  | Free-atom electrostatic energy:        -143.49559215 Ha       -3904.71373202 eV
  | Hartree energy correction     :          -7.37698217 Ha        -200.73789817 eV
  | van der Waals energy corr.    :           0.00000000 Ha           0.00000000 eV
  | Entropy correction            :           0.00000000 Ha           0.00000000 eV
  | ---------------------------
  | Total energy                  :        -306.18101467 Ha       -8331.60931671 eV
  | Total energy, T -> 0          :        -306.18101467 Ha       -8331.60931671 eV  <-- do not rely on this value for anything but (periodic) metals
  | Electronic free energy        :        -306.18101467 Ha       -8331.60931671 eV

  Derived energy quantities:
  | Kinetic energy                :         305.04687156 Ha        8300.74771251 eV
  | Electrostatic energy          :        -574.04456735 Ha      -15620.54744217 eV
  | Energy correction for multipole
  | error in Hartree potential    :          -0.00579579 Ha          -0.15771144 eV
  | Sum of eigenvalues per atom                           :        -375.62672687 eV
  | Total energy (T->0) per atom                          :        -694.30077639 eV  <-- do not rely on this value for anything but (periodic) metals
  | Electronic free energy per atom                       :        -694.30077639 eV

  Self-consistency convergence accuracy:
  | Change of charge density      : 0.1312E+00
  | Change of sum of eigenvalues  : 0.4175E+02 eV
  | Change of total energy        : 0.2880E+00 eV

  End self-consistency iteration #     4       :  max(cpu_time)    wall_clock(cpu1)
  | Time for this iteration                    :        1.155 s           1.155 s
  | Charge density update                      :        0.367 s           0.366 s
  | Density mixing                             :        0.006 s           0.007 s
  | Hartree multipole update                   :        0.004 s           0.004 s
  | Hartree multipole summation                :        0.209 s           0.209 s
  | Integration                                :        0.538 s           0.538 s
  | Solution of K.-S. eqns.                    :        0.031 s           0.030 s
  | Total energy evaluation                    :        0.000 s           0.000 s
------------------------------------------------------------

------------------------------------------------------------
          Begin self-consistency iteration #    5

  Date     :  20150727, Time     :  121019.580
------------------------------------------------------------
  Evaluating new KS density.
  Integration grid: deviation in total charge (<rho> - N_e) =   1.421085E-14
  Pulay mixing of updated and previous charge densities.

  Evaluating partitioned Hartree potential by multipole expansion.
  | Analytical far-field extrapolation by fixed multipoles:
  | Hartree multipole sum: apparent total charge =  -0.565943E-05
  Summing up the Hartree potential.
  Time summed over all CPUs for potential: real work        1.652 s, elapsed        1.665 s
  | RMS charge density error from multipole expansion :   0.150543E-01

  Integrating Hamiltonian matrix: batch-based integration.
  Time summed over all CPUs for integration: real work        4.197 s, elapsed        4.296 s

  Updating Kohn-Sham eigenvalues, eigenvectors, occupation numbers, and Fermi level.
  Solving generalized eigenproblem
  Updating Kohn-Sham eigenvalues and eigenfunctions.
  Solving real generalised eigenvalue problem by standard LAPACK (fast)
  Determining occupation numbers for Kohn-Sham eigenstates.
  | Chemical potential (Fermi level) in eV                 : -.32184695E+01
  | Error in electron count due to remaining E_F inaccuracy: 0.00000000E+00
  | Maximum occupation number of highest empty state:  0.00E+00

  Highest occupied state (VBM) at     -5.34115919 eV
  | Occupation number:      2.00000000

  Lowest unoccupied state (CBM) at    -1.64202349 eV
  | Occupation number:      0.00000000

  Overall HOMO-LUMO gap:      3.69913570 eV.

  Total energy components:
  | Sum of eigenvalues            :        -165.70781507 Ha       -4509.13907058 eV
  | XC energy correction          :         -37.17818531 Ha       -1011.66989542 eV
  | XC potential correction       :          47.51612050 Ha        1292.97942479 eV
  | Free-atom electrostatic energy:        -143.49559215 Ha       -3904.71373202 eV
  | Hartree energy correction     :          -7.31511912 Ha        -199.05451913 eV
  | van der Waals energy corr.    :           0.00000000 Ha           0.00000000 eV
  | Entropy correction            :           0.00000000 Ha           0.00000000 eV
  | ---------------------------
  | Total energy                  :        -306.18059116 Ha       -8331.59779236 eV
  | Total energy, T -> 0          :        -306.18059116 Ha       -8331.59779236 eV  <-- do not rely on this value for anything but (periodic) metals
  | Electronic free energy        :        -306.18059116 Ha       -8331.59779236 eV

  Derived energy quantities:
  | Kinetic energy                :         305.03279948 Ha        8300.36479182 eV
  | Electrostatic energy          :        -574.03520533 Ha      -15620.29268877 eV
  | Energy correction for multipole
  | error in Hartree potential    :          -0.00577912 Ha          -0.15725792 eV
  | Sum of eigenvalues per atom                           :        -375.76158922 eV
  | Total energy (T->0) per atom                          :        -694.29981603 eV  <-- do not rely on this value for anything but (periodic) metals
  | Electronic free energy per atom                       :        -694.29981603 eV

  Self-consistency convergence accuracy:
  | Change of charge density      : 0.3156E-01
  | Change of sum of eigenvalues  : -.1618E+01 eV
  | Change of total energy        : 0.1152E-01 eV

  End self-consistency iteration #     5       :  max(cpu_time)    wall_clock(cpu1)
  | Time for this iteration                    :        1.157 s           1.156 s
  | Charge density update                      :        0.367 s           0.366 s
  | Density mixing                             :        0.007 s           0.008 s
  | Hartree multipole update                   :        0.004 s           0.004 s
  | Hartree multipole summation                :        0.209 s           0.209 s
  | Integration                                :        0.538 s           0.538 s
  | Solution of K.-S. eqns.                    :        0.031 s           0.030 s
  | Total energy evaluation                    :        0.000 s           0.000 s
------------------------------------------------------------

------------------------------------------------------------
          Begin self-consistency iteration #    6

  Date     :  20150727, Time     :  121020.737
------------------------------------------------------------
  Evaluating new KS density.
  Integration grid: deviation in total charge (<rho> - N_e) =   0.000000E+00
  Pulay mixing of updated and previous charge densities.

  Evaluating partitioned Hartree potential by multipole expansion.
  | Analytical far-field extrapolation by fixed multipoles:
  | Hartree multipole sum: apparent total charge =  -0.570239E-05
  Summing up the Hartree potential.
  Time summed over all CPUs for potential: real work        1.652 s, elapsed        1.664 s
  | RMS charge density error from multipole expansion :   0.152734E-01

  Integrating Hamiltonian matrix: batch-based integration.
  Time summed over all CPUs for integration: real work        4.201 s, elapsed        4.309 s

  Updating Kohn-Sham eigenvalues, eigenvectors, occupation numbers, and Fermi level.
  Solving generalized eigenproblem
  Updating Kohn-Sham eigenvalues and eigenfunctions.
  Solving real generalised eigenvalue problem by standard LAPACK (fast)
  Determining occupation numbers for Kohn-Sham eigenstates.
  | Chemical potential (Fermi level) in eV                 : -.31959677E+01
  | Error in electron count due to remaining E_F inaccuracy: 0.00000000E+00
  | Maximum occupation number of highest empty state:  0.00E+00

  Highest occupied state (VBM) at     -5.29113587 eV
  | Occupation number:      2.00000000

  Lowest unoccupied state (CBM) at    -1.63189706 eV
  | Occupation number:      0.00000000

  Overall HOMO-LUMO gap:      3.65923881 eV.

  Total energy components:
  | Sum of eigenvalues            :        -165.64572430 Ha       -4507.44949475 eV
  | XC energy correction          :         -37.18607572 Ha       -1011.88460437 eV
  | XC potential correction       :          47.52639436 Ha        1293.25899084 eV
  | Free-atom electrostatic energy:        -143.49559215 Ha       -3904.71373202 eV
  | Hartree energy correction     :          -7.37967029 Ha        -200.81104571 eV
  | van der Waals energy corr.    :           0.00000000 Ha           0.00000000 eV
  | Entropy correction            :           0.00000000 Ha           0.00000000 eV
  | ---------------------------
  | Total energy                  :        -306.18066810 Ha       -8331.59988602 eV
  | Total energy, T -> 0          :        -306.18066810 Ha       -8331.59988602 eV  <-- do not rely on this value for anything but (periodic) metals
  | Electronic free energy        :        -306.18066810 Ha       -8331.59988602 eV

  Derived energy quantities:
  | Kinetic energy                :         305.03366531 Ha        8300.38835222 eV
  | Electrostatic energy          :        -574.02825769 Ha      -15620.10363388 eV
  | Energy correction for multipole
  | error in Hartree potential    :          -0.00586694 Ha          -0.15964755 eV
  | Sum of eigenvalues per atom                           :        -375.62079123 eV
  | Total energy (T->0) per atom                          :        -694.29999050 eV  <-- do not rely on this value for anything but (periodic) metals
  | Electronic free energy per atom                       :        -694.29999050 eV

  Self-consistency convergence accuracy:
  | Change of charge density      : 0.9254E-02
  | Change of sum of eigenvalues  : 0.1690E+01 eV
  | Change of total energy        : -.2094E-02 eV

  End self-consistency iteration #     6       :  max(cpu_time)    wall_clock(cpu1)
  | Time for this iteration                    :        1.161 s           1.160 s
  | Charge density update                      :        0.368 s           0.368 s
  | Density mixing                             :        0.008 s           0.008 s
  | Hartree multipole update                   :        0.005 s           0.005 s
  | Hartree multipole summation                :        0.208 s           0.209 s
  | Integration                                :        0.540 s           0.539 s
  | Solution of K.-S. eqns.                    :        0.031 s           0.031 s
  | Total energy evaluation                    :        0.000 s           0.000 s
------------------------------------------------------------

------------------------------------------------------------
          Begin self-consistency iteration #    7

  Date     :  20150727, Time     :  121021.898
------------------------------------------------------------
  Evaluating new KS density.
  Integration grid: deviation in total charge (<rho> - N_e) =  -2.842171E-14
  Pulay mixing of updated and previous charge densities.

  Evaluating partitioned Hartree potential by multipole expansion.
  | Analytical far-field extrapolation by fixed multipoles:
  | Hartree multipole sum: apparent total charge =  -0.547849E-05
  Summing up the Hartree potential.
  Time summed over all CPUs for potential: real work        1.652 s, elapsed        1.664 s
  | RMS charge density error from multipole expansion :   0.152467E-01

  Integrating Hamiltonian matrix: batch-based integration.
  Time summed over all CPUs for integration: real work        4.198 s, elapsed        4.308 s

  Updating Kohn-Sham eigenvalues, eigenvectors, occupation numbers, and Fermi level.
  Solving generalized eigenproblem
  Updating Kohn-Sham eigenvalues and eigenfunctions.
  Solving real generalised eigenvalue problem by standard LAPACK (fast)
  Determining occupation numbers for Kohn-Sham eigenstates.
  | Chemical potential (Fermi level) in eV                 : -.32516779E+01
  | Error in electron count due to remaining E_F inaccuracy: 0.00000000E+00
  | Maximum occupation number of highest empty state:  0.00E+00

  Highest occupied state (VBM) at     -5.42320064 eV
  | Occupation number:      2.00000000

  Lowest unoccupied state (CBM) at    -1.65358356 eV
  | Occupation number:      0.00000000

  Overall HOMO-LUMO gap:      3.76961707 eV.

  Total energy components:
  | Sum of eigenvalues            :        -165.79167365 Ha       -4511.42097865 eV
  | XC energy correction          :         -37.17015031 Ha       -1011.45125198 eV
  | XC potential correction       :          47.50506256 Ha        1292.67852297 eV
  | Free-atom electrostatic energy:        -143.49559215 Ha       -3904.71373202 eV
  | Hartree energy correction     :          -7.22820236 Ha        -196.68939378 eV
  | van der Waals energy corr.    :           0.00000000 Ha           0.00000000 eV
  | Entropy correction            :           0.00000000 Ha           0.00000000 eV
  | ---------------------------
  | Total energy                  :        -306.18055592 Ha       -8331.59683346 eV
  | Total energy, T -> 0          :        -306.18055592 Ha       -8331.59683346 eV  <-- do not rely on this value for anything but (periodic) metals
  | Electronic free energy        :        -306.18055592 Ha       -8331.59683346 eV

  Derived energy quantities:
  | Kinetic energy                :         305.08554485 Ha        8301.80006644 eV
  | Electrostatic energy          :        -574.09595046 Ha      -15621.94564792 eV
  | Energy correction for multipole
  | error in Hartree potential    :          -0.00563518 Ha          -0.15334109 eV
  | Sum of eigenvalues per atom                           :        -375.95174822 eV
  | Total energy (T->0) per atom                          :        -694.29973612 eV  <-- do not rely on this value for anything but (periodic) metals
  | Electronic free energy per atom                       :        -694.29973612 eV

  Self-consistency convergence accuracy:
  | Change of charge density      : 0.1040E-01
  | Change of sum of eigenvalues  : -.3971E+01 eV
  | Change of total energy        : 0.3053E-02 eV

  End self-consistency iteration #     7       :  max(cpu_time)    wall_clock(cpu1)
  | Time for this iteration                    :        1.161 s           1.160 s
  | Charge density update                      :        0.368 s           0.367 s
  | Density mixing                             :        0.009 s           0.009 s
  | Hartree multipole update                   :        0.005 s           0.005 s
  | Hartree multipole summation                :        0.208 s           0.208 s
  | Integration                                :        0.540 s           0.540 s
  | Solution of K.-S. eqns.                    :        0.031 s           0.031 s
  | Total energy evaluation                    :        0.000 s           0.000 s
------------------------------------------------------------

------------------------------------------------------------
          Begin self-consistency iteration #    8

  Date     :  20150727, Time     :  121023.058
------------------------------------------------------------
  Evaluating new KS density.
  Integration grid: deviation in total charge (<rho> - N_e) =   2.131628E-14
  Pulay mixing of updated and previous charge densities.

  Evaluating partitioned Hartree potential by multipole expansion.
  | Analytical far-field extrapolation by fixed multipoles:
  | Hartree multipole sum: apparent total charge =  -0.548970E-05
  Summing up the Hartree potential.
  Time summed over all CPUs for potential: real work        1.652 s, elapsed        1.664 s
  | RMS charge density error from multipole expansion :   0.152933E-01

  Integrating Hamiltonian matrix: batch-based integration.
  Time summed over all CPUs for integration: real work        4.200 s, elapsed        4.302 s

  Updating Kohn-Sham eigenvalues, eigenvectors, occupation numbers, and Fermi level.
  Solving generalized eigenproblem
  Updating Kohn-Sham eigenvalues and eigenfunctions.
  Solving real generalised eigenvalue problem by standard LAPACK (fast)
  Determining occupation numbers for Kohn-Sham eigenstates.
  | Chemical potential (Fermi level) in eV                 : -.32462988E+01
  | Error in electron count due to remaining E_F inaccuracy: 0.00000000E+00
  | Maximum occupation number of highest empty state:  0.00E+00

  Highest occupied state (VBM) at     -5.40602293 eV
  | Occupation number:      2.00000000

  Lowest unoccupied state (CBM) at    -1.65163191 eV
  | Occupation number:      0.00000000

  Overall HOMO-LUMO gap:      3.75439102 eV.

  Total energy components:
  | Sum of eigenvalues            :        -165.77559079 Ha       -4510.98334168 eV
  | XC energy correction          :         -37.17202947 Ha       -1011.50238667 eV
  | XC potential correction       :          47.50751991 Ha        1292.74539092 eV
  | Free-atom electrostatic energy:        -143.49559215 Ha       -3904.71373202 eV
  | Hartree energy correction     :          -7.24486325 Ha        -197.14275954 eV
  | van der Waals energy corr.    :           0.00000000 Ha           0.00000000 eV
  | Entropy correction            :           0.00000000 Ha           0.00000000 eV
  | ---------------------------
  | Total energy                  :        -306.18055575 Ha       -8331.59682899 eV
  | Total energy, T -> 0          :        -306.18055575 Ha       -8331.59682899 eV  <-- do not rely on this value for anything but (periodic) metals
  | Electronic free energy        :        -306.18055575 Ha       -8331.59682899 eV

  Derived energy quantities:
  | Kinetic energy                :         305.08571667 Ha        8301.80474180 eV
  | Electrostatic energy          :        -574.09424295 Ha      -15621.89918413 eV
  | Energy correction for multipole
  | error in Hartree potential    :          -0.00565608 Ha          -0.15390973 eV
  | Sum of eigenvalues per atom                           :        -375.91527847 eV
  | Total energy (T->0) per atom                          :        -694.29973575 eV  <-- do not rely on this value for anything but (periodic) metals
  | Electronic free energy per atom                       :        -694.29973575 eV

  Self-consistency convergence accuracy:
  | Change of charge density      : 0.1883E-02
  | Change of sum of eigenvalues  : 0.4376E+00 eV
  | Change of total energy        : 0.4467E-05 eV

  End self-consistency iteration #     8       :  max(cpu_time)    wall_clock(cpu1)
  | Time for this iteration                    :        1.162 s           1.162 s
  | Charge density update                      :        0.368 s           0.368 s
  | Density mixing                             :        0.011 s           0.011 s
  | Hartree multipole update                   :        0.004 s           0.004 s
  | Hartree multipole summation                :        0.209 s           0.209 s
  | Integration                                :        0.539 s           0.538 s
  | Solution of K.-S. eqns.                    :        0.030 s           0.030 s
  | Total energy evaluation                    :        0.001 s           0.000 s
------------------------------------------------------------

------------------------------------------------------------
          Begin self-consistency iteration #    9

  Date     :  20150727, Time     :  121024.220
------------------------------------------------------------
  Evaluating new KS density.
  Integration grid: deviation in total charge (<rho> - N_e) =  -7.105427E-15
  Pulay mixing of updated and previous charge densities.

  Evaluating partitioned Hartree potential by multipole expansion.
  | Analytical far-field extrapolation by fixed multipoles:
  | Hartree multipole sum: apparent total charge =  -0.549033E-05
  Summing up the Hartree potential.
  Time summed over all CPUs for potential: real work        1.652 s, elapsed        1.665 s
  | RMS charge density error from multipole expansion :   0.152938E-01

  Integrating Hamiltonian matrix: batch-based integration.
  Time summed over all CPUs for integration: real work        4.200 s, elapsed        4.308 s

  Updating Kohn-Sham eigenvalues, eigenvectors, occupation numbers, and Fermi level.
  Solving generalized eigenproblem
  Updating Kohn-Sham eigenvalues and eigenfunctions.
  Solving real generalised eigenvalue problem by standard LAPACK (fast)
  Determining occupation numbers for Kohn-Sham eigenstates.
  | Chemical potential (Fermi level) in eV                 : -.32454132E+01
  | Error in electron count due to remaining E_F inaccuracy: 0.00000000E+00
  | Maximum occupation number of highest empty state:  0.00E+00

  Highest occupied state (VBM) at     -5.40271967 eV
  | Occupation number:      2.00000000

  Lowest unoccupied state (CBM) at    -1.65164282 eV
  | Occupation number:      0.00000000

  Overall HOMO-LUMO gap:      3.75107686 eV.

  Total energy components:
  | Sum of eigenvalues            :        -165.77277657 Ha       -4510.90676285 eV
  | XC energy correction          :         -37.17225423 Ha       -1011.50850255 eV
  | XC potential correction       :          47.50781708 Ha        1292.75347736 eV
  | Free-atom electrostatic energy:        -143.49559215 Ha       -3904.71373202 eV
  | Hartree energy correction     :          -7.24774932 Ha        -197.22129353 eV
  | van der Waals energy corr.    :           0.00000000 Ha           0.00000000 eV
  | Entropy correction            :           0.00000000 Ha           0.00000000 eV
  | ---------------------------
  | Total energy                  :        -306.18055519 Ha       -8331.59681359 eV
  | Total energy, T -> 0          :        -306.18055519 Ha       -8331.59681359 eV  <-- do not rely on this value for anything but (periodic) metals
  | Electronic free energy        :        -306.18055519 Ha       -8331.59681359 eV

  Derived energy quantities:
  | Kinetic energy                :         305.08727270 Ha        8301.84708354 eV
  | Electrostatic energy          :        -574.09557366 Ha      -15621.93539457 eV
  | Energy correction for multipole
  | error in Hartree potential    :          -0.00565654 Ha          -0.15392218 eV
  | Sum of eigenvalues per atom                           :        -375.90889690 eV
  | Total energy (T->0) per atom                          :        -694.29973447 eV  <-- do not rely on this value for anything but (periodic) metals
  | Electronic free energy per atom                       :        -694.29973447 eV

  Self-consistency convergence accuracy:
  | Change of charge density      : 0.8553E-03
  | Change of sum of eigenvalues  : 0.7658E-01 eV
  | Change of total energy        : 0.1540E-04 eV

  End self-consistency iteration #     9       :  max(cpu_time)    wall_clock(cpu1)
  | Time for this iteration                    :        1.162 s           1.161 s
  | Charge density update                      :        0.366 s           0.366 s
  | Density mixing                             :        0.012 s           0.012 s
  | Hartree multipole update                   :        0.004 s           0.004 s
  | Hartree multipole summation                :        0.209 s           0.209 s
  | Integration                                :        0.540 s           0.539 s
  | Solution of K.-S. eqns.                    :        0.030 s           0.031 s
  | Total energy evaluation                    :        0.000 s           0.000 s
------------------------------------------------------------

------------------------------------------------------------
          Begin self-consistency iteration #   10

  Date     :  20150727, Time     :  121025.382
------------------------------------------------------------
  Evaluating new KS density.
  Integration grid: deviation in total charge (<rho> - N_e) =   2.842171E-14
  Pulay mixing of updated and previous charge densities.

  Evaluating partitioned Hartree potential by multipole expansion.
  | Analytical far-field extrapolation by fixed multipoles:
  | Hartree multipole sum: apparent total charge =  -0.548250E-05
  Summing up the Hartree potential.
  Time summed over all CPUs for potential: real work        1.652 s, elapsed        1.664 s
  | RMS charge density error from multipole expansion :   0.152982E-01

  Integrating Hamiltonian matrix: batch-based integration.
  Time summed over all CPUs for integration: real work        4.194 s, elapsed        4.308 s

  Updating Kohn-Sham eigenvalues, eigenvectors, occupation numbers, and Fermi level.
  Solving generalized eigenproblem
[...]
  |                                 -0.01075651       0.11679284      -0.00954338
  |                                  0.01004831      -0.00954338       0.10770362
  ----------------------------------------------------------------------


  Total energy components:
  | Sum of eigenvalues            :        -165.77453639 Ha       -4510.95464989 eV
  | XC energy correction          :         -37.17194449 Ha       -1011.50007419 eV
  | XC potential correction       :          47.50739813 Ha        1292.74207709 eV
  | Free-atom electrostatic energy:        -143.49559215 Ha       -3904.71373202 eV
  | Hartree energy correction     :          -7.24587973 Ha        -197.17041931 eV
  | van der Waals energy corr.    :          -0.00156806 Ha          -0.04266897 eV
  | Entropy correction            :           0.00000000 Ha           0.00000000 eV
  | ---------------------------
  | Total energy                  :        -306.18212268 Ha       -8331.63946730 eV
  | Total energy, T -> 0          :        -306.18212268 Ha       -8331.63946730 eV  <-- do not rely on this value for anything but (periodic) metals
  | Electronic free energy        :        -306.18212268 Ha       -8331.63946730 eV

  Derived energy quantities:
  | Kinetic energy                :         305.08880975 Ha        8301.88890875 eV
  | Electrostatic energy          :        -574.09741988 Ha      -15621.98563289 eV
  | Energy correction for multipole
  | error in Hartree potential    :          -0.00565164 Ha          -0.15378889 eV
  | Sum of eigenvalues per atom                           :        -375.91288749 eV
  | Total energy (T->0) per atom                          :        -694.30328894 eV  <-- do not rely on this value for anything but (periodic) metals
  | Electronic free energy per atom                       :        -694.30328894 eV

  atomic forces [eV/Ang]:
  -----------------------
  atom #    1
   Hellmann-Feynman + Multipole  : -.759247E+01 -.117907E+02 0.410576E+01
   Pulay + GGA                   : 0.753928E+01 0.155819E+02 -.628748E+01
   Van der Waals               : 0.131894E-02 0.443472E-02 -.270421E-02
   ----------------------------------------------------------------
   Total forces(   1)            : -.518792E-01 0.379561E+01 -.218442E+01
  atom #    2
   Hellmann-Feynman + Multipole  : 0.232270E+01 -.348668E+01 0.154970E+01
   Pulay + GGA                   : -.391295E-01 0.978646E-01 -.657423E-01
   Van der Waals               : 0.967511E-03 0.450757E-02 0.282466E-02
   ----------------------------------------------------------------
   Total forces(   2)            : 0.228454E+01 -.338431E+01 0.148678E+01
  atom #    3
   Hellmann-Feynman + Multipole  : -.219758E+01 -.323698E+00 -.168389E+00
   Pulay + GGA                   : 0.140651E+00 0.512908E-01 -.558746E-02
   Van der Waals               : 0.311126E-03 0.341063E-02 0.496882E-03
   ----------------------------------------------------------------
   Total forces(   3)            : -.205662E+01 -.268996E+00 -.173480E+00
  atom #    4
   Hellmann-Feynman + Multipole  : 0.815158E+01 -.475781E+01 -.144176E+02
   Pulay + GGA                   : -.889467E+01 0.276586E+01 0.138204E+02
   Van der Waals               : -.228543E-02 -.929140E-03 0.690158E-02
   ----------------------------------------------------------------
   Total forces(   4)            : -.745374E+00 -.199289E+01 -.590327E+00
  atom #    5
   Hellmann-Feynman + Multipole  : -.235784E+00 0.761724E+00 0.938908E+00
   Pulay + GGA                   : 0.551494E-02 0.394771E-01 0.861477E-01
   Van der Waals               : 0.155543E-03 -.140265E-03 -.142881E-02
   ----------------------------------------------------------------
   Total forces(   5)            : -.230114E+00 0.801061E+00 0.102363E+01
  atom #    6
   Hellmann-Feynman + Multipole  : 0.764493E+00 0.754664E+00 0.142547E+00
   Pulay + GGA                   : -.107176E+00 -.483024E-01 0.630157E-01
   Van der Waals               : 0.206297E-02 0.392827E-02 0.301384E-03
   ----------------------------------------------------------------
   Total forces(   6)            : 0.659380E+00 0.710290E+00 0.205864E+00
  atom #    7
   Hellmann-Feynman + Multipole  : 0.744523E+01 -.560154E+01 -.971652E+01
   Pulay + GGA                   : -.867969E+01 0.744756E+01 0.115218E+02
   Van der Waals               : -.104533E-03 0.230913E-02 -.764500E-02
   ----------------------------------------------------------------
   Total forces(   7)            : -.123456E+01 0.184832E+01 0.179762E+01
  atom #    8
   Hellmann-Feynman + Multipole  : -.427351E+00 0.325154E+00 -.224741E+01
   Pulay + GGA                   : 0.242253E-01 0.128982E-01 0.130117E+00
   Van der Waals               : -.542023E-03 -.101141E-02 -.187889E-02
   ----------------------------------------------------------------
   Total forces(   8)            : -.403668E+00 0.337041E+00 -.211917E+01
  atom #    9
   Hellmann-Feynman + Multipole  : 0.187410E+01 -.187760E+01 0.528164E+00
   Pulay + GGA                   : -.831930E-01 0.979879E-01 -.702535E-02
   Van der Waals               : 0.973770E-03 0.933755E-03 -.502418E-02
   ----------------------------------------------------------------
   Total forces(   9)            : 0.179188E+01 -.177868E+01 0.516114E+00
  atom #   10
   Hellmann-Feynman + Multipole  : -.143471E+02 -.507228E+01 0.501904E+00
   Pulay + GGA                   : 0.154923E+02 0.640405E+01 -.102292E+01
   Van der Waals               : -.306917E-03 -.955511E-02 0.438194E-02
   ----------------------------------------------------------------
   Total forces(  10)            : 0.114487E+01 0.132222E+01 -.516633E+00
  atom #   11
   Hellmann-Feynman + Multipole  : -.585506E+00 0.845454E-01 -.134414E+00
   Pulay + GGA                   : 0.126148E+00 -.602785E-01 0.343018E-01
   Van der Waals               : -.237328E-02 -.659425E-02 0.319205E-02
   ----------------------------------------------------------------
   Total forces(  11)            : -.461731E+00 0.176726E-01 -.969199E-01
  atom #   12
   Hellmann-Feynman + Multipole  : -.738523E+00 -.152380E+01 0.725477E+00
   Pulay + GGA                   : 0.498003E-01 0.115291E+00 -.630374E-01
   Van der Waals               : -.177671E-03 -.129390E-02 0.582585E-03
   ----------------------------------------------------------------
   Total forces(  12)            : -.688900E+00 -.140981E+01 0.663023E+00
  Timings for vdw_correction_hirshfeld (Tkatchenko-Scheffler 2009):
  | CPU time:        3.042 s, Wall clock time:        3.042 s.
  Removing unitary transformations (pure translations, rotations) from forces on atoms.
  Atomic forces before filtering:
  | Net force on center of mass :  0.781689E-02 -.246841E-02 0.120765E-01 eV/A
  | Net torque on center of mass:  -.431506E-02 -.922233E-02 -.120112E-01 eV
  Atomic forces after filtering:
  | Net force on center of mass :  -.535218E-15 0.535218E-15 -.802828E-15 eV/A
  | Net torque on center of mass:  0.000000E+00 -.151054E-14 0.377634E-15 eV
 
  Energy and forces in a compact form:
  | Total energy uncorrected      :         -0.833163946730027E+04 eV
  | Total energy corrected        :         -0.833163946730027E+04 eV  <-- do not rely on this value for anything but (periodic) metals
  | Electronic free energy        :         -0.833163946730027E+04 eV
  Total atomic forces (unitary forces cleaned) [eV/Ang]:
  |   1         -0.525289423833116E-01          0.379593939561979E+01         -0.218554926223534E+01
  |   2          0.228358922982345E+01         -0.338406775633606E+01          0.148582747603939E+01
  |   3         -0.205732040674420E+01         -0.268432480200121E+00         -0.174801937171424E+00
  |   4         -0.745411970046136E+00         -0.199284041026023E+01         -0.591358430842012E+00
  |   5         -0.230200320601896E+00          0.801124823995285E+00          0.102259270816074E+01
  |   6          0.659516448446683E+00          0.710125481184925E+00          0.204978763050683E+00
  |   7         -0.123486538524582E+01          0.184846815395100E+01          0.179657416166424E+01
  |   8         -0.403737182577407E+00          0.337148624636211E+00         -0.212024821177216E+01
  |   9          0.179136980345586E+01         -0.177870077543643E+01          0.515274011330166E+00
  |  10          0.114336139008100E+01          0.132250640029539E+01         -0.517478021490294E+00
  |  11         -0.463073495137121E+00          0.181395440188989E-01         -0.979736482945812E-01
  |  12         -0.690699169071108E+00         -0.140941100146867E+01          0.662162391560590E+00
 
  ------------------------------------ 
  Start decomposition of the XC Energy 
  ------------------------------------ 
  Hartree-Fock part   :          0.000000000 Ha              0.000000000 eV
  ------------------------------------ 
  X Energy            :        -35.875086677 Ha           -976.210777537 eV
  C Energy GGA        :         -1.296857815 Ha            -35.289296655 eV
  Total XC Energy     :        -37.171944492 Ha          -1011.500074192 eV
  LDA X and C from self-consistent density 
  X Energy LDA        :        -32.302748541 Ha           -879.002510944 eV
  C Energy LDA        :         -2.632373325 Ha            -71.630522705 eV
  ------------------------------------ 
  End decomposition of the XC Energy 
  ------------------------------------ 
  Performing Hirshfeld analysis of fragment charges and moments.
  ----------------------------------------------------------------------
  | Atom     1: O
  |   Hirshfeld charge        :     -0.27545434
  |   Free atom volume        :     23.95238533
  |   Hirshfeld volume        :     22.58906107
  |   Hirshfeld dipole vector :      0.01771121       0.03871217       0.02669486
  |   Hirshfeld dipole moment :      0.05024873
  |   Hirshfeld second moments:      0.05430361      -0.01919128       0.02051552
  |                                 -0.01919128      -0.00509610      -0.03318318
  |                                  0.02051552      -0.03318318      -0.05309982
  ----------------------------------------------------------------------
  | Atom     2: H
  |   Hirshfeld charge        :      0.13507369
  |   Free atom volume        :     10.44207651
  |   Hirshfeld volume        :      7.16024602
  |   Hirshfeld dipole vector :     -0.06462918       0.08413564      -0.03160704
  |   Hirshfeld dipole moment :      0.11070114
  |   Hirshfeld second moments:      0.12042936       0.00677396       0.00683991
  |                                  0.00677396       0.07379243      -0.00653486
  |                                  0.00683991      -0.00653486       0.08591656
  ----------------------------------------------------------------------
  | Atom     3: H
  |   Hirshfeld charge        :      0.12832103
  |   Free atom volume        :     10.44207651
  |   Hirshfeld volume        :      6.92316220
  |   Hirshfeld dipole vector :      0.11676113       0.02291317       0.01923299
  |   Hirshfeld dipole moment :      0.12053250
  |   Hirshfeld second moments:      0.10770596      -0.00983312       0.00198590
  |                                 -0.00983312       0.10538681      -0.00895456
  |                                  0.00198590      -0.00895456       0.08411724
  ----------------------------------------------------------------------
  | Atom     4: O
  |   Hirshfeld charge        :     -0.31318781
  |   Free atom volume        :     23.95238533
  |   Hirshfeld volume        :     22.30811226
  |   Hirshfeld dipole vector :     -0.02939331       0.02252512       0.01839752
  |   Hirshfeld dipole moment :      0.04134993
  |   Hirshfeld second moments:      0.01771352       0.05429904      -0.01155195
  |                                  0.05429904       0.00999353       0.01771632
  |                                 -0.01155195       0.01771632      -0.00812379
  ----------------------------------------------------------------------
  | Atom     5: H
  |   Hirshfeld charge        :      0.07324286
  |   Free atom volume        :     10.44207651
  |   Hirshfeld volume        :      7.94716824
  |   Hirshfeld dipole vector :      0.01367218       0.04002873       0.03246738
  |   Hirshfeld dipole moment :      0.05332315
  |   Hirshfeld second moments:      0.08539274      -0.00207734      -0.01140978
  |                                 -0.00207734       0.03708666      -0.02000788
  |                                 -0.01140978      -0.02000788       0.07139259
  ----------------------------------------------------------------------
  | Atom     6: H
  |   Hirshfeld charge        :      0.12715511
  |   Free atom volume        :     10.44207651
  |   Hirshfeld volume        :      6.73120029
  |   Hirshfeld dipole vector :     -0.10264308      -0.06142928       0.02218915
  |   Hirshfeld dipole moment :      0.12166148
  |   Hirshfeld second moments:      0.09513597       0.01292859      -0.00007936
  |                                  0.01292859       0.10909919       0.01229480
  |                                 -0.00007936       0.01229480       0.10163901
  ----------------------------------------------------------------------
  | Atom     7: O
  |   Hirshfeld charge        :     -0.21417024
  |   Free atom volume        :     23.95238533
  |   Hirshfeld volume        :     20.71563235
  |   Hirshfeld dipole vector :     -0.03451372      -0.01900439       0.00969525
  |   Hirshfeld dipole moment :      0.04057539
  |   Hirshfeld second moments:      0.02910026      -0.03656864       0.02650928
  |                                 -0.03656864       0.05425625      -0.00703800
  |                                  0.02650928      -0.00703800       0.07979438
  ----------------------------------------------------------------------
  | Atom     8: H
  |   Hirshfeld charge        :      0.16474686
  |   Free atom volume        :     10.44207651
  |   Hirshfeld volume        :      5.84165684
  |   Hirshfeld dipole vector :      0.01819710      -0.01864274       0.11880591
  |   Hirshfeld dipole moment :      0.12162866
  |   Hirshfeld second moments:      0.12673566      -0.01393556       0.00596766
  |                                 -0.01393556       0.12888330       0.00126376
  |                                  0.00596766       0.00126376       0.12024401
  ----------------------------------------------------------------------
  | Atom     9: H
  |   Hirshfeld charge        :      0.16674105
  |   Free atom volume        :     10.44207651
  |   Hirshfeld volume        :      6.30395531
  |   Hirshfeld dipole vector :     -0.08541459       0.07349506      -0.01804803
  |   Hirshfeld dipole moment :      0.11411795
  |   Hirshfeld second moments:      0.11183198      -0.00133461      -0.00076993
  |                                 -0.00133461       0.11018133       0.00818127
  |                                 -0.00076993       0.00818127       0.12767679
  ----------------------------------------------------------------------
  | Atom    10: O
  |   Hirshfeld charge        :     -0.28423084
  |   Free atom volume        :     23.95238533
  |   Hirshfeld volume        :     21.74767854
  |   Hirshfeld dipole vector :      0.04840615       0.01202735      -0.00321243
  |   Hirshfeld dipole moment :      0.04998132
  |   Hirshfeld second moments:      0.01738500      -0.01279116       0.01684095
  |                                 -0.01279116       0.04943668      -0.05211585
  |                                  0.01684095      -0.05211585      -0.01204004
  ----------------------------------------------------------------------
  | Atom    11: H
  |   Hirshfeld charge        :      0.14260176
  |   Free atom volume        :     10.44207651
  |   Hirshfeld volume        :      6.51685107
  |   Hirshfeld dipole vector :      0.10185509      -0.04596705       0.03566128
  |   Hirshfeld dipole moment :      0.11729943
  |   Hirshfeld second moments:      0.11105458       0.00774225      -0.00485505
  |                                  0.00774225       0.11869607      -0.00662375
  |                                 -0.00485505      -0.00662375       0.09765879
  ----------------------------------------------------------------------
  | Atom    12: H
  |   Hirshfeld charge        :      0.14911244
  |   Free atom volume        :     10.44207651
  |   Hirshfeld volume        :      6.10038715
  |   Hirshfeld dipole vector :      0.03797250       0.10586072      -0.05371988
  |   Hirshfeld dipole moment :      0.12463639
  |   Hirshfeld second moments:      0.12697627      -0.01075651       0.01004831
  |                                 -0.01075651       0.11679284      -0.00954338
  |                                  0.01004831      -0.00954338       0.10770362
  ----------------------------------------------------------------------


------------------------------------------------------------------------------
  Final output of selected total energy values:

  The following output summarizes some interesting total energy values
  at the end of a run (AFTER all relaxation, molecular dynamics, etc.).

  | Total energy of the DFT / Hartree-Fock s.c.f. calculation      :          -8331.639467300 eV
  | Final zero-broadening corrected energy (caution - metals only) :          -8331.639467300 eV
  | For reference only, the value of 1 Hartree used in FHI-aims is :             27.211384500 eV

  Before relying on these values, please be sure to understand exactly which
  total energy value is referred to by a given number. Different objects may
  all carry the same name 'total energy'. Definitions:

  Total energy of the DFT / Hartree-Fock s.c.f. calculation:
  | Note that this energy does not include ANY quantities calculated after the
  | s.c.f. cycle, in particular not ANY RPA, MP2, etc. many-body perturbation terms.

  Final zero-broadening corrected energy:
  | For metallic systems only, a broadening of the occupation numbers at the Fermi
  | level can be extrapolated back to zero broadening by an electron-gas inspired
  | formula. For all systems that are not real metals, this value can be
  | meaningless and should be avoided.

------------------------------------------------------------------------------

------------------------------------------------------------
          Leaving FHI-aims.
          Date     :  20150727, Time     :  121037.729

          Computational steps:
          | Number of self-consistency cycles          :           16

          Detailed time accounting                     :  max(cpu_time)    wall_clock(cpu1)
          | Total time                                 :       24.692 s          24.721 s
          | Preparation time                           :        0.171 s           0.675 s
          | Grid partitioning                          :        0.101 s           0.100 s
          | Preloading free-atom quantities on grid    :        0.014 s           0.013 s
          | Free-atom superposition energy             :        0.045 s           0.045 s
          | Total time for integrations                :        9.464 s           9.463 s
          | Total time for solution of K.-S. equations :        0.607 s           0.605 s
          | Total time for density & force components  :        8.949 s           8.947 s
          | Total time for mixing                      :        0.161 s           0.162 s
          | Total time for Hartree multipole update    :        0.069 s           0.068 s
          | Total time for Hartree multipole sum       :        4.374 s           4.375 s
          | Total time for total energy evaluation     :        0.004 s           0.005 s
          | Total time for scaled ZORA corrections     :        0.000 s           0.000 s
          | Total time for TS (2009) vdW correction    :        0.034 s           0.034 s

          Have a nice day.
------------------------------------------------------------
