  MPI-parallelism will be employed.
------------------------------------------------------------
          Invoking FHI-aims ...
          Version 081213
          Compiled on 2013/08/29 at 17:41:06 on host generoso.

          When using FHI-aims, please cite the following reference:

          Volker Blum, Ralf Gehrke, Felix Hanke, Paula Havu,
          Ville Havu, Xinguo Ren, Karsten Reuter, and Matthias Scheffler,
          'Ab Initio Molecular Simulations with Numeric Atom-Centered Orbitals: FHI-aims',
          Computer Physics Communications 180, 2175-2196 (2009)

          For any questions about FHI-aims, please visit the aimsclub website
          with its forums and wiki. Contributions to both the forums and the
          wiki are warmly encouraged - they are for you, and everyone is welcome there.

------------------------------------------------------------

  Date     :  20150727, Time     :  120501.183
  Time zero on CPU 1             :   0.429930000000000E-01  s.
  Internal wall clock time zero  :           207230701.183  s.

  Using        8 parallel tasks.
  Task        0 on host gen60 reporting.
  Task        1 on host gen60 reporting.
  Task        2 on host gen60 reporting.
  Task        3 on host gen60 reporting.
  Task        4 on host gen60 reporting.
  Task        5 on host gen60 reporting.
  Task        6 on host gen60 reporting.
  Task        7 on host gen60 reporting.

  Performing system and environment tests:
  | Environment variable OMP_NUM_THREADS correctly set to 1.
  | Checking for scalapack...
  | No scalapack compiled in.

  Obtaining array dimensions for all initial allocations:
  
  -----------------------------------------------------------------------
  Parsing control.in (first pass over file, find array dimensions only).
  The contents of control.in will be repeated verbatim below
  unless switched off by setting 'verbatim_writeout .false.' .
  in the first line of control.in .
  -----------------------------------------------------------------------
  
  #########################################################################################
  #
  #  Volker Blum, FHI 2008 : Test run input file control.in
  #
  #########################################################################################
  #
  #  Physical model
  #
    xc                 rpbe
    spin               none
    relativistic       atomic_zora scalar
    charge             0.
   vdw_correction_hirshfeld
  #
  #  SCF convergence
  #
    occupation_type    gaussian 0.01
    mixer              pulay
      n_max_pulay        10
      charge_mix_param   0.1
    sc_accuracy_rho    5E-5
    sc_accuracy_eev    5E-3
    sc_accuracy_etot   5E-6
    sc_iter_limit      3000
  #
  #  Eigenvalue solver
  #
    KS_method          lapack
      empty_states       8
      basis_threshold    0.e-5
  #
  #  Efficiency
  #
  #   all previous settings are now default, except stratmann still
  #   undecided. Continue to handle stratmann with care, if at all.
  #
  #  partition_type stratmann
    partition_type rho_r2
  #  hartree_partition_type stratmann
  #
  #  Oprions for large clusters (100's of atoms: memory saving / better scaling)
  #
  # for periodic systems:
  #
    density_update_method orbital
    packed_matrix_format none
  #  k_grid 6 6 6
  #  output k_eigenvalue 1
  #  distributed_spline_storage .true.
  #
  #  Relaxation
  #
  #  relax_geometry   bfgs 5.e-3
    sc_accuracy_forces 5.E-4
    final_forces_cleaned .true.
  #
  #  Output options
  #
  #  output mulliken
    output Hirshfeld
  #  output dipole
  
  #harmonic_length_scale 0.001
  
  ################################################################################
  #
  #  FHI-aims code project
  #  VB, Fritz-Haber Institut, 2007
  #
  #  Suggested "safe" defaults for H atom (to be pasted into control.in file)
  #  Basis constructed for a non-relativistic H2 molecule using the
  #  PW-LDA functional.
  #
  ################################################################################
    species        H
  #     global species definitions
      nucleus             1
      cut_pot             4.0  2.0  1.0
      cut_free_atom       finite 8.0
      logarithmic         0.00010000 100.00  1.0123
      basis_dep_cutoff    1d-4  # 1d-4 is safe default - please check 5d-4 if you wish!
      radial_base         24 7.0
      radial_multiplier   2
      angular_grids       specified
        division   0.2783  110
        division   0.3822  194
        division   0.5626  302
  #      division   0.5922  434
  #      division   0.6227  590
  #      division   0.7206  770
        outer_grid  302
      l_hartree           4
  ################################################################################
  #
  #  Definition of "minimal" basis
  #
  ################################################################################
  #     valence basis states
      valence      1  s   1.
  #     ion occupancy
      ion_occ      1  s   0.5
  ################################################################################
  #
  #  Suggested additional basis functions. For production calculations,
  #  uncomment them one after another (the most important basis functions are
  #  listed first).
  #
  ################################################################################
  #  "First tier" - improvements: -1014.90 meV to -62.69 meV
       hydro 2 s 2.1
       hydro 2 p 3.5
  #  "Second tier" - improvements: -12.89 meV to -1.83 meV
       hydro 1 s 0.85
       hydro 2 p 3.7
       hydro 2 s 1.2
       hydro 3 d 7
  #  "Third tier" - improvements: -0.25 meV to -0.12 meV
  #     hydro 4 f 11.2
  #     hydro 3 p 4.8
  #     hydro 4 d 9
  #     hydro 3 s 3.2
  
  ################################################################################
  #
  #  FHI-aims code project
  #  VB, Fritz-Haber Institut, 2007
  #
  #  Suggested "safe" defaults for O atom (to be pasted into control.in file)
  #  All values have been tested for a non-relativistic, non-spinpolarized O2
  #  molecule using the PW-LDA functional. Validity for PBE is expected.
  #
  #  Constructed for dimers: 1.0 A, 1.208 A, 1.5 A, 2.0 A, 3.0 A
  #
  ################################################################################
    species        O
  #     global species definitions
      nucleus             8
      mass                15.9994
      l_hartree           4
      cut_pot             4.0  2.0  1.0
      cut_free_atom       finite 8.0
      basis_dep_cutoff    1d-4  # 1d-4 is safe default - please check 5d-4 if you wish!
      logarithmic         0.00010000 100.00  1.0123
      radial_base         36 7.0
      radial_multiplier   2
       angular_grids specified
        division   0.4087  110
        division   0.5181  194
        division   0.6184  302
  #      division   0.7315  434
  #      division   0.7934  590
  #      division   0.9656  770
  #      division   1.4041  974
  #      outer_grid 974
        outer_grid 302
  ################################################################################
  #
  #  Definition of "minimal" basis
  #
  ################################################################################
  #     valence basis states
      valence      2  s   2.
      valence      2  p   4.
  #     ion occupancy
      ion_occ      2  s   1.
      ion_occ      2  p   3.
  ################################################################################
  #
  #  Suggested additional basis functions. For production calculations,
  #  uncomment them one after another (the most important basis functions are
  #  listed first).
  #
  ################################################################################
  #  "First tier" - improvements: -699.05 meV to -159.38 meV
       hydro 2 p 1.8
       hydro 3 d 7.6
       hydro 3 s 6.4
  #  "Second tier" - improvements: -49.91 meV to -5.39 meV
       hydro 4 f 11.6
       hydro 3 p 6.2
       hydro 3 d 5.6
       hydro 5 g 17.6
       hydro 1 s 0.75
  #  "Third tier" - improvements: -2.83 meV to -0.50 meV
  #     ionic 2 p auto
  #     hydro 4 f 10.8
  #     hydro 4 d 4.7
  #     hydro 2 s 6.8
  #  "Fourth tier" - improvements: -0.40 meV to -0.12 meV
  #     hydro 3 p 5
  #     hydro 3 s 3.3
  #     hydro 5 g 15.6
  #     hydro 4 f 17.6
  #     hydro 4 d 14
  # Further basis functions - -0.08 meV and below
  #     hydro 3 s 2.1
  #     hydro 4 d 11.6
  #     hydro 3 p 16
  #     hydro 2 s 17.2
  
  
  -----------------------------------------------------------------------
  Completed first pass over input file control.in .
  -----------------------------------------------------------------------
  
  
  -----------------------------------------------------------------------
  Parsing geometry.in (first pass over file, find array dimensions only).
  The contents of geometry.in will be repeated verbatim below
  unless switched off by setting 'verbatim_writeout .false.' .
  in the first line of geometry.in .
  -----------------------------------------------------------------------
  
  atom      -4.053030000      0.065001000     -1.525160000  O
  atom      -4.566710000      0.974813000     -1.912820000  H
  atom      -3.067820000      0.330172000     -1.477310000  H
  atom      -4.581760000     -0.256435000      0.939478000  O
  atom      -4.349860000      0.471090000      1.504340000  H
  atom      -5.393870000     -0.726611000      1.228070000  H
  atom      -1.645860000      0.870179000     -1.502250000  O
  atom      -1.568890000      1.501730000     -0.721051000  H
  atom      -0.824432000      0.282220000     -1.377720000  H
  atom      -1.975360000      2.858040000      0.453140000  O
  atom      -1.223550000      3.375850000      0.786238000  H
  atom      -2.537520000      2.567960000      1.156120000  H
  
  -----------------------------------------------------------------------
  Completed first pass over input file geometry.in .
  -----------------------------------------------------------------------
  
 
  Basic array size parameters: 
  | Number of species                 :        2
  | Number of atoms                   :       12
  | Max. basis fn. angular momentum   :        4
  | Max. atomic/ionic basis occupied n:        2
  | Max. number of basis fn. types    :        2
  | Max. radial fns per species/type  :        8
  | Max. logarithmic grid size        :     1301
  | Max. radial integration grid size :       73
  | Max. angular integration grid size:      302
  | Max. angular grid division number :        8
  | Radial grid for Hartree potential :     1301
  | Number of spin channels           :        1

------------------------------------------------------------
          Reading file control.in.
------------------------------------------------------------
  XC: Using RPBE gradient-corrected functionals.
  Spin treatment: No spin polarisation.
  Scalar relativistic treatment of kinetic energy: on-site free-atom approximation to ZORA.
  Charge =   0.000000E+00: Neutral system requested explicitly.
  Using non-empirical van der Waals correction (Hirshfeld partitioning):
  Occupation type: Gaussian broadening, width =   0.100000E-01 eV.
  Using pulay charge density mixing.
  Pulay mixing - number of memorized iterations:   10
  Charge density mixing - mixing parameter:     0.1000
  Convergence accuracy of self-consistent charge density: 0.5000E-04
  Convergence accuracy of sum of eigenvalues: 0.5000E-02
  Convergence accuracy of total energy: 0.5000E-05
  Maximum number of s.-c. iterations  :  3000
  Kohn-Sham eigenvalues and eigenfunctions calculated by lapack diagonalisation (D&C).
  Number of empty states per atom:        8
  Threshold for basis singularities: 0.0000E+00
  Partition function in integrals calculations: rho / r^2
 Using packed matrix format           0
  Convergence accuracy of forces: 0.5000E-03
  Cleaning forces before final output.
  Hirshfeld charge analysis will be performed.
 
  Reading configuration options for species H                   .
  | Found nuclear charge :   1.0000
  | Found cutoff potl. onset [A], width [A], scale factor :    4.00000    2.00000    1.00000
  | Found cutoff specification for free atom: Cutoff potential begins at    8.00000 A.
  | Found logarithmic grid data [bohr] : 0.1000E-03 0.1000E+03 0.1012E+01
  | Threshold for basis-dependent cutoff potential is   0.100000E-03
  | Found data for basic radial integration grid :    24 points, outermost radius =    7.000 A
  | Found multiplier for basic radial grid :   2
  | Found angular grid specification: user-specified.
  | Specified grid contains     4 separate shells.
  | Check grid settings after all constraints further below.
  | Found l_max for Hartree potential  :   4
  | Found free-atom valence shell :  1 s   1.000
  | No ionic wave fns used. Skipping ion_occ.
  | Found hydrogenic basis function :  2 s   2.100
  | Found hydrogenic basis function :  2 p   3.500
  | Found hydrogenic basis function :  1 s   0.850
  | Found hydrogenic basis function :  2 p   3.700
  | Found hydrogenic basis function :  2 s   1.200
  | Found hydrogenic basis function :  3 d   7.000
  Species H                   : Missing cutoff potential type.
  Defaulting to exp(1/x)/(1-x)^2 type cutoff potential.
  Species H : On-site basis accuracy parameter (for Gram-Schmidt orthonormalisation) not specified.
  Using default value basis_acc =  0.1000000E-03.
  Species H                   : Using default innermost maximum threshold i_radial=  2 for radial functions.
  Species H                   : Basic radial grid will be enhanced according to radial_multiplier =   2, to contain    49 grid points.
 
  Reading configuration options for species O                   .
  | Found nuclear charge :   8.0000
  | Found atomic mass :    15.9994000000000      amu
  | Found l_max for Hartree potential  :   4
  | Found cutoff potl. onset [A], width [A], scale factor :    4.00000    2.00000    1.00000
  | Found cutoff specification for free atom: Cutoff potential begins at    8.00000 A.
  | Threshold for basis-dependent cutoff potential is   0.100000E-03
  | Found logarithmic grid data [bohr] : 0.1000E-03 0.1000E+03 0.1012E+01
  | Found data for basic radial integration grid :    36 points, outermost radius =    7.000 A
  | Found multiplier for basic radial grid :   2
  | Found angular grid specification: user-specified.
  | Specified grid contains     4 separate shells.
  | Check grid settings after all constraints further below.
  | Found free-atom valence shell :  2 s   2.000
  | Found free-atom valence shell :  2 p   4.000
  | No ionic wave fns used. Skipping ion_occ.
  | No ionic wave fns used. Skipping ion_occ.
  | Found hydrogenic basis function :  2 p   1.800
  | Found hydrogenic basis function :  3 d   7.600
  | Found hydrogenic basis function :  3 s   6.400
  | Found hydrogenic basis function :  4 f  11.600
  | Found hydrogenic basis function :  3 p   6.200
  | Found hydrogenic basis function :  3 d   5.600
  | Found hydrogenic basis function :  5 g  17.600
  | Found hydrogenic basis function :  1 s   0.750
  Species O                   : Missing cutoff potential type.
  Defaulting to exp(1/x)/(1-x)^2 type cutoff potential.
  Species O : On-site basis accuracy parameter (for Gram-Schmidt orthonormalisation) not specified.
  Using default value basis_acc =  0.1000000E-03.
  Species O                   : Using default innermost maximum threshold i_radial=  2 for radial functions.
  Species O                   : Basic radial grid will be enhanced according to radial_multiplier =   2, to contain    73 grid points.
 
  Finished reading input file 'control.in'. Consistency checks are next.
 
  Target number of points in a grid batch is not set. Defaulting to  100
  Method for grid partitioning is not set. Defaulting to parallel hash+maxmin partitioning.
  Batch size limit is not set. Defaulting to    200
  By default, will store active basis functions for each batch.
  If in need of memory, prune_basis_once .false. can be used to disable this option.
  communication_type for Hartree potential was not specified.
  Defaulting to calc_hartree .
  Pulay mixer: Number of initial linear mixing iterations not set.
  Defaulting to    0 iterations.
  Work space size for distributed Hartree potential not set.
  Defaulting to   0.200000E+03 MB.
  Algorithm-dependent basis array size parameters:
  | n_max_pulay                         :       10
  Geometry relaxation not requested: no relaxation will be performed.
  Handling of forces: Unphysical translation and rotation will be removed from forces.
  No accuracy limit for integral partition fn. given. Defaulting to 0.1000E-14.
  No threshold value for u(r) in integrations given. Defaulting to 0.1000E-05.
  No accuracy for occupation numbers given. Defaulting to 0.1000E-07.
  No threshold value for occupation numbers given. Defaulting to 0.0000E+00.
  No accuracy for fermi level given. Defaulting to 0.1000E-19.
  Maximum # of iterations to find E_F not set. Defaulting to  200.
  Will not use alltoall communication since running on < 1024 CPUs.
  Partitioning for Hartree potential was not defined. Using partition_type for integrals.
  | Reporting present value of keyword multip_moments_threshold  :       0.10000000E-09
  | This value may affect high angular momentum components of the Hartree potential in periodic systems.
  No q(lm)/r^(l+1) cutoff set for long-range Hartree potential.
  | Using default value of  0.100000E-09 .
  | Verify using the multipole_threshold keyword.
  Defaulting to new monopole extrapolation.
  Density update method: Loop over occupied states selected for charge density update.
------------------------------------------------------------


------------------------------------------------------------
          Reading geometry description geometry.in.
------------------------------------------------------------
  Input structure read successfully.
  The structure contains       12 atoms,  and a total of         40.000 electrons.

  Input geometry:
  | No unit cell requested.
  | Atomic structure:
  |       Atom                x [A]            y [A]            z [A]
  |    1: Species O             -4.053030         0.065001        -1.525160
  |    2: Species H             -4.566710         0.974813        -1.912820
  |    3: Species H             -3.067820         0.330172        -1.477310
  |    4: Species O             -4.581760        -0.256435         0.939478
  |    5: Species H             -4.349860         0.471090         1.504340
  |    6: Species H             -5.393870        -0.726611         1.228070
  |    7: Species O             -1.645860         0.870179        -1.502250
  |    8: Species H             -1.568890         1.501730        -0.721051
  |    9: Species H             -0.824432         0.282220        -1.377720
  |   10: Species O             -1.975360         2.858040         0.453140
  |   11: Species H             -1.223550         3.375850         0.786238
  |   12: Species H             -2.537520         2.567960         1.156120
  |

  | The smallest distance between any two atoms is         0.94570141 AA.
  |
  | The first atom of this pair is atom number                     10 .
  | The second atom of this pair is atom number                    12 .

  Structure-dependent array size parameters: 
  | Maximum number of distinct radial functions  :       18
  | Maximum number of basis functions            :      276
  | Number of Kohn-Sham states (occupied + empty):       68
------------------------------------------------------------

------------------------------------------------------------
          Preparing all fixed parts of the calculation.
------------------------------------------------------------
  Determining machine precision:
    2.225073858507201E-308
  Setting up grids for atomic and cluster calculations.

  Creating wave function, potential, and density for free atoms.

  Species: H

  List of occupied orbitals and eigenvalues:
    n    l              occ      energy [Ha]    energy [eV]
    1    0           1.0000        -0.241408        -6.5691


  Species: O

  List of occupied orbitals and eigenvalues:
    n    l              occ      energy [Ha]    energy [eV]
    1    0           2.0000       -18.944147      -515.4965
    2    0           2.0000        -0.883529       -24.0421
    2    1           4.0000        -0.330176        -8.9845

  Creating fixed part of basis set: Ionic, confined, hydrogenic.
 
  H                    hydrogenic:
 
  List of hydrogenic basis orbitals: 
    n    l      effective z      eigenvalue [eV]  inner max. [A]     outer max. [A]     outer radius [A]   
    2    0         2.100000       -14.9965           0.193241           1.317192           5.372934
    2    1         3.500000       -41.6672           0.602363           0.602363           4.056010
    1    0         0.850000        -9.8292           0.624864           0.624864           5.372934
    2    1         3.700000       -46.5653           0.573616           0.573616           3.909951
    2    0         1.200000        -4.5995           0.334977           2.228160           5.505921
    3    2         7.000000       -74.0753           0.680692           0.680692           3.769152
 
 
  O                    hydrogenic:
 
  List of hydrogenic basis orbitals: 
    n    l      effective z      eigenvalue [eV]  inner max. [A]     outer max. [A]     outer radius [A]   
    2    1         1.800000       -11.0118           1.178546           1.178546           5.432516
    3    2         7.600000       -87.3182           0.624117           0.624117           3.541422
    3    0         6.400000       -61.9209           0.061166           1.081887           4.306510
    4    3        11.600000      -114.4238           0.731621           0.731621           3.584982
    3    1         6.200000       -58.1113           0.255677           1.030255           4.306510
    3    2         5.600000       -47.4081           0.847222           0.847222           4.413102
    5    4        17.600000      -168.5799           0.749730           0.749730           3.372413
    1    0         0.750000        -7.6499           0.705275           0.705275           5.366508
 

  Adding cutoff potential to free-atom effective potential.
  Creating atomic-like basis functions for current effective potential.

  Species H                   :

  List of atomic basis orbitals and eigenvalues:
    n    l      energy [Ha]    energy [eV]    outer radius [A]
    1    0        -0.241374        -6.5681       5.372934


  Species O                   :

  List of atomic basis orbitals and eigenvalues:
    n    l      energy [Ha]    energy [eV]    outer radius [A]
    1    0       -18.944147      -515.4965       1.415745
    2    0        -0.883529       -24.0421       5.048305
    2    1        -0.330173        -8.9845       5.301302

  Assembling full basis from fixed parts.
  | Species H :   atomic orbital   1 s accepted.
  | Species H :    hydro orbital   2 s accepted.
  | Species H :    hydro orbital   1 s accepted.
  | Species H :    hydro orbital   2 s accepted.
  | Species H :    hydro orbital   2 p accepted.
  | Species H :    hydro orbital   2 p accepted.
  | Species H :    hydro orbital   3 d accepted.
  | Species O :   atomic orbital   1 s accepted.
  | Species O :    hydro orbital   3 s accepted.
  | Species O :   atomic orbital   2 s accepted.
  | Species O :    hydro orbital   1 s accepted.
  | Species O :    hydro orbital   3 p accepted.
  | Species O :   atomic orbital   2 p accepted.
  | Species O :    hydro orbital   2 p accepted.
  | Species O :    hydro orbital   3 d accepted.
  | Species O :    hydro orbital   3 d accepted.
  | Species O :    hydro orbital   4 f accepted.
  | Species O :    hydro orbital   5 g accepted.
 
  Basis size parameters after reduction:
  | Total number of radial functions:       18
  | Total number of basis functions :      276
 
  Testing on-site integration grid accuracy.
  |  Species  Function  <phi|h_atom|phi> (log., in eV)  <phi|h_atom|phi> (rad., in eV)
           1        1                 -6.5683835025                 -6.5684759159
           1        2                 13.3711789951                 13.3708738703
           1        3                 23.6590910787                 23.6532055418
           1        4                 16.2963827186                 16.1870710655 ***
           1        5                 28.7627214838                 28.7627215090
           1        6                 59.5965249172                 59.5965950857
           1        7                 60.2220506392                 60.2220503827
           2        8               -515.4964576505               -515.4964530710
           2        9                 15.3030791347                 15.3030722972
           2       10                -21.7296094581                -21.7296135470
           2       11                 14.2969371730                 14.2969701621
           2       12                 21.0679693190                 21.0679697493
           2       13                 -2.3833606469                 -2.3833613176
           2       14                 13.7067136422                 13.7066766629
           2       15                 45.8013116808                 45.8013116965
           2       16                 52.2309815402                 52.2309831494
           2       17                 85.4120732416                 85.4120732763
           2       18                142.1019167745                142.1019167817
 * Note: Onsite integrals marked "***" above are less accurate than
 * onsite_accuracy_threshold =    0.03000 eV. Usually, this is harmless.
 * When in doubt, tighten the "radial" and/or "radial_multiplier" flags to check.

  Preparing densities etc. for the partition functions (integrals / Hartree potential).

  Preparations completed.
  max(cpu_time)          :      0.169 s.
  Wall clock time (cpu1) :      0.609 s.
------------------------------------------------------------

------------------------------------------------------------
          Begin self-consistency loop: Initialization.

          Date     :  20150727, Time     :  120501.826
------------------------------------------------------------

  Initializing index lists of integration centers etc. from given atomic structure:
  | Number of centers in hartree potential         :        12
  | Number of centers in hartree multipole         :        12
  | Number of centers in electron density summation:        12
  | Number of centers in basis integrals           :        12
  | Number of centers in integrals                 :        12
  Partitioning the integration grid into batches with parallel hashing+maxmin method.
  | Number of batches:     1833
  | Maximal batch size:     130
  | Minimal batch size:      50
  | Average batch size:      85.853
  | Standard deviation of batch sizes:      28.790

  Integration load balanced across     8 MPI tasks.
  Work distribution over tasks is as follows:
  Task     0 has      19678 integration points.
  Task     1 has      19704 integration points.
  Task     2 has      19631 integration points.
  Task     3 has      19630 integration points.
  Task     4 has      19730 integration points.
  Task     5 has      19609 integration points.
  Task     6 has      19680 integration points.
  Task     7 has      19706 integration points.
  Initializing partition tables, free-atom densities, potentials, etc. across the integration grid (initialize_grid_storage).
  | Net number of integration points:   157368
  | of which are non-zero points    :   156841
  Obtaining max. number of non-zero basis functions in each batch (get_n_compute_maxes).
  | Maximal number of non-zero basis functions:      274 in task     0
  | Maximal number of non-zero basis functions:      274 in task     1
  | Maximal number of non-zero basis functions:      274 in task     2
  | Maximal number of non-zero basis functions:      274 in task     3
  | Maximal number of non-zero basis functions:      274 in task     4
  | Maximal number of non-zero basis functions:      274 in task     5
  | Maximal number of non-zero basis functions:      274 in task     6
  | Maximal number of non-zero basis functions:      274 in task     7
  Integrating Hamiltonian matrix: batch-based integration.
  Time summed over all CPUs for integration: real work        4.747 s, elapsed        4.828 s
  Integrating overlap matrix.
  Time summed over all CPUs for integration: real work        2.512 s, elapsed        2.560 s

  Updating Kohn-Sham eigenvalues, eigenvectors, occupation numbers, and Fermi level.
  Solving generalized eigenproblem
  Updating Kohn-Sham eigenvalues and eigenfunctions.
  Transforming overlap matrix and checking for singularities.
  Overlap matrix is nonsingular:
  | Lowest eigenvalue:  0.299588E-03
  Solving real generalised eigenvalue problem by standard LAPACK (fast)
  Determining occupation numbers for Kohn-Sham eigenstates.
  | Chemical potential (Fermi level) in eV                 : -.45625368E+01
  | Error in electron count due to remaining E_F inaccuracy: 0.00000000E+00
  | Maximum occupation number of highest empty state:  0.00E+00

  Writing Kohn-Sham eigenvalues.

  State    Occupation    Eigenvalue [Ha]    Eigenvalue [eV]
      1       2.00000         -19.057199         -518.57277
      2       2.00000         -19.051953         -518.43002
      3       2.00000         -19.042518         -518.17327
      4       2.00000         -19.019703         -517.55245
      5       2.00000          -1.107906          -30.14764
      6       2.00000          -1.098589          -29.89413
      7       2.00000          -1.086425          -29.56313
      8       2.00000          -1.042031          -28.35510
      9       2.00000          -0.649473          -17.67306
     10       2.00000          -0.644411          -17.53530
     11       2.00000          -0.608914          -16.56939
     12       2.00000          -0.590563          -16.07003
     13       2.00000          -0.522337          -14.21350
     14       2.00000          -0.505906          -13.76640
     15       2.00000          -0.498848          -13.57435
     16       2.00000          -0.469976          -12.78869
     17       2.00000          -0.442888          -12.05160
     18       2.00000          -0.439660          -11.96375
     19       2.00000          -0.430665          -11.71898
     20       2.00000          -0.402573          -10.95456
     21       0.00000          -0.095365           -2.59501
     22       0.00000          -0.065862           -1.79218
     23       0.00000          -0.060175           -1.63744
     24       0.00000          -0.044484           -1.21047
     25       0.00000          -0.012901           -0.35104
     26       0.00000           0.037189            1.01197
     27       0.00000           0.043262            1.17723
     28       0.00000           0.046646            1.26931
     29       0.00000           0.069555            1.89268
     30       0.00000           0.080565            2.19228
     31       0.00000           0.088702            2.41372
     32       0.00000           0.100289            2.72901
     33       0.00000           0.104646            2.84757
     34       0.00000           0.117085            3.18604
     35       0.00000           0.118638            3.22831
     36       0.00000           0.131846            3.58772
     37       0.00000           0.135763            3.69430
     38       0.00000           0.146442            3.98490
     39       0.00000           0.164718            4.48220
     40       0.00000           0.168357            4.58124
     41       0.00000           0.202315            5.50526
     42       0.00000           0.221415            6.02500
     43       0.00000           0.233209            6.34594
     44       0.00000           0.256433            6.97790
     45       0.00000           0.272567            7.41693
     46       0.00000           0.279329            7.60093
     47       0.00000           0.297291            8.08969
     48       0.00000           0.308306            8.38943
     49       0.00000           0.339165            9.22916
     50       0.00000           0.355773            9.68106
     51       0.00000           0.378382           10.29630
     52       0.00000           0.388766           10.57887
     53       0.00000           0.394922           10.74636
     54       0.00000           0.414245           11.27218
     55       0.00000           0.421367           11.46598
     56       0.00000           0.430376           11.71113
     57       0.00000           0.436588           11.88018
     58       0.00000           0.449215           12.22377
     59       0.00000           0.480603           13.07788
     60       0.00000           0.504388           13.72510
     61       0.00000           0.521595           14.19333
     62       0.00000           0.547528           14.89899
     63       0.00000           0.565467           15.38713
     64       0.00000           0.591659           16.09985
     65       0.00000           0.636319           17.31512
     66       0.00000           0.671584           18.27473
     67       0.00000           0.697847           18.98939
     68       0.00000           0.708125           19.26907

  Highest occupied state (VBM) at    -10.95455667 eV
  | Occupation number:      2.00000000

  Lowest unoccupied state (CBM) at    -2.59501182 eV
  | Occupation number:      0.00000000

  Overall HOMO-LUMO gap:      8.35954485 eV.
  Calculating total energy contributions from superposition of free atom densities.

  Total energy components:
  | Sum of eigenvalues            :        -173.42506982 Ha       -4719.13625680 eV
  | XC energy correction          :         -36.43735006 Ha        -991.51074277 eV
  | XC potential correction       :          46.55699450 Ha        1266.88027846 eV
  | Free-atom electrostatic energy:        -143.15440873 Ha       -3895.42965878 eV
  | Hartree energy correction     :           0.00000000 Ha           0.00000000 eV
  | van der Waals energy corr.    :           0.00000000 Ha           0.00000000 eV
  | Entropy correction            :           0.00000000 Ha           0.00000000 eV
  | ---------------------------
  | Total energy                  :        -306.45983411 Ha       -8339.19637989 eV
  | Total energy, T -> 0          :        -306.45983411 Ha       -8339.19637989 eV  <-- do not rely on this value for anything but (periodic) metals
  | Electronic free energy        :        -306.45983411 Ha       -8339.19637989 eV

  Derived energy quantities:
  | Kinetic energy                :         303.29257725 Ha        8253.01093545 eV
  | Electrostatic energy          :        -573.31506130 Ha      -15600.69657257 eV
  | Energy correction for multipole
  | error in Hartree potential    :           0.00000000 Ha           0.00000000 eV
  | Sum of eigenvalues per atom                           :        -393.26135473 eV
  | Total energy (T->0) per atom                          :        -694.93303166 eV  <-- do not rely on this value for anything but (periodic) metals
  | Electronic free energy per atom                       :        -694.93303166 eV
  Initialize hartree_potential_storage
  Max. number of atoms included in rho_multipole:           12

  End scf initialization - timings             :  max(cpu_time)    wall_clock(cpu1)
  | Time for scf. initialization               :        1.304 s           1.304 s
  | Boundary condition initialization          :        0.000 s           0.000 s
  | Integration                                :        0.926 s           0.926 s
  | Solution of K.-S. eqns.                    :        0.119 s           0.119 s
  | Grid partitioning                          :        0.111 s           0.111 s
  | Preloading free-atom quantities on grid    :        0.014 s           0.013 s
  | Free-atom superposition energy             :        0.046 s           0.046 s
  | Total energy evaluation                    :        0.000 s           0.001 s
------------------------------------------------------------

------------------------------------------------------------
          Begin self-consistency iteration #    1

  Date     :  20150727, Time     :  120503.130
------------------------------------------------------------
  Evaluating new KS density.
  Integration grid: deviation in total charge (<rho> - N_e) =  -1.421085E-14
  Pulay mixing of updated and previous charge densities.

  Evaluating partitioned Hartree potential by multipole expansion.
  | Analytical far-field extrapolation by fixed multipoles:
  | Hartree multipole sum: apparent total charge =  -0.151829E-05
  Summing up the Hartree potential.
  Time summed over all CPUs for potential: real work        1.656 s, elapsed        1.662 s
  | RMS charge density error from multipole expansion :   0.145401E-02

  Integrating Hamiltonian matrix: batch-based integration.
  Time summed over all CPUs for integration: real work        4.742 s, elapsed        4.836 s

  Updating Kohn-Sham eigenvalues, eigenvectors, occupation numbers, and Fermi level.
  Solving generalized eigenproblem
  Updating Kohn-Sham eigenvalues and eigenfunctions.
  Solving real generalised eigenvalue problem by standard LAPACK (fast)
  Determining occupation numbers for Kohn-Sham eigenstates.
  | Chemical potential (Fermi level) in eV                 : -.41309927E+01
  | Error in electron count due to remaining E_F inaccuracy: 0.00000000E+00
  | Maximum occupation number of highest empty state:  0.00E+00

  Writing Kohn-Sham eigenvalues.

  State    Occupation    Eigenvalue [Ha]    Eigenvalue [eV]
      1       2.00000         -18.985774         -516.62921
      2       2.00000         -18.971874         -516.25095
      3       2.00000         -18.966804         -516.11300
      4       2.00000         -18.929992         -515.11128
      5       2.00000          -1.074937          -29.25053
      6       2.00000          -1.055169          -28.71260
      7       2.00000          -1.049995          -28.57182
      8       2.00000          -0.992149          -26.99775
      9       2.00000          -0.621569          -16.91374
     10       2.00000          -0.607119          -16.52056
     11       2.00000          -0.578188          -15.73330
     12       2.00000          -0.550638          -14.98362
     13       2.00000          -0.484267          -13.17757
     14       2.00000          -0.468479          -12.74798
     15       2.00000          -0.455767          -12.40205
     16       2.00000          -0.424802          -11.55944
     17       2.00000          -0.407609          -11.09160
     18       2.00000          -0.394655          -10.73911
     19       2.00000          -0.388398          -10.56883
     20       2.00000          -0.350477           -9.53697
     21       0.00000          -0.086484           -2.35336
     22       0.00000          -0.054135           -1.47309
     23       0.00000          -0.051761           -1.40849
     24       0.00000          -0.036019           -0.98014
     25       0.00000          -0.006660           -0.18122
     26       0.00000           0.048217            1.31206
     27       0.00000           0.050004            1.36068
     28       0.00000           0.056211            1.52958
     29       0.00000           0.080161            2.18128
     30       0.00000           0.089147            2.42582
     31       0.00000           0.098102            2.66950
     32       0.00000           0.107878            2.93552
     33       0.00000           0.116109            3.15947
     34       0.00000           0.124795            3.39585
     35       0.00000           0.127294            3.46384
     36       0.00000           0.142281            3.87167
     37       0.00000           0.150274            4.08915
     38       0.00000           0.159368            4.33662
     39       0.00000           0.173689            4.72632
     40       0.00000           0.183122            4.98301
     41       0.00000           0.216541            5.89238
     42       0.00000           0.234713            6.38686
     43       0.00000           0.244468            6.65232
     44       0.00000           0.264434            7.19562
     45       0.00000           0.282696            7.69255
     46       0.00000           0.289786            7.88547
     47       0.00000           0.306671            8.34493
     48       0.00000           0.317373            8.63617
     49       0.00000           0.353964            9.63185
     50       0.00000           0.362552            9.86553
     51       0.00000           0.390621           10.62933
     52       0.00000           0.400163           10.88898
     53       0.00000           0.405681           11.03915
     54       0.00000           0.422550           11.49816
     55       0.00000           0.428945           11.67219
     56       0.00000           0.440728           11.99281
     57       0.00000           0.447622           12.18042
     58       0.00000           0.459600           12.50637
     59       0.00000           0.493234           13.42157
     60       0.00000           0.516325           14.04992
     61       0.00000           0.531959           14.47533
     62       0.00000           0.561331           15.27461
     63       0.00000           0.581873           15.83357
     64       0.00000           0.604270           16.44302
     65       0.00000           0.649737           17.68026
     66       0.00000           0.685298           18.64792
     67       0.00000           0.714139           19.43272
     68       0.00000           0.721408           19.63052

  Highest occupied state (VBM) at     -9.53697269 eV
  | Occupation number:      2.00000000

  Lowest unoccupied state (CBM) at    -2.35335828 eV
  | Occupation number:      0.00000000

  Overall HOMO-LUMO gap:      7.18361442 eV.

  Total energy components:
  | Sum of eigenvalues            :        -171.51732250 Ha       -4667.22381096 eV
  | XC energy correction          :         -36.63354717 Ha        -996.84953767 eV
  | XC potential correction       :          46.81385622 Ha        1273.86984148 eV
  | Free-atom electrostatic energy:        -143.15440873 Ha       -3895.42965878 eV
  | Hartree energy correction     :          -1.84534646 Ha         -50.21443193 eV
  | van der Waals energy corr.    :           0.00000000 Ha           0.00000000 eV
  | Entropy correction            :           0.00000000 Ha           0.00000000 eV
  | ---------------------------
  | Total energy                  :        -306.33676864 Ha       -8335.84759786 eV
  | Total energy, T -> 0          :        -306.33676864 Ha       -8335.84759786 eV  <-- do not rely on this value for anything but (periodic) metals
  | Electronic free energy        :        -306.33676864 Ha       -8335.84759786 eV

  Derived energy quantities:
  | Kinetic energy                :         304.46188570 Ha        8284.82943734 eV
  | Electrostatic energy          :        -574.16510716 Ha      -15623.82749753 eV
  | Energy correction for multipole
  | error in Hartree potential    :          -0.00003737 Ha          -0.00101690 eV
  | Sum of eigenvalues per atom                           :        -388.93531758 eV
  | Total energy (T->0) per atom                          :        -694.65396649 eV  <-- do not rely on this value for anything but (periodic) metals
  | Electronic free energy per atom                       :        -694.65396649 eV

  Self-consistency convergence accuracy:
  | Change of charge density      : 0.6013E+00
  | Change of sum of eigenvalues  : 0.5191E+02 eV
  | Change of total energy        : 0.3349E+01 eV

  End self-consistency iteration #     1       :  max(cpu_time)    wall_clock(cpu1)
  | Time for this iteration                    :        1.238 s           1.237 s
  | Charge density update                      :        0.385 s           0.384 s
  | Density mixing                             :        0.002 s           0.003 s
  | Hartree multipole update                   :        0.005 s           0.004 s
  | Hartree multipole summation                :        0.208 s           0.209 s
  | Integration                                :        0.606 s           0.605 s
  | Solution of K.-S. eqns.                    :        0.030 s           0.031 s
  | Total energy evaluation                    :        0.000 s           0.000 s
------------------------------------------------------------

------------------------------------------------------------
          Begin self-consistency iteration #    2

  Date     :  20150727, Time     :  120504.367
------------------------------------------------------------
  Evaluating new KS density.
  Integration grid: deviation in total charge (<rho> - N_e) =   7.105427E-15
  Pulay mixing of updated and previous charge densities.

  Evaluating partitioned Hartree potential by multipole expansion.
  | Analytical far-field extrapolation by fixed multipoles:
  | Hartree multipole sum: apparent total charge =  -0.423748E-05
  Summing up the Hartree potential.
  Time summed over all CPUs for potential: real work        1.656 s, elapsed        1.662 s
  | RMS charge density error from multipole expansion :   0.577349E-02

  Integrating Hamiltonian matrix: batch-based integration.
  Time summed over all CPUs for integration: real work        4.746 s, elapsed        4.836 s

  Updating Kohn-Sham eigenvalues, eigenvectors, occupation numbers, and Fermi level.
  Solving generalized eigenproblem
  Updating Kohn-Sham eigenvalues and eigenfunctions.
  Solving real generalised eigenvalue problem by standard LAPACK (fast)
  Determining occupation numbers for Kohn-Sham eigenstates.
  | Chemical potential (Fermi level) in eV                 : -.29966724E+01
  | Error in electron count due to remaining E_F inaccuracy: 0.00000000E+00
  | Maximum occupation number of highest empty state:  0.00E+00

  Highest occupied state (VBM) at     -6.20256418 eV
  | Occupation number:      2.00000000

  Lowest unoccupied state (CBM) at    -1.88277147 eV
  | Occupation number:      0.00000000

  Overall HOMO-LUMO gap:      4.31979271 eV.

  Total energy components:
  | Sum of eigenvalues            :        -167.07416920 Ha       -4546.31945810 eV
  | XC energy correction          :         -37.10999295 Ha       -1009.81428691 eV
  | XC potential correction       :          47.43711664 Ha        1290.82962035 eV
  | Free-atom electrostatic energy:        -143.15440873 Ha       -3895.42965878 eV
  | Hartree energy correction     :          -6.29437648 Ha        -171.27869855 eV
  | van der Waals energy corr.    :           0.00000000 Ha           0.00000000 eV
  | Entropy correction            :           0.00000000 Ha           0.00000000 eV
  | ---------------------------
  | Total energy                  :        -306.19583072 Ha       -8332.01248198 eV
  | Total energy, T -> 0          :        -306.19583072 Ha       -8332.01248198 eV  <-- do not rely on this value for anything but (periodic) metals
  | Electronic free energy        :        -306.19583072 Ha       -8332.01248198 eV

  Derived energy quantities:
  | Kinetic energy                :         306.76835231 Ha        8347.59158706 eV
  | Electrostatic energy          :        -575.85419008 Ha      -15669.78978213 eV
  | Energy correction for multipole
  | error in Hartree potential    :          -0.00076263 Ha          -0.02075233 eV
  | Sum of eigenvalues per atom                           :        -378.85995484 eV
  | Total energy (T->0) per atom                          :        -694.33437350 eV  <-- do not rely on this value for anything but (periodic) metals
  | Electronic free energy per atom                       :        -694.33437350 eV

  Self-consistency convergence accuracy:
  | Change of charge density      : 0.4539E+00
  | Change of sum of eigenvalues  : 0.1209E+03 eV
  | Change of total energy        : 0.3835E+01 eV

  End self-consistency iteration #     2       :  max(cpu_time)    wall_clock(cpu1)
  | Time for this iteration                    :        1.237 s           1.237 s
  | Charge density update                      :        0.384 s           0.384 s
  | Density mixing                             :        0.004 s           0.004 s
  | Hartree multipole update                   :        0.004 s           0.005 s
  | Hartree multipole summation                :        0.209 s           0.208 s
  | Integration                                :        0.605 s           0.606 s
  | Solution of K.-S. eqns.                    :        0.031 s           0.030 s
  | Total energy evaluation                    :        0.000 s           0.000 s
------------------------------------------------------------

------------------------------------------------------------
          Begin self-consistency iteration #    3

  Date     :  20150727, Time     :  120505.605
------------------------------------------------------------
  Evaluating new KS density.
  Integration grid: deviation in total charge (<rho> - N_e) =  -1.421085E-14
  Pulay mixing of updated and previous charge densities.

  Evaluating partitioned Hartree potential by multipole expansion.
  | Analytical far-field extrapolation by fixed multipoles:
  | Hartree multipole sum: apparent total charge =  -0.370690E-05
  Summing up the Hartree potential.
  Time summed over all CPUs for potential: real work        1.656 s, elapsed        1.662 s
  | RMS charge density error from multipole expansion :   0.117566E-01

  Integrating Hamiltonian matrix: batch-based integration.
  Time summed over all CPUs for integration: real work        4.741 s, elapsed        4.828 s

  Updating Kohn-Sham eigenvalues, eigenvectors, occupation numbers, and Fermi level.
  Solving generalized eigenproblem
  Updating Kohn-Sham eigenvalues and eigenfunctions.
  Solving real generalised eigenvalue problem by standard LAPACK (fast)
  Determining occupation numbers for Kohn-Sham eigenstates.
  | Chemical potential (Fermi level) in eV                 : -.27491531E+01
  | Error in electron count due to remaining E_F inaccuracy: 0.00000000E+00
  | Maximum occupation number of highest empty state:  0.00E+00

  Highest occupied state (VBM) at     -6.10868027 eV
  | Occupation number:      2.00000000

  Lowest unoccupied state (CBM) at    -1.85114117 eV
  | Occupation number:      0.00000000

  Overall HOMO-LUMO gap:      4.25753910 eV.

  Total energy components:
  | Sum of eigenvalues            :        -167.32497035 Ha       -4553.14410455 eV
  | XC energy correction          :         -37.07842750 Ha       -1008.95534740 eV
  | XC potential correction       :          47.39190110 Ha        1289.59924313 eV
  | Free-atom electrostatic energy:        -143.15440873 Ha       -3895.42965878 eV
  | Hartree energy correction     :          -6.02655396 Ha        -163.99087691 eV
  | van der Waals energy corr.    :           0.00000000 Ha           0.00000000 eV
  | Entropy correction            :           0.00000000 Ha           0.00000000 eV
  | ---------------------------
  | Total energy                  :        -306.19245943 Ha       -8331.92074451 eV
  | Total energy, T -> 0          :        -306.19245943 Ha       -8331.92074451 eV  <-- do not rely on this value for anything but (periodic) metals
  | Electronic free energy        :        -306.19245943 Ha       -8331.92074451 eV

  Derived energy quantities:
  | Kinetic energy                :         305.06325754 Ha        8301.19359783 eV
  | Electrostatic energy          :        -574.17728947 Ha      -15624.15899494 eV
  | Energy correction for multipole
  | error in Hartree potential    :          -0.00428869 Ha          -0.11670128 eV
  | Sum of eigenvalues per atom                           :        -379.42867538 eV
  | Total energy (T->0) per atom                          :        -694.32672871 eV  <-- do not rely on this value for anything but (periodic) metals
  | Electronic free energy per atom                       :        -694.32672871 eV

  Self-consistency convergence accuracy:
  | Change of charge density      : 0.2304E+00
  | Change of sum of eigenvalues  : -.6825E+01 eV
  | Change of total energy        : 0.9174E-01 eV

  End self-consistency iteration #     3       :  max(cpu_time)    wall_clock(cpu1)
  | Time for this iteration                    :        1.235 s           1.234 s
  | Charge density update                      :        0.381 s           0.380 s
  | Density mixing                             :        0.006 s           0.006 s
  | Hartree multipole update                   :        0.004 s           0.004 s
  | Hartree multipole summation                :        0.209 s           0.209 s
  | Integration                                :        0.604 s           0.604 s
  | Solution of K.-S. eqns.                    :        0.031 s           0.031 s
  | Total energy evaluation                    :        0.000 s           0.000 s
------------------------------------------------------------

------------------------------------------------------------
          Begin self-consistency iteration #    4

  Date     :  20150727, Time     :  120506.839
------------------------------------------------------------
  Evaluating new KS density.
  Integration grid: deviation in total charge (<rho> - N_e) =   1.421085E-14
  Pulay mixing of updated and previous charge densities.

  Evaluating partitioned Hartree potential by multipole expansion.
  | Analytical far-field extrapolation by fixed multipoles:
  | Hartree multipole sum: apparent total charge =  -0.441726E-05
  Summing up the Hartree potential.
  Time summed over all CPUs for potential: real work        1.656 s, elapsed        1.661 s
  | RMS charge density error from multipole expansion :   0.151294E-01

  Integrating Hamiltonian matrix: batch-based integration.
  Time summed over all CPUs for integration: real work        4.724 s, elapsed        4.820 s

  Updating Kohn-Sham eigenvalues, eigenvectors, occupation numbers, and Fermi level.
  Solving generalized eigenproblem
  Updating Kohn-Sham eigenvalues and eigenfunctions.
  Solving real generalised eigenvalue problem by standard LAPACK (fast)
  Determining occupation numbers for Kohn-Sham eigenstates.
  | Chemical potential (Fermi level) in eV                 : -.22590307E+01
  | Error in electron count due to remaining E_F inaccuracy: 0.00000000E+00
  | Maximum occupation number of highest empty state:  0.00E+00

  Highest occupied state (VBM) at     -4.92190602 eV
  | Occupation number:      2.00000000

  Lowest unoccupied state (CBM) at    -1.72912310 eV
  | Occupation number:      0.00000000

  Overall HOMO-LUMO gap:      3.19278292 eV.

  Total energy components:
  | Sum of eigenvalues            :        -165.92688069 Ha       -4515.10014941 eV
  | XC energy correction          :         -37.24259390 Ha       -1013.42254241 eV
  | XC potential correction       :          47.60603784 Ha        1295.42620024 eV
  | Free-atom electrostatic energy:        -143.15440873 Ha       -3895.42965878 eV
  | Hartree energy correction     :          -7.46310043 Ha        -203.08129534 eV
  | van der Waals energy corr.    :           0.00000000 Ha           0.00000000 eV
  | Entropy correction            :           0.00000000 Ha           0.00000000 eV
  | ---------------------------
  | Total energy                  :        -306.18094591 Ha       -8331.60744570 eV
  | Total energy, T -> 0          :        -306.18094591 Ha       -8331.60744570 eV  <-- do not rely on this value for anything but (periodic) metals
  | Electronic free energy        :        -306.18094591 Ha       -8331.60744570 eV

  Derived energy quantities:
  | Kinetic energy                :         305.25975331 Ha        8306.54051963 eV
  | Electrostatic energy          :        -574.19810532 Ha      -15624.72542292 eV
  | Energy correction for multipole
  | error in Hartree potential    :          -0.00572798 Ha          -0.15586629 eV
  | Sum of eigenvalues per atom                           :        -376.25834578 eV
  | Total energy (T->0) per atom                          :        -694.30062048 eV  <-- do not rely on this value for anything but (periodic) metals
  | Electronic free energy per atom                       :        -694.30062048 eV

  Self-consistency convergence accuracy:
  | Change of charge density      : 0.1335E+00
  | Change of sum of eigenvalues  : 0.3804E+02 eV
  | Change of total energy        : 0.3133E+00 eV

  End self-consistency iteration #     4       :  max(cpu_time)    wall_clock(cpu1)
  | Time for this iteration                    :        1.233 s           1.233 s
  | Charge density update                      :        0.380 s           0.379 s
  | Density mixing                             :        0.006 s           0.007 s
  | Hartree multipole update                   :        0.004 s           0.004 s
  | Hartree multipole summation                :        0.209 s           0.209 s
  | Integration                                :        0.603 s           0.603 s
  | Solution of K.-S. eqns.                    :        0.031 s           0.030 s
  | Total energy evaluation                    :        0.000 s           0.000 s
------------------------------------------------------------

------------------------------------------------------------
          Begin self-consistency iteration #    5

  Date     :  20150727, Time     :  120508.072
------------------------------------------------------------
  Evaluating new KS density.
  Integration grid: deviation in total charge (<rho> - N_e) =   1.421085E-14
  Pulay mixing of updated and previous charge densities.

  Evaluating partitioned Hartree potential by multipole expansion.
  | Analytical far-field extrapolation by fixed multipoles:
  | Hartree multipole sum: apparent total charge =  -0.439402E-05
  Summing up the Hartree potential.
  Time summed over all CPUs for potential: real work        1.656 s, elapsed        1.661 s
  | RMS charge density error from multipole expansion :   0.157399E-01

  Integrating Hamiltonian matrix: batch-based integration.
  Time summed over all CPUs for integration: real work        4.726 s, elapsed        4.831 s

  Updating Kohn-Sham eigenvalues, eigenvectors, occupation numbers, and Fermi level.
  Solving generalized eigenproblem
  Updating Kohn-Sham eigenvalues and eigenfunctions.
  Solving real generalised eigenvalue problem by standard LAPACK (fast)
  Determining occupation numbers for Kohn-Sham eigenstates.
  | Chemical potential (Fermi level) in eV                 : -.22183283E+01
  | Error in electron count due to remaining E_F inaccuracy: 0.00000000E+00
  | Maximum occupation number of highest empty state:  0.00E+00

  Highest occupied state (VBM) at     -4.67467141 eV
  | Occupation number:      2.00000000

  Lowest unoccupied state (CBM) at    -1.72601858 eV
  | Occupation number:      0.00000000

  Overall HOMO-LUMO gap:      2.94865284 eV.

  Total energy components:
  | Sum of eigenvalues            :        -165.79726483 Ha       -4511.57312224 eV
  | XC energy correction          :         -37.26065971 Ha       -1013.91413811 eV
  | XC potential correction       :          47.62929991 Ha        1296.05919345 eV
  | Free-atom electrostatic energy:        -143.15440873 Ha       -3895.42965878 eV
  | Hartree energy correction     :          -7.59766091 Ha        -206.74287245 eV
  | van der Waals energy corr.    :           0.00000000 Ha           0.00000000 eV
  | Entropy correction            :           0.00000000 Ha           0.00000000 eV
  | ---------------------------
  | Total energy                  :        -306.18069427 Ha       -8331.60059814 eV
  | Total energy, T -> 0          :        -306.18069427 Ha       -8331.60059814 eV  <-- do not rely on this value for anything but (periodic) metals
  | Electronic free energy        :        -306.18069427 Ha       -8331.60059814 eV

  Derived energy quantities:
  | Kinetic energy                :         305.29789665 Ha        8307.57845292 eV
  | Electrostatic energy          :        -574.21793121 Ha      -15625.26491294 eV
  | Energy correction for multipole
  | error in Hartree potential    :          -0.00593973 Ha          -0.16162829 eV
  | Sum of eigenvalues per atom                           :        -375.96442685 eV
  | Total energy (T->0) per atom                          :        -694.30004984 eV  <-- do not rely on this value for anything but (periodic) metals
  | Electronic free energy per atom                       :        -694.30004984 eV

  Self-consistency convergence accuracy:
  | Change of charge density      : 0.3072E-01
  | Change of sum of eigenvalues  : 0.3527E+01 eV
  | Change of total energy        : 0.6848E-02 eV

  End self-consistency iteration #     5       :  max(cpu_time)    wall_clock(cpu1)
  | Time for this iteration                    :        1.236 s           1.235 s
  | Charge density update                      :        0.380 s           0.379 s
  | Density mixing                             :        0.007 s           0.008 s
  | Hartree multipole update                   :        0.005 s           0.004 s
  | Hartree multipole summation                :        0.208 s           0.209 s
  | Integration                                :        0.605 s           0.604 s
  | Solution of K.-S. eqns.                    :        0.030 s           0.030 s
  | Total energy evaluation                    :        0.000 s           0.000 s
------------------------------------------------------------

------------------------------------------------------------
          Begin self-consistency iteration #    6

  Date     :  20150727, Time     :  120509.308
------------------------------------------------------------
  Evaluating new KS density.
  Integration grid: deviation in total charge (<rho> - N_e) =  -7.105427E-15
  Pulay mixing of updated and previous charge densities.

  Evaluating partitioned Hartree potential by multipole expansion.
  | Analytical far-field extrapolation by fixed multipoles:
  | Hartree multipole sum: apparent total charge =  -0.439626E-05
  Summing up the Hartree potential.
  Time summed over all CPUs for potential: real work        1.656 s, elapsed        1.662 s
  | RMS charge density error from multipole expansion :   0.160686E-01

  Integrating Hamiltonian matrix: batch-based integration.
  Time summed over all CPUs for integration: real work        4.722 s, elapsed        4.804 s

  Updating Kohn-Sham eigenvalues, eigenvectors, occupation numbers, and Fermi level.
  Solving generalized eigenproblem
  Updating Kohn-Sham eigenvalues and eigenfunctions.
  Solving real generalised eigenvalue problem by standard LAPACK (fast)
  Determining occupation numbers for Kohn-Sham eigenstates.
  | Chemical potential (Fermi level) in eV                 : -.21893277E+01
  | Error in electron count due to remaining E_F inaccuracy: 0.00000000E+00
  | Maximum occupation number of highest empty state:  0.00E+00

  Highest occupied state (VBM) at     -4.60317296 eV
  | Occupation number:      2.00000000

  Lowest unoccupied state (CBM) at    -1.71750465 eV
  | Occupation number:      0.00000000

  Overall HOMO-LUMO gap:      2.88566830 eV.

  Total energy components:
  | Sum of eigenvalues            :        -165.71408177 Ha       -4509.30959623 eV
  | XC energy correction          :         -37.27171020 Ha       -1014.21483732 eV
  | XC potential correction       :          47.64360180 Ha        1296.44836749 eV
  | Free-atom electrostatic energy:        -143.15440873 Ha       -3895.42965878 eV
  | Hartree energy correction     :          -7.68420900 Ha        -209.09796567 eV
  | van der Waals energy corr.    :           0.00000000 Ha           0.00000000 eV
  | Entropy correction            :           0.00000000 Ha           0.00000000 eV
  | ---------------------------
  | Total energy                  :        -306.18080791 Ha       -8331.60369051 eV
  | Total energy, T -> 0          :        -306.18080791 Ha       -8331.60369051 eV  <-- do not rely on this value for anything but (periodic) metals
  | Electronic free energy        :        -306.18080791 Ha       -8331.60369051 eV

  Derived energy quantities:
  | Kinetic energy                :         305.31488438 Ha        8308.04071232 eV
  | Electrostatic energy          :        -574.22398208 Ha      -15625.42956551 eV
  | Energy correction for multipole
  | error in Hartree potential    :          -0.00605481 Ha          -0.16475989 eV
  | Sum of eigenvalues per atom                           :        -375.77579969 eV
  | Total energy (T->0) per atom                          :        -694.30030754 eV  <-- do not rely on this value for anything but (periodic) metals
  | Electronic free energy per atom                       :        -694.30030754 eV

  Self-consistency convergence accuracy:
  | Change of charge density      : 0.9105E-02
  | Change of sum of eigenvalues  : 0.2264E+01 eV
  | Change of total energy        : -.3092E-02 eV

  End self-consistency iteration #     6       :  max(cpu_time)    wall_clock(cpu1)
  | Time for this iteration                    :        1.233 s           1.233 s
  | Charge density update                      :        0.379 s           0.379 s
  | Density mixing                             :        0.009 s           0.009 s
  | Hartree multipole update                   :        0.004 s           0.004 s
  | Hartree multipole summation                :        0.209 s           0.208 s
  | Integration                                :        0.601 s           0.602 s
  | Solution of K.-S. eqns.                    :        0.031 s           0.030 s
  | Total energy evaluation                    :        0.000 s           0.001 s
------------------------------------------------------------

------------------------------------------------------------
          Begin self-consistency iteration #    7

  Date     :  20150727, Time     :  120510.541
------------------------------------------------------------
  Evaluating new KS density.
  Integration grid: deviation in total charge (<rho> - N_e) =   2.131628E-14
  Pulay mixing of updated and previous charge densities.

  Evaluating partitioned Hartree potential by multipole expansion.
  | Analytical far-field extrapolation by fixed multipoles:
  | Hartree multipole sum: apparent total charge =  -0.419267E-05
  Summing up the Hartree potential.
  Time summed over all CPUs for potential: real work        1.656 s, elapsed        1.661 s
  | RMS charge density error from multipole expansion :   0.160076E-01

  Integrating Hamiltonian matrix: batch-based integration.
  Time summed over all CPUs for integration: real work        4.719 s, elapsed        4.803 s

  Updating Kohn-Sham eigenvalues, eigenvectors, occupation numbers, and Fermi level.
  Solving generalized eigenproblem
  Updating Kohn-Sham eigenvalues and eigenfunctions.
  Solving real generalised eigenvalue problem by standard LAPACK (fast)
  Determining occupation numbers for Kohn-Sham eigenstates.
  | Chemical potential (Fermi level) in eV                 : -.22485221E+01
  | Error in electron count due to remaining E_F inaccuracy: 0.00000000E+00
  | Maximum occupation number of highest empty state:  0.00E+00

  Highest occupied state (VBM) at     -4.77030634 eV
  | Occupation number:      2.00000000

  Lowest unoccupied state (CBM) at    -1.73455034 eV
  | Occupation number:      0.00000000

  Overall HOMO-LUMO gap:      3.03575600 eV.

  Total energy components:
  | Sum of eigenvalues            :        -165.85729604 Ha       -4513.20665479 eV
  | XC energy correction          :         -37.25717906 Ha       -1013.81942492 eV
  | XC potential correction       :          47.62419468 Ha        1295.92027290 eV
  | Free-atom electrostatic energy:        -143.15440873 Ha       -3895.42965878 eV
  | Hartree energy correction     :          -7.53598063 Ha        -205.06446644 eV
  | van der Waals energy corr.    :           0.00000000 Ha           0.00000000 eV
  | Entropy correction            :           0.00000000 Ha           0.00000000 eV
  | ---------------------------
  | Total energy                  :        -306.18066979 Ha       -8331.59993202 eV
  | Total energy, T -> 0          :        -306.18066979 Ha       -8331.59993202 eV  <-- do not rely on this value for anything but (periodic) metals
  | Electronic free energy        :        -306.18066979 Ha       -8331.59993202 eV

  Derived energy quantities:
  | Kinetic energy                :         305.35741723 Ha        8309.19809009 eV
  | Electrostatic energy          :        -574.28090795 Ha      -15626.97859719 eV
  | Energy correction for multipole
  | error in Hartree potential    :          -0.00590220 Ha          -0.16060697 eV
  | Sum of eigenvalues per atom                           :        -376.10055457 eV
  | Total energy (T->0) per atom                          :        -694.29999434 eV  <-- do not rely on this value for anything but (periodic) metals
  | Electronic free energy per atom                       :        -694.29999434 eV

  Self-consistency convergence accuracy:
  | Change of charge density      : 0.1128E-01
  | Change of sum of eigenvalues  : -.3897E+01 eV
  | Change of total energy        : 0.3758E-02 eV

  End self-consistency iteration #     7       :  max(cpu_time)    wall_clock(cpu1)
  | Time for this iteration                    :        1.234 s           1.234 s
  | Charge density update                      :        0.379 s           0.380 s
  | Density mixing                             :        0.010 s           0.009 s
  | Hartree multipole update                   :        0.004 s           0.005 s
  | Hartree multipole summation                :        0.209 s           0.208 s
  | Integration                                :        0.601 s           0.601 s
  | Solution of K.-S. eqns.                    :        0.031 s           0.031 s
  | Total energy evaluation                    :        0.000 s           0.000 s
------------------------------------------------------------

------------------------------------------------------------
          Begin self-consistency iteration #    8

  Date     :  20150727, Time     :  120511.775
------------------------------------------------------------
  Evaluating new KS density.
  Integration grid: deviation in total charge (<rho> - N_e) =   0.000000E+00
  Pulay mixing of updated and previous charge densities.

  Evaluating partitioned Hartree potential by multipole expansion.
  | Analytical far-field extrapolation by fixed multipoles:
  | Hartree multipole sum: apparent total charge =  -0.419182E-05
  Summing up the Hartree potential.
  Time summed over all CPUs for potential: real work        1.655 s, elapsed        1.661 s
  | RMS charge density error from multipole expansion :   0.160161E-01

  Integrating Hamiltonian matrix: batch-based integration.
  Time summed over all CPUs for integration: real work        4.718 s, elapsed        4.801 s

  Updating Kohn-Sham eigenvalues, eigenvectors, occupation numbers, and Fermi level.
  Solving generalized eigenproblem
  Updating Kohn-Sham eigenvalues and eigenfunctions.
  Solving real generalised eigenvalue problem by standard LAPACK (fast)
  Determining occupation numbers for Kohn-Sham eigenstates.
  | Chemical potential (Fermi level) in eV                 : -.22475203E+01
  | Error in electron count due to remaining E_F inaccuracy: 0.00000000E+00
  | Maximum occupation number of highest empty state:  0.00E+00

  Highest occupied state (VBM) at     -4.76113480 eV
  | Occupation number:      2.00000000

  Lowest unoccupied state (CBM) at    -1.73467829 eV
  | Occupation number:      0.00000000

  Overall HOMO-LUMO gap:      3.02645651 eV.

  Total energy components:
  | Sum of eigenvalues            :        -165.85536275 Ha       -4513.15404709 eV
  | XC energy correction          :         -37.25729858 Ha       -1013.82267696 eV
  | XC potential correction       :          47.62434621 Ha        1295.92439615 eV
  | Free-atom electrostatic energy:        -143.15440873 Ha       -3895.42965878 eV
  | Hartree energy correction     :          -7.53794524 Ha        -205.11792622 eV
  | van der Waals energy corr.    :           0.00000000 Ha           0.00000000 eV
  | Entropy correction            :           0.00000000 Ha           0.00000000 eV
  | ---------------------------
  | Total energy                  :        -306.18066908 Ha       -8331.59991290 eV
  | Total energy, T -> 0          :        -306.18066908 Ha       -8331.59991290 eV  <-- do not rely on this value for anything but (periodic) metals
  | Electronic free energy        :        -306.18066908 Ha       -8331.59991290 eV

  Derived energy quantities:
  | Kinetic energy                :         305.35761850 Ha        8309.20356714 eV
  | Electrostatic energy          :        -574.28098901 Ha      -15626.98080308 eV
  | Energy correction for multipole
  | error in Hartree potential    :          -0.00590961 Ha          -0.16080861 eV
  | Sum of eigenvalues per atom                           :        -376.09617059 eV
  | Total energy (T->0) per atom                          :        -694.29999274 eV  <-- do not rely on this value for anything but (periodic) metals
  | Electronic free energy per atom                       :        -694.29999274 eV

  Self-consistency convergence accuracy:
  | Change of charge density      : 0.1417E-02
  | Change of sum of eigenvalues  : 0.5261E-01 eV
  | Change of total energy        : 0.1913E-04 eV

  End self-consistency iteration #     8       :  max(cpu_time)    wall_clock(cpu1)
  | Time for this iteration                    :        1.236 s           1.236 s
  | Charge density update                      :        0.381 s           0.381 s
  | Density mixing                             :        0.010 s           0.010 s
  | Hartree multipole update                   :        0.005 s           0.005 s
  | Hartree multipole summation                :        0.208 s           0.208 s
  | Integration                                :        0.601 s           0.601 s
  | Solution of K.-S. eqns.                    :        0.031 s           0.031 s
  | Total energy evaluation                    :        0.000 s           0.000 s
------------------------------------------------------------

------------------------------------------------------------
          Begin self-consistency iteration #    9

  Date     :  20150727, Time     :  120513.011
------------------------------------------------------------
  Evaluating new KS density.
  Integration grid: deviation in total charge (<rho> - N_e) =   0.000000E+00
  Pulay mixing of updated and previous charge densities.

  Evaluating partitioned Hartree potential by multipole expansion.
  | Analytical far-field extrapolation by fixed multipoles:
  | Hartree multipole sum: apparent total charge =  -0.417588E-05
  Summing up the Hartree potential.
  Time summed over all CPUs for potential: real work        1.655 s, elapsed        1.661 s
  | RMS charge density error from multipole expansion :   0.160217E-01

  Integrating Hamiltonian matrix: batch-based integration.
  Time summed over all CPUs for integration: real work        4.712 s, elapsed        4.800 s

  Updating Kohn-Sham eigenvalues, eigenvectors, occupation numbers, and Fermi level.
  Solving generalized eigenproblem
  Updating Kohn-Sham eigenvalues and eigenfunctions.
  Solving real generalised eigenvalue problem by standard LAPACK (fast)
  Determining occupation numbers for Kohn-Sham eigenstates.
  | Chemical potential (Fermi level) in eV                 : -.22497986E+01
  | Error in electron count due to remaining E_F inaccuracy: 0.00000000E+00
  | Maximum occupation number of highest empty state:  0.00E+00

  Highest occupied state (VBM) at     -4.76982408 eV
  | Occupation number:      2.00000000

  Lowest unoccupied state (CBM) at    -1.73545788 eV
  | Occupation number:      0.00000000

  Overall HOMO-LUMO gap:      3.03436620 eV.

  Total energy components:
  | Sum of eigenvalues            :        -165.86181349 Ha       -4513.32958076 eV
  | XC energy correction          :         -37.25647663 Ha       -1013.80031060 eV
  | XC potential correction       :          47.62323870 Ha        1295.89425933 eV
  | Free-atom electrostatic energy:        -143.15440873 Ha       -3895.42965878 eV
  | Hartree energy correction     :          -7.53120747 Ha        -204.93458213 eV
  | van der Waals energy corr.    :           0.00000000 Ha           0.00000000 eV
  | Entropy correction            :           0.00000000 Ha           0.00000000 eV
  | ---------------------------
  | Total energy                  :        -306.18066761 Ha       -8331.59987293 eV
  | Total energy, T -> 0          :        -306.18066761 Ha       -8331.59987293 eV  <-- do not rely on this value for anything but (periodic) metals
  | Electronic free energy        :        -306.18066761 Ha       -8331.59987293 eV

  Derived energy quantities:
  | Kinetic energy                :         305.36183674 Ha        8309.31835117 eV
  | Electrostatic energy          :        -574.28602773 Ha      -15627.11791350 eV
  | Energy correction for multipole
  | error in Hartree potential    :          -0.00590773 Ha          -0.16075748 eV
  | Sum of eigenvalues per atom                           :        -376.11079840 eV
  | Total energy (T->0) per atom                          :        -694.29998941 eV  <-- do not rely on this value for anything but (periodic) metals
  | Electronic free energy per atom                       :        -694.29998941 eV

  Self-consistency convergence accuracy:
  | Change of charge density      : 0.1090E-02
  | Change of sum of eigenvalues  : -.1755E+00 eV
  | Change of total energy        : 0.3996E-04 eV

  End self-consistency iteration #     9       :  max(cpu_time)    wall_clock(cpu1)
  | Time for this iteration                    :        1.237 s           1.237 s
  | Charge density update                      :        0.380 s           0.380 s
  | Density mixing                             :        0.011 s           0.012 s
  | Hartree multipole update                   :        0.005 s           0.004 s
  | Hartree multipole summation                :        0.208 s           0.209 s
  | Integration                                :        0.601 s           0.601 s
  | Solution of K.-S. eqns.                    :        0.031 s           0.030 s
  | Total energy evaluation                    :        0.000 s           0.000 s
------------------------------------------------------------

------------------------------------------------------------
          Begin self-consistency iteration #   10

  Date     :  20150727, Time     :  120514.248
------------------------------------------------------------
  Evaluating new KS density.
  Integration grid: deviation in total charge (<rho> - N_e) =   7.105427E-15
  Pulay mixing of updated and previous charge densities.

  Evaluating partitioned Hartree potential by multipole expansion.
  | Analytical far-field extrapolation by fixed multipoles:
  | Hartree multipole sum: apparent total charge =  -0.417579E-05
  Summing up the Hartree potential.
  Time summed over all CPUs for potential: real work        1.655 s, elapsed        1.661 s
  | RMS charge density error from multipole expansion :   0.160317E-01

  Integrating Hamiltonian matrix: batch-based integration.
  Time summed over all CPUs for integration: real work        4.712 s, elapsed        4.798 s

  Updating Kohn-Sham eigenvalues, eigenvectors, occupation numbers, and Fermi level.
  Solving generalized eigenproblem
[...]
  |                                  0.00608776       0.11990314       0.00868770
  |                                  0.00281158       0.00868770       0.12617741
  ----------------------------------------------------------------------


  Total energy components:
  | Sum of eigenvalues            :        -165.85891337 Ha       -4513.25066457 eV
  | XC energy correction          :         -37.25673360 Ha       -1013.80730319 eV
  | XC potential correction       :          47.62356744 Ha        1295.90320482 eV
  | Free-atom electrostatic energy:        -143.15440873 Ha       -3895.42965878 eV
  | Hartree energy correction     :          -7.53417928 Ha        -205.01544924 eV
  | van der Waals energy corr.    :          -0.00177924 Ha          -0.04841569 eV
  | Entropy correction            :           0.00000000 Ha           0.00000000 eV
  | ---------------------------
  | Total energy                  :        -306.18244679 Ha       -8331.64828664 eV
  | Total energy, T -> 0          :        -306.18244679 Ha       -8331.64828664 eV  <-- do not rely on this value for anything but (periodic) metals
  | Electronic free energy        :        -306.18244679 Ha       -8331.64828664 eV

  Derived energy quantities:
  | Kinetic energy                :         305.36249002 Ha        8309.33612782 eV
  | Electrostatic energy          :        -574.28642396 Ha      -15627.12869559 eV
  | Energy correction for multipole
  | error in Hartree potential    :          -0.00591679 Ha          -0.16100408 eV
  | Sum of eigenvalues per atom                           :        -376.10422205 eV
  | Total energy (T->0) per atom                          :        -694.30402389 eV  <-- do not rely on this value for anything but (periodic) metals
  | Electronic free energy per atom                       :        -694.30402389 eV

  atomic forces [eV/Ang]:
  -----------------------
  atom #    1
   Hellmann-Feynman + Multipole  : -.697465E+01 -.109208E+02 0.323849E+01
   Pulay + GGA                   : 0.534944E+01 0.144310E+02 -.535954E+01
   Van der Waals               : -.538996E-03 0.532470E-03 -.380956E-02
   ----------------------------------------------------------------
   Total forces(   1)            : -.162574E+01 0.351070E+01 -.212486E+01
  atom #    2
   Hellmann-Feynman + Multipole  : 0.226480E+01 -.364701E+01 0.148572E+01
   Pulay + GGA                   : -.385964E-01 0.104996E+00 -.421196E-01
   Van der Waals               : -.665232E-03 0.146904E-02 0.167992E-02
   ----------------------------------------------------------------
   Total forces(   2)            : 0.222554E+01 -.354054E+01 0.144528E+01
  atom #    3
   Hellmann-Feynman + Multipole  : -.156368E+01 -.243996E+00 -.314281E+00
   Pulay + GGA                   : 0.677692E-01 0.166274E-01 0.186481E-01
   Van der Waals               : 0.699104E-03 0.275129E-02 0.135186E-02
   ----------------------------------------------------------------
   Total forces(   3)            : -.149521E+01 -.224618E+00 -.294281E+00
  atom #    4
   Hellmann-Feynman + Multipole  : 0.855789E+01 -.511940E+01 -.158213E+02
   Pulay + GGA                   : -.889236E+01 0.374173E+01 0.154478E+02
   Van der Waals               : 0.447448E-02 0.343571E-02 0.372852E-02
   ----------------------------------------------------------------
   Total forces(   4)            : -.329999E+00 -.137424E+01 -.369751E+00
  atom #    5
   Hellmann-Feynman + Multipole  : -.477559E+00 0.350471E+00 0.860083E+00
   Pulay + GGA                   : 0.401440E-01 0.102355E+00 0.119954E+00
   Van der Waals               : 0.250824E-02 0.135298E-02 -.212711E-02
   ----------------------------------------------------------------
   Total forces(   5)            : -.434907E+00 0.454179E+00 0.977909E+00
  atom #    6
   Hellmann-Feynman + Multipole  : 0.674005E+00 0.826116E+00 0.253890E+00
   Pulay + GGA                   : -.111905E+00 -.565706E-01 0.647188E-01
   Van der Waals               : 0.124664E-02 0.111317E-02 -.118084E-02
   ----------------------------------------------------------------
   Total forces(   6)            : 0.563346E+00 0.770658E+00 0.317428E+00
  atom #    7
   Hellmann-Feynman + Multipole  : -.575582E+01 0.128156E+01 -.979434E+01
   Pulay + GGA                   : 0.869578E+01 -.147110E+01 0.109469E+02
   Van der Waals               : 0.243870E-02 -.533501E-03 0.389188E-02
   ----------------------------------------------------------------
   Total forces(   7)            : 0.294240E+01 -.190072E+00 0.115640E+01
  atom #    8
   Hellmann-Feynman + Multipole  : -.333858E+00 -.478582E+00 -.913121E+00
   Pulay + GGA                   : 0.502620E-01 0.440292E-01 0.744852E-01
   Van der Waals               : -.672480E-04 -.164681E-02 -.530084E-03
   ----------------------------------------------------------------
   Total forces(   8)            : -.283663E+00 -.436200E+00 -.839166E+00
  atom #    9
   Hellmann-Feynman + Multipole  : -.173600E+01 0.100196E+01 -.398248E+00
   Pulay + GGA                   : 0.121139E+00 -.523984E-01 0.236977E-01
   Van der Waals               : -.290130E-02 0.277614E-02 0.245853E-02
   ----------------------------------------------------------------
   Total forces(   9)            : -.161776E+01 0.952336E+00 -.372092E+00
  atom #   10
   Hellmann-Feynman + Multipole  : -.298332E+01 -.938953E+00 -.154702E+02
   Pulay + GGA                   : 0.383113E+01 0.130366E+01 0.140712E+02
   Van der Waals               : -.543401E-02 -.608473E-02 -.519316E-03
   ----------------------------------------------------------------
   Total forces(  10)            : 0.842376E+00 0.358621E+00 -.139945E+01
  atom #   11
   Hellmann-Feynman + Multipole  : -.475833E+00 -.232436E+00 0.307688E+00
   Pulay + GGA                   : 0.942292E-01 0.729115E-01 0.595447E-01
   Van der Waals               : -.679604E-03 -.158643E-02 -.108418E-02
   ----------------------------------------------------------------
   Total forces(  11)            : -.382284E+00 -.161110E+00 0.366149E+00
  atom #   12
   Hellmann-Feynman + Multipole  : -.318005E+00 -.800156E-01 0.103231E+01
   Pulay + GGA                   : -.852751E-01 -.367897E-01 0.103849E+00
   Van der Waals               : -.108077E-02 -.357934E-02 -.385962E-02
   ----------------------------------------------------------------
   Total forces(  12)            : -.404361E+00 -.120385E+00 0.113230E+01
  Timings for vdw_correction_hirshfeld (Tkatchenko-Scheffler 2009):
  | CPU time:        3.171 s, Wall clock time:        3.171 s.
  Removing unitary transformations (pure translations, rotations) from forces on atoms.
  Atomic forces before filtering:
  | Net force on center of mass :  -.265428E-03 -.668549E-03 -.413604E-02 eV/A
  | Net torque on center of mass:  0.148433E-01 -.818198E-02 -.339183E-03 eV
  Atomic forces after filtering:
  | Net force on center of mass :  0.624421E-15 -.379113E-15 0.178406E-15 eV/A
  | Net torque on center of mass:  0.000000E+00 -.132172E-14 0.000000E+00 eV
 
  Energy and forces in a compact form:
  | Total energy uncorrected      :         -0.833164828664226E+04 eV
  | Total energy corrected        :         -0.833164828664226E+04 eV  <-- do not rely on this value for anything but (periodic) metals
  | Electronic free energy        :         -0.833164828664226E+04 eV
  Total atomic forces (unitary forces cleaned) [eV/Ang]:
  |   1         -0.162575923590227E+01          0.351019829494985E+01         -0.212408027633000E+01
  |   2          0.222544632589233E+01         -0.354122219757328E+01          0.144575928776808E+01
  |   3         -0.149524038261631E+01         -0.225046718550016E+00         -0.293667671313591E+00
  |   4         -0.329821043941042E+00         -0.137384604468880E+01         -0.368810471752258E+00
  |   5         -0.434731864339286E+00          0.454798489935653E+00          0.978559426415832E+00
  |   6          0.563571248466182E+00          0.771113270077787E+00          0.318603058626157E+00
  |   7          0.294234017137805E+01         -0.190427977074664E+00          0.115671234351688E+01
  |   8         -0.283704893275983E+00         -0.436256350832909E+00         -0.839099722491117E+00
  |   9         -0.161777557874223E+01          0.952075384569222E+00         -0.371619273056201E+00
  |  10          0.842337410574173E+00          0.358983290387855E+00         -0.139987053248751E+01
  |  11         -0.382328991437312E+00         -0.160579022703267E+00          0.365483893698991E+00
  |  12         -0.404333166056308E+00         -0.119790418497432E+00          0.113202993740473E+01
 
  ------------------------------------ 
  Start decomposition of the XC Energy 
  ------------------------------------ 
  Hartree-Fock part   :          0.000000000 Ha              0.000000000 eV
  ------------------------------------ 
  X Energy            :        -35.949878322 Ha           -978.245961752 eV
  C Energy GGA        :         -1.306855277 Ha            -35.561341433 eV
  Total XC Energy     :        -37.256733599 Ha          -1013.807303185 eV
  LDA X and C from self-consistent density 
  X Energy LDA        :        -32.393514581 Ha           -881.472380577 eV
  C Energy LDA        :         -2.638513736 Ha            -71.797611784 eV
  ------------------------------------ 
  End decomposition of the XC Energy 
  ------------------------------------ 
  Performing Hirshfeld analysis of fragment charges and moments.
  ----------------------------------------------------------------------
  | Atom     1: O
  |   Hirshfeld charge        :     -0.33614783
  |   Free atom volume        :     23.95238533
  |   Hirshfeld volume        :     23.54097455
  |   Hirshfeld dipole vector :      0.03402857       0.04818614       0.02361326
  |   Hirshfeld dipole moment :      0.06354081
  |   Hirshfeld second moments:      0.00896503      -0.02963816       0.01732170
  |                                 -0.02963816      -0.02964984      -0.03731076
  |                                  0.01732170      -0.03731076      -0.06883204
  ----------------------------------------------------------------------
  | Atom     2: H
  |   Hirshfeld charge        :      0.11008812
  |   Free atom volume        :     10.44207651
  |   Hirshfeld volume        :      7.36942107
  |   Hirshfeld dipole vector :     -0.05743481       0.09314693      -0.03194142
  |   Hirshfeld dipole moment :      0.11399720
  |   Hirshfeld second moments:      0.10426385       0.00226579       0.00631941
  |                                  0.00226579       0.07703470      -0.00771886
  |                                  0.00631941      -0.00771886       0.07613425
  ----------------------------------------------------------------------
  | Atom     3: H
  |   Hirshfeld charge        :      0.05943621
  |   Free atom volume        :     10.44207651
  |   Hirshfeld volume        :      8.51165719
  |   Hirshfeld dipole vector :      0.04263992       0.00693312       0.01433786
  |   Hirshfeld dipole moment :      0.04551709
  |   Hirshfeld second moments:      0.02240430      -0.02836631      -0.00081600
  |                                 -0.02836631       0.07452973      -0.00659035
  |                                 -0.00081600      -0.00659035       0.05768791
  ----------------------------------------------------------------------
  | Atom     4: O
  |   Hirshfeld charge        :     -0.27920728
  |   Free atom volume        :     23.95238533
  |   Hirshfeld volume        :     21.76614559
  |   Hirshfeld dipole vector :     -0.02989661       0.01643015       0.01501730
  |   Hirshfeld dipole moment :      0.03727300
  |   Hirshfeld second moments:      0.03068147       0.05654175      -0.00908371
  |                                  0.05654175       0.03554380       0.02754944
  |                                 -0.00908371       0.02754944       0.00178197
  ----------------------------------------------------------------------
  | Atom     5: H
  |   Hirshfeld charge        :      0.12463732
  |   Free atom volume        :     10.44207651
  |   Hirshfeld volume        :      6.72562026
  |   Hirshfeld dipole vector :      0.03393736       0.09472864       0.05870354
  |   Hirshfeld dipole moment :      0.11649620
  |   Hirshfeld second moments:      0.11102500       0.01417225      -0.00650584
  |                                  0.01417225       0.09943607       0.00423598
  |                                 -0.00650584       0.00423598       0.09723632
  ----------------------------------------------------------------------
  | Atom     6: H
  |   Hirshfeld charge        :      0.14369098
  |   Free atom volume        :     10.44207651
  |   Hirshfeld volume        :      6.48696735
  |   Hirshfeld dipole vector :     -0.10341769      -0.06453889       0.02046799
  |   Hirshfeld dipole moment :      0.12360997
  |   Hirshfeld second moments:      0.10289263       0.01228053       0.00007759
  |                                  0.01228053       0.11852136       0.01361393
  |                                  0.00007759       0.01361393       0.10613938
  ----------------------------------------------------------------------
  | Atom     7: O
  |   Hirshfeld charge        :     -0.21031952
  |   Free atom volume        :     23.95238533
  |   Hirshfeld volume        :     21.00009664
  |   Hirshfeld dipole vector :     -0.01883195      -0.02517178       0.03006445
  |   Hirshfeld dipole moment :      0.04349864
  |   Hirshfeld second moments:      0.06696177      -0.02530099       0.00734718
  |                                 -0.02530099       0.06274552       0.02939722
  |                                  0.00734718       0.02939722       0.02735818
  ----------------------------------------------------------------------
  | Atom     8: H
  |   Hirshfeld charge        :      0.10843778
  |   Free atom volume        :     10.44207651
  |   Hirshfeld volume        :      7.39576980
  |   Hirshfeld dipole vector :      0.01199517       0.02376206       0.04565962
  |   Hirshfeld dipole moment :      0.05285187
  |   Hirshfeld second moments:      0.10957888       0.00094126       0.00781796
  |                                  0.00094126       0.07296162      -0.02578660
  |                                  0.00781796      -0.02578660       0.06205921
  ----------------------------------------------------------------------
  | Atom     9: H
  |   Hirshfeld charge        :      0.15959136
  |   Free atom volume        :     10.44207651
  |   Hirshfeld volume        :      6.02864802
  |   Hirshfeld dipole vector :      0.09076644      -0.07667623       0.01240055
  |   Hirshfeld dipole moment :      0.11946365
  |   Hirshfeld second moments:      0.12071483       0.00194840       0.00099036
  |                                  0.00194840       0.12283287       0.01385142
  |                                  0.00099036       0.01385142       0.12255828
  ----------------------------------------------------------------------
  | Atom    10: O
  |   Hirshfeld charge        :     -0.22108602
  |   Free atom volume        :     23.95238533
  |   Hirshfeld volume        :     20.15809530
  |   Hirshfeld dipole vector :      0.01239239      -0.01684671       0.02226583
  |   Hirshfeld dipole moment :      0.03054750
  |   Hirshfeld second moments:      0.08817533       0.04356999      -0.02098181
  |                                  0.04356999       0.05497196       0.01162265
  |                                 -0.02098181       0.01162265       0.06851482
  ----------------------------------------------------------------------
  | Atom    11: H
  |   Hirshfeld charge        :      0.17351166
  |   Free atom volume        :     10.44207651
  |   Hirshfeld volume        :      5.56144090
  |   Hirshfeld dipole vector :      0.09998663       0.06550775       0.03347308
  |   Hirshfeld dipole moment :      0.12413315
  |   Hirshfeld second moments:      0.13103356       0.00771651      -0.01370309
  |                                  0.00771651       0.12717845      -0.00152268
  |                                 -0.01370309      -0.00152268       0.13939995
  ----------------------------------------------------------------------
  | Atom    12: H
  |   Hirshfeld charge        :      0.16739422
  |   Free atom volume        :     10.44207651
  |   Hirshfeld volume        :      5.93104687
  |   Hirshfeld dipole vector :     -0.07341474      -0.03970800       0.08491802
  |   Hirshfeld dipole moment :      0.11906939
  |   Hirshfeld second moments:      0.13061637       0.00608776       0.00281158
  |                                  0.00608776       0.11990314       0.00868770
  |                                  0.00281158       0.00868770       0.12617741
  ----------------------------------------------------------------------


------------------------------------------------------------------------------
  Final output of selected total energy values:

  The following output summarizes some interesting total energy values
  at the end of a run (AFTER all relaxation, molecular dynamics, etc.).

  | Total energy of the DFT / Hartree-Fock s.c.f. calculation      :          -8331.648286642 eV
  | Final zero-broadening corrected energy (caution - metals only) :          -8331.648286642 eV
  | For reference only, the value of 1 Hartree used in FHI-aims is :             27.211384500 eV

  Before relying on these values, please be sure to understand exactly which
  total energy value is referred to by a given number. Different objects may
  all carry the same name 'total energy'. Definitions:

  Total energy of the DFT / Hartree-Fock s.c.f. calculation:
  | Note that this energy does not include ANY quantities calculated after the
  | s.c.f. cycle, in particular not ANY RPA, MP2, etc. many-body perturbation terms.

  Final zero-broadening corrected energy:
  | For metallic systems only, a broadening of the occupation numbers at the Fermi
  | level can be extrapolated back to zero broadening by an electron-gas inspired
  | formula. For all systems that are not real metals, this value can be
  | meaningless and should be avoided.

------------------------------------------------------------------------------

------------------------------------------------------------
          Leaving FHI-aims.
          Date     :  20150727, Time     :  120524.059

          Computational steps:
          | Number of self-consistency cycles          :           15

          Detailed time accounting                     :  max(cpu_time)    wall_clock(cpu1)
          | Total time                                 :       22.842 s          22.876 s
          | Preparation time                           :        0.169 s           0.609 s
          | Grid partitioning                          :        0.111 s           0.111 s
          | Preloading free-atom quantities on grid    :        0.014 s           0.013 s
          | Free-atom superposition energy             :        0.046 s           0.046 s
          | Total time for integrations                :        9.963 s           9.964 s
          | Total time for solution of K.-S. equations :        0.579 s           0.578 s
          | Total time for density & force components  :        7.297 s           7.298 s
          | Total time for mixing                      :        0.148 s           0.149 s
          | Total time for Hartree multipole update    :        0.065 s           0.065 s
          | Total time for Hartree multipole sum       :        3.816 s           3.814 s
          | Total time for total energy evaluation     :        0.000 s           0.004 s
          | Total time for scaled ZORA corrections     :        0.000 s           0.000 s
          | Total time for TS (2009) vdW correction    :        0.034 s           0.035 s

          Have a nice day.
------------------------------------------------------------
