  MPI-parallelism will be employed.
------------------------------------------------------------
          Invoking FHI-aims ...
          Version 081213
          Compiled on 2013/08/29 at 17:41:06 on host generoso.

          When using FHI-aims, please cite the following reference:

          Volker Blum, Ralf Gehrke, Felix Hanke, Paula Havu,
          Ville Havu, Xinguo Ren, Karsten Reuter, and Matthias Scheffler,
          'Ab Initio Molecular Simulations with Numeric Atom-Centered Orbitals: FHI-aims',
          Computer Physics Communications 180, 2175-2196 (2009)

          For any questions about FHI-aims, please visit the aimsclub website
          with its forums and wiki. Contributions to both the forums and the
          wiki are warmly encouraged - they are for you, and everyone is welcome there.

------------------------------------------------------------

  Date     :  20150727, Time     :  122102.898
  Time zero on CPU 1             :   0.419930000000000E-01  s.
  Internal wall clock time zero  :           207231662.898  s.

  Using        8 parallel tasks.
  Task        0 on host gen60 reporting.
  Task        1 on host gen60 reporting.
  Task        2 on host gen60 reporting.
  Task        3 on host gen60 reporting.
  Task        4 on host gen60 reporting.
  Task        5 on host gen60 reporting.
  Task        6 on host gen60 reporting.
  Task        7 on host gen60 reporting.

  Performing system and environment tests:
  | Environment variable OMP_NUM_THREADS correctly set to 1.
  | Checking for scalapack...
  | No scalapack compiled in.

  Obtaining array dimensions for all initial allocations:
  
  -----------------------------------------------------------------------
  Parsing control.in (first pass over file, find array dimensions only).
  The contents of control.in will be repeated verbatim below
  unless switched off by setting 'verbatim_writeout .false.' .
  in the first line of control.in .
  -----------------------------------------------------------------------
  
  #########################################################################################
  #
  #  Volker Blum, FHI 2008 : Test run input file control.in
  #
  #########################################################################################
  #
  #  Physical model
  #
    xc                 rpbe
    spin               none
    relativistic       atomic_zora scalar
    charge             0.
   vdw_correction_hirshfeld
  #
  #  SCF convergence
  #
    occupation_type    gaussian 0.01
    mixer              pulay
      n_max_pulay        10
      charge_mix_param   0.1
    sc_accuracy_rho    5E-5
    sc_accuracy_eev    5E-3
    sc_accuracy_etot   5E-6
    sc_iter_limit      3000
  #
  #  Eigenvalue solver
  #
    KS_method          lapack
      empty_states       8
      basis_threshold    0.e-5
  #
  #  Efficiency
  #
  #   all previous settings are now default, except stratmann still
  #   undecided. Continue to handle stratmann with care, if at all.
  #
  #  partition_type stratmann
    partition_type rho_r2
  #  hartree_partition_type stratmann
  #
  #  Oprions for large clusters (100's of atoms: memory saving / better scaling)
  #
  # for periodic systems:
  #
    density_update_method orbital
    packed_matrix_format none
  #  k_grid 6 6 6
  #  output k_eigenvalue 1
  #  distributed_spline_storage .true.
  #
  #  Relaxation
  #
  #  relax_geometry   bfgs 5.e-3
    sc_accuracy_forces 5.E-4
    final_forces_cleaned .true.
  #
  #  Output options
  #
  #  output mulliken
    output Hirshfeld
  #  output dipole
  
  #harmonic_length_scale 0.001
  
  ################################################################################
  #
  #  FHI-aims code project
  #  VB, Fritz-Haber Institut, 2007
  #
  #  Suggested "safe" defaults for H atom (to be pasted into control.in file)
  #  Basis constructed for a non-relativistic H2 molecule using the
  #  PW-LDA functional.
  #
  ################################################################################
    species        H
  #     global species definitions
      nucleus             1
      cut_pot             4.0  2.0  1.0
      cut_free_atom       finite 8.0
      logarithmic         0.00010000 100.00  1.0123
      basis_dep_cutoff    1d-4  # 1d-4 is safe default - please check 5d-4 if you wish!
      radial_base         24 7.0
      radial_multiplier   2
      angular_grids       specified
        division   0.2783  110
        division   0.3822  194
        division   0.5626  302
  #      division   0.5922  434
  #      division   0.6227  590
  #      division   0.7206  770
        outer_grid  302
      l_hartree           4
  ################################################################################
  #
  #  Definition of "minimal" basis
  #
  ################################################################################
  #     valence basis states
      valence      1  s   1.
  #     ion occupancy
      ion_occ      1  s   0.5
  ################################################################################
  #
  #  Suggested additional basis functions. For production calculations,
  #  uncomment them one after another (the most important basis functions are
  #  listed first).
  #
  ################################################################################
  #  "First tier" - improvements: -1014.90 meV to -62.69 meV
       hydro 2 s 2.1
       hydro 2 p 3.5
  #  "Second tier" - improvements: -12.89 meV to -1.83 meV
       hydro 1 s 0.85
       hydro 2 p 3.7
       hydro 2 s 1.2
       hydro 3 d 7
  #  "Third tier" - improvements: -0.25 meV to -0.12 meV
  #     hydro 4 f 11.2
  #     hydro 3 p 4.8
  #     hydro 4 d 9
  #     hydro 3 s 3.2
  
  ################################################################################
  #
  #  FHI-aims code project
  #  VB, Fritz-Haber Institut, 2007
  #
  #  Suggested "safe" defaults for O atom (to be pasted into control.in file)
  #  All values have been tested for a non-relativistic, non-spinpolarized O2
  #  molecule using the PW-LDA functional. Validity for PBE is expected.
  #
  #  Constructed for dimers: 1.0 A, 1.208 A, 1.5 A, 2.0 A, 3.0 A
  #
  ################################################################################
    species        O
  #     global species definitions
      nucleus             8
      mass                15.9994
      l_hartree           4
      cut_pot             4.0  2.0  1.0
      cut_free_atom       finite 8.0
      basis_dep_cutoff    1d-4  # 1d-4 is safe default - please check 5d-4 if you wish!
      logarithmic         0.00010000 100.00  1.0123
      radial_base         36 7.0
      radial_multiplier   2
       angular_grids specified
        division   0.4087  110
        division   0.5181  194
        division   0.6184  302
  #      division   0.7315  434
  #      division   0.7934  590
  #      division   0.9656  770
  #      division   1.4041  974
  #      outer_grid 974
        outer_grid 302
  ################################################################################
  #
  #  Definition of "minimal" basis
  #
  ################################################################################
  #     valence basis states
      valence      2  s   2.
      valence      2  p   4.
  #     ion occupancy
      ion_occ      2  s   1.
      ion_occ      2  p   3.
  ################################################################################
  #
  #  Suggested additional basis functions. For production calculations,
  #  uncomment them one after another (the most important basis functions are
  #  listed first).
  #
  ################################################################################
  #  "First tier" - improvements: -699.05 meV to -159.38 meV
       hydro 2 p 1.8
       hydro 3 d 7.6
       hydro 3 s 6.4
  #  "Second tier" - improvements: -49.91 meV to -5.39 meV
       hydro 4 f 11.6
       hydro 3 p 6.2
       hydro 3 d 5.6
       hydro 5 g 17.6
       hydro 1 s 0.75
  #  "Third tier" - improvements: -2.83 meV to -0.50 meV
  #     ionic 2 p auto
  #     hydro 4 f 10.8
  #     hydro 4 d 4.7
  #     hydro 2 s 6.8
  #  "Fourth tier" - improvements: -0.40 meV to -0.12 meV
  #     hydro 3 p 5
  #     hydro 3 s 3.3
  #     hydro 5 g 15.6
  #     hydro 4 f 17.6
  #     hydro 4 d 14
  # Further basis functions - -0.08 meV and below
  #     hydro 3 s 2.1
  #     hydro 4 d 11.6
  #     hydro 3 p 16
  #     hydro 2 s 17.2
  
  
  -----------------------------------------------------------------------
  Completed first pass over input file control.in .
  -----------------------------------------------------------------------
  
  
  -----------------------------------------------------------------------
  Parsing geometry.in (first pass over file, find array dimensions only).
  The contents of geometry.in will be repeated verbatim below
  unless switched off by setting 'verbatim_writeout .false.' .
  in the first line of geometry.in .
  -----------------------------------------------------------------------
  
  atom      -4.053030000      0.065001000     -1.525160000  O
  atom      -4.566710000      0.974813000     -1.912820000  H
  atom      -3.067820000      0.330172000     -1.477310000  H
  atom      -5.293160000      2.192130000     -2.328800000  O
  atom      -4.829300000      2.988660000     -1.973850000  H
  atom      -5.428570000      2.328640000     -3.235170000  H
  atom      -1.645860000      0.870179000     -1.502250000  O
  atom      -1.568890000      1.501730000     -0.721051000  H
  atom      -0.824432000      0.282220000     -1.377720000  H
  atom      -1.975360000      2.858040000      0.453140000  O
  atom      -1.223550000      3.375850000      0.786238000  H
  atom      -2.537520000      2.567960000      1.156120000  H
  atom      -4.066610000      4.258280000     -0.900064000  O
  atom      -3.224110000      3.876870000     -0.569443000  H
  atom      -3.737450000      5.116530000     -1.322720000  H
  
  -----------------------------------------------------------------------
  Completed first pass over input file geometry.in .
  -----------------------------------------------------------------------
  
 
  Basic array size parameters: 
  | Number of species                 :        2
  | Number of atoms                   :       15
  | Max. basis fn. angular momentum   :        4
  | Max. atomic/ionic basis occupied n:        2
  | Max. number of basis fn. types    :        2
  | Max. radial fns per species/type  :        8
  | Max. logarithmic grid size        :     1301
  | Max. radial integration grid size :       73
  | Max. angular integration grid size:      302
  | Max. angular grid division number :        8
  | Radial grid for Hartree potential :     1301
  | Number of spin channels           :        1

------------------------------------------------------------
          Reading file control.in.
------------------------------------------------------------
  XC: Using RPBE gradient-corrected functionals.
  Spin treatment: No spin polarisation.
  Scalar relativistic treatment of kinetic energy: on-site free-atom approximation to ZORA.
  Charge =   0.000000E+00: Neutral system requested explicitly.
  Using non-empirical van der Waals correction (Hirshfeld partitioning):
  Occupation type: Gaussian broadening, width =   0.100000E-01 eV.
  Using pulay charge density mixing.
  Pulay mixing - number of memorized iterations:   10
  Charge density mixing - mixing parameter:     0.1000
  Convergence accuracy of self-consistent charge density: 0.5000E-04
  Convergence accuracy of sum of eigenvalues: 0.5000E-02
  Convergence accuracy of total energy: 0.5000E-05
  Maximum number of s.-c. iterations  :  3000
  Kohn-Sham eigenvalues and eigenfunctions calculated by lapack diagonalisation (D&C).
  Number of empty states per atom:        8
  Threshold for basis singularities: 0.0000E+00
  Partition function in integrals calculations: rho / r^2
 Using packed matrix format           0
  Convergence accuracy of forces: 0.5000E-03
  Cleaning forces before final output.
  Hirshfeld charge analysis will be performed.
 
  Reading configuration options for species H                   .
  | Found nuclear charge :   1.0000
  | Found cutoff potl. onset [A], width [A], scale factor :    4.00000    2.00000    1.00000
  | Found cutoff specification for free atom: Cutoff potential begins at    8.00000 A.
  | Found logarithmic grid data [bohr] : 0.1000E-03 0.1000E+03 0.1012E+01
  | Threshold for basis-dependent cutoff potential is   0.100000E-03
  | Found data for basic radial integration grid :    24 points, outermost radius =    7.000 A
  | Found multiplier for basic radial grid :   2
  | Found angular grid specification: user-specified.
  | Specified grid contains     4 separate shells.
  | Check grid settings after all constraints further below.
  | Found l_max for Hartree potential  :   4
  | Found free-atom valence shell :  1 s   1.000
  | No ionic wave fns used. Skipping ion_occ.
  | Found hydrogenic basis function :  2 s   2.100
  | Found hydrogenic basis function :  2 p   3.500
  | Found hydrogenic basis function :  1 s   0.850
  | Found hydrogenic basis function :  2 p   3.700
  | Found hydrogenic basis function :  2 s   1.200
  | Found hydrogenic basis function :  3 d   7.000
  Species H                   : Missing cutoff potential type.
  Defaulting to exp(1/x)/(1-x)^2 type cutoff potential.
  Species H : On-site basis accuracy parameter (for Gram-Schmidt orthonormalisation) not specified.
  Using default value basis_acc =  0.1000000E-03.
  Species H                   : Using default innermost maximum threshold i_radial=  2 for radial functions.
  Species H                   : Basic radial grid will be enhanced according to radial_multiplier =   2, to contain    49 grid points.
 
  Reading configuration options for species O                   .
  | Found nuclear charge :   8.0000
  | Found atomic mass :    15.9994000000000      amu
  | Found l_max for Hartree potential  :   4
  | Found cutoff potl. onset [A], width [A], scale factor :    4.00000    2.00000    1.00000
  | Found cutoff specification for free atom: Cutoff potential begins at    8.00000 A.
  | Threshold for basis-dependent cutoff potential is   0.100000E-03
  | Found logarithmic grid data [bohr] : 0.1000E-03 0.1000E+03 0.1012E+01
  | Found data for basic radial integration grid :    36 points, outermost radius =    7.000 A
  | Found multiplier for basic radial grid :   2
  | Found angular grid specification: user-specified.
  | Specified grid contains     4 separate shells.
  | Check grid settings after all constraints further below.
  | Found free-atom valence shell :  2 s   2.000
  | Found free-atom valence shell :  2 p   4.000
  | No ionic wave fns used. Skipping ion_occ.
  | No ionic wave fns used. Skipping ion_occ.
  | Found hydrogenic basis function :  2 p   1.800
  | Found hydrogenic basis function :  3 d   7.600
  | Found hydrogenic basis function :  3 s   6.400
  | Found hydrogenic basis function :  4 f  11.600
  | Found hydrogenic basis function :  3 p   6.200
  | Found hydrogenic basis function :  3 d   5.600
  | Found hydrogenic basis function :  5 g  17.600
  | Found hydrogenic basis function :  1 s   0.750
  Species O                   : Missing cutoff potential type.
  Defaulting to exp(1/x)/(1-x)^2 type cutoff potential.
  Species O : On-site basis accuracy parameter (for Gram-Schmidt orthonormalisation) not specified.
  Using default value basis_acc =  0.1000000E-03.
  Species O                   : Using default innermost maximum threshold i_radial=  2 for radial functions.
  Species O                   : Basic radial grid will be enhanced according to radial_multiplier =   2, to contain    73 grid points.
 
  Finished reading input file 'control.in'. Consistency checks are next.
 
  Target number of points in a grid batch is not set. Defaulting to  100
  Method for grid partitioning is not set. Defaulting to parallel hash+maxmin partitioning.
  Batch size limit is not set. Defaulting to    200
  By default, will store active basis functions for each batch.
  If in need of memory, prune_basis_once .false. can be used to disable this option.
  communication_type for Hartree potential was not specified.
  Defaulting to calc_hartree .
  Pulay mixer: Number of initial linear mixing iterations not set.
  Defaulting to    0 iterations.
  Work space size for distributed Hartree potential not set.
  Defaulting to   0.200000E+03 MB.
  Algorithm-dependent basis array size parameters:
  | n_max_pulay                         :       10
  Geometry relaxation not requested: no relaxation will be performed.
  Handling of forces: Unphysical translation and rotation will be removed from forces.
  No accuracy limit for integral partition fn. given. Defaulting to 0.1000E-14.
  No threshold value for u(r) in integrations given. Defaulting to 0.1000E-05.
  No accuracy for occupation numbers given. Defaulting to 0.1000E-07.
  No threshold value for occupation numbers given. Defaulting to 0.0000E+00.
  No accuracy for fermi level given. Defaulting to 0.1000E-19.
  Maximum # of iterations to find E_F not set. Defaulting to  200.
  Will not use alltoall communication since running on < 1024 CPUs.
  Partitioning for Hartree potential was not defined. Using partition_type for integrals.
  | Reporting present value of keyword multip_moments_threshold  :       0.10000000E-09
  | This value may affect high angular momentum components of the Hartree potential in periodic systems.
  No q(lm)/r^(l+1) cutoff set for long-range Hartree potential.
  | Using default value of  0.100000E-09 .
  | Verify using the multipole_threshold keyword.
  Defaulting to new monopole extrapolation.
  Density update method: Loop over occupied states selected for charge density update.
------------------------------------------------------------


------------------------------------------------------------
          Reading geometry description geometry.in.
------------------------------------------------------------
  Input structure read successfully.
  The structure contains       15 atoms,  and a total of         50.000 electrons.

  Input geometry:
  | No unit cell requested.
  | Atomic structure:
  |       Atom                x [A]            y [A]            z [A]
  |    1: Species O             -4.053030         0.065001        -1.525160
  |    2: Species H             -4.566710         0.974813        -1.912820
  |    3: Species H             -3.067820         0.330172        -1.477310
  |    4: Species O             -5.293160         2.192130        -2.328800
  |    5: Species H             -4.829300         2.988660        -1.973850
  |    6: Species H             -5.428570         2.328640        -3.235170
  |    7: Species O             -1.645860         0.870179        -1.502250
  |    8: Species H             -1.568890         1.501730        -0.721051
  |    9: Species H             -0.824432         0.282220        -1.377720
  |   10: Species O             -1.975360         2.858040         0.453140
  |   11: Species H             -1.223550         3.375850         0.786238
  |   12: Species H             -2.537520         2.567960         1.156120
  |   13: Species O             -4.066610         4.258280        -0.900064
  |   14: Species H             -3.224110         3.876870        -0.569443
  |   15: Species H             -3.737450         5.116530        -1.322720
  |

  | The smallest distance between any two atoms is         0.92654057 AA.
  |
  | The first atom of this pair is atom number                      4 .
  | The second atom of this pair is atom number                     6 .

  Structure-dependent array size parameters: 
  | Maximum number of distinct radial functions  :       18
  | Maximum number of basis functions            :      345
  | Number of Kohn-Sham states (occupied + empty):       85
------------------------------------------------------------

------------------------------------------------------------
          Preparing all fixed parts of the calculation.
------------------------------------------------------------
  Determining machine precision:
    2.225073858507201E-308
  Setting up grids for atomic and cluster calculations.

  Creating wave function, potential, and density for free atoms.

  Species: H

  List of occupied orbitals and eigenvalues:
    n    l              occ      energy [Ha]    energy [eV]
    1    0           1.0000        -0.241408        -6.5691


  Species: O

  List of occupied orbitals and eigenvalues:
    n    l              occ      energy [Ha]    energy [eV]
    1    0           2.0000       -18.944147      -515.4965
    2    0           2.0000        -0.883529       -24.0421
    2    1           4.0000        -0.330176        -8.9845

  Creating fixed part of basis set: Ionic, confined, hydrogenic.
 
  H                    hydrogenic:
 
  List of hydrogenic basis orbitals: 
    n    l      effective z      eigenvalue [eV]  inner max. [A]     outer max. [A]     outer radius [A]   
    2    0         2.100000       -14.9965           0.193241           1.317192           5.372934
    2    1         3.500000       -41.6672           0.602363           0.602363           4.056010
    1    0         0.850000        -9.8292           0.624864           0.624864           5.372934
    2    1         3.700000       -46.5653           0.573616           0.573616           3.909951
    2    0         1.200000        -4.5995           0.334977           2.228160           5.505921
    3    2         7.000000       -74.0753           0.680692           0.680692           3.769152
 
 
  O                    hydrogenic:
 
  List of hydrogenic basis orbitals: 
    n    l      effective z      eigenvalue [eV]  inner max. [A]     outer max. [A]     outer radius [A]   
    2    1         1.800000       -11.0118           1.178546           1.178546           5.432516
    3    2         7.600000       -87.3182           0.624117           0.624117           3.541422
    3    0         6.400000       -61.9209           0.061166           1.081887           4.306510
    4    3        11.600000      -114.4238           0.731621           0.731621           3.584982
    3    1         6.200000       -58.1113           0.255677           1.030255           4.306510
    3    2         5.600000       -47.4081           0.847222           0.847222           4.413102
    5    4        17.600000      -168.5799           0.749730           0.749730           3.372413
    1    0         0.750000        -7.6499           0.705275           0.705275           5.366508
 

  Adding cutoff potential to free-atom effective potential.
  Creating atomic-like basis functions for current effective potential.

  Species H                   :

  List of atomic basis orbitals and eigenvalues:
    n    l      energy [Ha]    energy [eV]    outer radius [A]
    1    0        -0.241374        -6.5681       5.372934


  Species O                   :

  List of atomic basis orbitals and eigenvalues:
    n    l      energy [Ha]    energy [eV]    outer radius [A]
    1    0       -18.944147      -515.4965       1.415745
    2    0        -0.883529       -24.0421       5.048305
    2    1        -0.330173        -8.9845       5.301302

  Assembling full basis from fixed parts.
  | Species H :   atomic orbital   1 s accepted.
  | Species H :    hydro orbital   2 s accepted.
  | Species H :    hydro orbital   1 s accepted.
  | Species H :    hydro orbital   2 s accepted.
  | Species H :    hydro orbital   2 p accepted.
  | Species H :    hydro orbital   2 p accepted.
  | Species H :    hydro orbital   3 d accepted.
  | Species O :   atomic orbital   1 s accepted.
  | Species O :    hydro orbital   3 s accepted.
  | Species O :   atomic orbital   2 s accepted.
  | Species O :    hydro orbital   1 s accepted.
  | Species O :    hydro orbital   3 p accepted.
  | Species O :   atomic orbital   2 p accepted.
  | Species O :    hydro orbital   2 p accepted.
  | Species O :    hydro orbital   3 d accepted.
  | Species O :    hydro orbital   3 d accepted.
  | Species O :    hydro orbital   4 f accepted.
  | Species O :    hydro orbital   5 g accepted.
 
  Basis size parameters after reduction:
  | Total number of radial functions:       18
  | Total number of basis functions :      345
 
  Testing on-site integration grid accuracy.
  |  Species  Function  <phi|h_atom|phi> (log., in eV)  <phi|h_atom|phi> (rad., in eV)
           1        1                 -6.5683835025                 -6.5684759159
           1        2                 13.3711789951                 13.3708738703
           1        3                 23.6590910787                 23.6532055418
           1        4                 16.2963827186                 16.1870710655 ***
           1        5                 28.7627214838                 28.7627215090
           1        6                 59.5965249172                 59.5965950857
           1        7                 60.2220506392                 60.2220503827
           2        8               -515.4964576505               -515.4964530710
           2        9                 15.3030791347                 15.3030722972
           2       10                -21.7296094581                -21.7296135470
           2       11                 14.2969371730                 14.2969701621
           2       12                 21.0679693190                 21.0679697493
           2       13                 -2.3833606469                 -2.3833613176
           2       14                 13.7067136422                 13.7066766629
           2       15                 45.8013116808                 45.8013116965
           2       16                 52.2309815402                 52.2309831494
           2       17                 85.4120732416                 85.4120732763
           2       18                142.1019167745                142.1019167817
 * Note: Onsite integrals marked "***" above are less accurate than
 * onsite_accuracy_threshold =    0.03000 eV. Usually, this is harmless.
 * When in doubt, tighten the "radial" and/or "radial_multiplier" flags to check.

  Preparing densities etc. for the partition functions (integrals / Hartree potential).

  Preparations completed.
  max(cpu_time)          :      0.173 s.
  Wall clock time (cpu1) :      0.612 s.
------------------------------------------------------------

------------------------------------------------------------
          Begin self-consistency loop: Initialization.

          Date     :  20150727, Time     :  122103.549
------------------------------------------------------------

  Initializing index lists of integration centers etc. from given atomic structure:
  | Number of centers in hartree potential         :        15
  | Number of centers in hartree multipole         :        15
  | Number of centers in electron density summation:        15
  | Number of centers in basis integrals           :        15
  | Number of centers in integrals                 :        15
  Partitioning the integration grid into batches with parallel hashing+maxmin method.
  | Number of batches:     2071
  | Maximal batch size:     200
  | Minimal batch size:      49
  | Average batch size:      94.983
  | Standard deviation of batch sizes:      24.578

  Integration load balanced across     8 MPI tasks.
  Work distribution over tasks is as follows:
  Task     0 has      24541 integration points.
  Task     1 has      24645 integration points.
  Task     2 has      24628 integration points.
  Task     3 has      24629 integration points.
  Task     4 has      24542 integration points.
  Task     5 has      24593 integration points.
  Task     6 has      24591 integration points.
  Task     7 has      24541 integration points.
  Initializing partition tables, free-atom densities, potentials, etc. across the integration grid (initialize_grid_storage).
  | Net number of integration points:   196710
  | of which are non-zero points    :   196159
  Obtaining max. number of non-zero basis functions in each batch (get_n_compute_maxes).
  | Maximal number of non-zero basis functions:      342 in task     0
  | Maximal number of non-zero basis functions:      342 in task     1
  | Maximal number of non-zero basis functions:      342 in task     2
  | Maximal number of non-zero basis functions:      342 in task     3
  | Maximal number of non-zero basis functions:      343 in task     4
  | Maximal number of non-zero basis functions:      342 in task     5
  | Maximal number of non-zero basis functions:      342 in task     6
  | Maximal number of non-zero basis functions:      342 in task     7
  Integrating Hamiltonian matrix: batch-based integration.
  Time summed over all CPUs for integration: real work        7.851 s, elapsed        8.038 s
  Integrating overlap matrix.
  Time summed over all CPUs for integration: real work        4.258 s, elapsed        4.331 s

  Updating Kohn-Sham eigenvalues, eigenvectors, occupation numbers, and Fermi level.
  Solving generalized eigenproblem
  Updating Kohn-Sham eigenvalues and eigenfunctions.
  Transforming overlap matrix and checking for singularities.
  Overlap matrix is nonsingular:
  | Lowest eigenvalue:  0.225883E-03
  Solving real generalised eigenvalue problem by standard LAPACK (fast)
  Determining occupation numbers for Kohn-Sham eigenstates.
  | Chemical potential (Fermi level) in eV                 : -.27674783E+01
  | Error in electron count due to remaining E_F inaccuracy: 0.00000000E+00
  | Maximum occupation number of highest empty state:  0.00E+00

  Writing Kohn-Sham eigenvalues.

  State    Occupation    Eigenvalue [Ha]    Eigenvalue [eV]
      1       2.00000         -19.064898         -518.78226
      2       2.00000         -19.059386         -518.63229
      3       2.00000         -19.042965         -518.18545
      4       2.00000         -19.042534         -518.17370
      5       2.00000         -19.019682         -517.55187
      6       2.00000          -1.122178          -30.53603
      7       2.00000          -1.111607          -30.24836
      8       2.00000          -1.087365          -29.58871
      9       2.00000          -1.085782          -29.54563
     10       2.00000          -1.042050          -28.35563
     11       2.00000          -0.653359          -17.77880
     12       2.00000          -0.651747          -17.73494
     13       2.00000          -0.611177          -16.63098
     14       2.00000          -0.608975          -16.57104
     15       2.00000          -0.604344          -16.44503
     16       2.00000          -0.551191          -14.99868
     17       2.00000          -0.520035          -14.15088
     18       2.00000          -0.504708          -13.73379
     19       2.00000          -0.499643          -13.59597
     20       2.00000          -0.476848          -12.97570
     21       2.00000          -0.447999          -12.19069
     22       2.00000          -0.441412          -12.01144
     23       2.00000          -0.433381          -11.79289
     24       2.00000          -0.431529          -11.74250
     25       2.00000          -0.409742          -11.14966
     26       0.00000          -0.093455           -2.54304
     27       0.00000          -0.062664           -1.70518
     28       0.00000          -0.054493           -1.48284
     29       0.00000          -0.035896           -0.97678
     30       0.00000          -0.008880           -0.24164
     31       0.00000           0.014986            0.40780
     32       0.00000           0.028239            0.76842
     33       0.00000           0.039029            1.06202
     34       0.00000           0.048292            1.31410
     35       0.00000           0.061135            1.66356
     36       0.00000           0.074692            2.03249
     37       0.00000           0.080613            2.19360
     38       0.00000           0.095153            2.58925
     39       0.00000           0.097526            2.65382
     40       0.00000           0.098523            2.68095
     41       0.00000           0.100013            2.72148
     42       0.00000           0.114777            3.12324
     43       0.00000           0.122794            3.34141
     44       0.00000           0.128666            3.50118
     45       0.00000           0.140597            3.82584
     46       0.00000           0.147316            4.00868
     47       0.00000           0.152057            4.13767
     48       0.00000           0.161546            4.39589
     49       0.00000           0.182082            4.95470
     50       0.00000           0.191471            5.21020
     51       0.00000           0.217085            5.90718
     52       0.00000           0.225282            6.13025
     53       0.00000           0.234806            6.38939
     54       0.00000           0.249470            6.78843
     55       0.00000           0.264918            7.20878
     56       0.00000           0.270533            7.36158
     57       0.00000           0.297701            8.10087
     58       0.00000           0.307915            8.37880
     59       0.00000           0.320028            8.70840
     60       0.00000           0.331888            9.03114
     61       0.00000           0.345091            9.39040
     62       0.00000           0.359304            9.77717
     63       0.00000           0.368718           10.03333
     64       0.00000           0.382745           10.41501
     65       0.00000           0.384552           10.46418
     66       0.00000           0.400707           10.90380
     67       0.00000           0.404768           11.01429
     68       0.00000           0.426630           11.60918
     69       0.00000           0.434972           11.83619
     70       0.00000           0.457603           12.45201
     71       0.00000           0.464410           12.63724
     72       0.00000           0.493140           13.41902
     73       0.00000           0.505254           13.74865
     74       0.00000           0.532129           14.47996
     75       0.00000           0.544712           14.82237
     76       0.00000           0.553946           15.07365
     77       0.00000           0.575509           15.66039
     78       0.00000           0.615017           16.73546
     79       0.00000           0.650123           17.69075
     80       0.00000           0.665799           18.11730
     81       0.00000           0.694141           18.88853
     82       0.00000           0.711402           19.35824
     83       0.00000           0.744355           20.25493
     84       0.00000           0.756218           20.57774
     85       0.00000           0.776701           21.13511

  Highest occupied state (VBM) at    -11.14965643 eV
  | Occupation number:      2.00000000

  Lowest unoccupied state (CBM) at    -2.54304023 eV
  | Occupation number:      0.00000000

  Overall HOMO-LUMO gap:      8.60661619 eV.
  Calculating total energy contributions from superposition of free atom densities.

  Total energy components:
  | Sum of eigenvalues            :        -217.04907562 Ha       -5906.20585211 eV
  | XC energy correction          :         -45.61239900 Ha       -1241.17652707 eV
  | XC potential correction       :          58.29362804 Ha        1586.25032657 eV
  | Free-atom electrostatic energy:        -178.71735508 Ha       -4863.14666578 eV
  | Hartree energy correction     :           0.00000000 Ha           0.00000000 eV
  | van der Waals energy corr.    :           0.00000000 Ha           0.00000000 eV
  | Entropy correction            :           0.00000000 Ha           0.00000000 eV
  | ---------------------------
  | Total energy                  :        -383.08520165 Ha      -10424.27871840 eV
  | Total energy, T -> 0          :        -383.08520165 Ha      -10424.27871840 eV  <-- do not rely on this value for anything but (periodic) metals
  | Electronic free energy        :        -383.08520165 Ha      -10424.27871840 eV

  Derived energy quantities:
  | Kinetic energy                :         379.24188545 Ha       10319.69676338 eV
  | Electrostatic energy          :        -716.71468810 Ha      -19502.79895470 eV
  | Energy correction for multipole
  | error in Hartree potential    :           0.00000000 Ha           0.00000000 eV
  | Sum of eigenvalues per atom                           :        -393.74705681 eV
  | Total energy (T->0) per atom                          :        -694.95191456 eV  <-- do not rely on this value for anything but (periodic) metals
  | Electronic free energy per atom                       :        -694.95191456 eV
  Initialize hartree_potential_storage
  Max. number of atoms included in rho_multipole:           15

  End scf initialization - timings             :  max(cpu_time)    wall_clock(cpu1)
  | Time for scf. initialization               :        2.127 s           2.126 s
  | Boundary condition initialization          :        0.000 s           0.000 s
  | Integration                                :        1.550 s           1.550 s
  | Solution of K.-S. eqns.                    :        0.198 s           0.198 s
  | Grid partitioning                          :        0.162 s           0.162 s
  | Preloading free-atom quantities on grid    :        0.013 s           0.014 s
  | Free-atom superposition energy             :        0.067 s           0.067 s
  | Total energy evaluation                    :        0.000 s           0.000 s
------------------------------------------------------------

------------------------------------------------------------
          Begin self-consistency iteration #    1

  Date     :  20150727, Time     :  122105.675
------------------------------------------------------------
  Evaluating new KS density.
  Integration grid: deviation in total charge (<rho> - N_e) =   0.000000E+00
  Pulay mixing of updated and previous charge densities.

  Evaluating partitioned Hartree potential by multipole expansion.
  | Analytical far-field extrapolation by fixed multipoles:
  | Hartree multipole sum: apparent total charge =  -0.181713E-05
  Summing up the Hartree potential.
  Time summed over all CPUs for potential: real work        2.569 s, elapsed        2.583 s
  | RMS charge density error from multipole expansion :   0.165528E-02

  Integrating Hamiltonian matrix: batch-based integration.
  Time summed over all CPUs for integration: real work        7.840 s, elapsed        8.018 s

  Updating Kohn-Sham eigenvalues, eigenvectors, occupation numbers, and Fermi level.
  Solving generalized eigenproblem
  Updating Kohn-Sham eigenvalues and eigenfunctions.
  Solving real generalised eigenvalue problem by standard LAPACK (fast)
  Determining occupation numbers for Kohn-Sham eigenstates.
  | Chemical potential (Fermi level) in eV                 : -.24424352E+01
  | Error in electron count due to remaining E_F inaccuracy: 0.00000000E+00
  | Maximum occupation number of highest empty state:  0.00E+00

  Writing Kohn-Sham eigenvalues.

  State    Occupation    Eigenvalue [Ha]    Eigenvalue [eV]
      1       2.00000         -18.994819         -516.87531
      2       2.00000         -18.990387         -516.75473
      3       2.00000         -18.972579         -516.27013
      4       2.00000         -18.972562         -516.26968
      5       2.00000         -18.921359         -514.87638
      6       2.00000          -1.084662          -29.51515
      7       2.00000          -1.082936          -29.46818
      8       2.00000          -1.052857          -28.64969
      9       2.00000          -1.050623          -28.58892
     10       2.00000          -0.986777          -26.85158
     11       2.00000          -0.628249          -17.09552
     12       2.00000          -0.620037          -16.87206
     13       2.00000          -0.581664          -15.82787
     14       2.00000          -0.578507          -15.74199
     15       2.00000          -0.564053          -15.34866
     16       2.00000          -0.512873          -13.95600
     17       2.00000          -0.488310          -13.28758
     18       2.00000          -0.471367          -12.82656
     19       2.00000          -0.459348          -12.49949
     20       2.00000          -0.433757          -11.80314
     21       2.00000          -0.416864          -11.34345
     22       2.00000          -0.397653          -10.82068
     23       2.00000          -0.396706          -10.79492
     24       2.00000          -0.387408          -10.54192
     25       2.00000          -0.353197           -9.61098
     26       0.00000          -0.086517           -2.35425
     27       0.00000          -0.055542           -1.51137
     28       0.00000          -0.046957           -1.27777
     29       0.00000          -0.028806           -0.78385
     30       0.00000          -0.004795           -0.13048
     31       0.00000           0.027572            0.75026
     32       0.00000           0.038816            1.05623
     33       0.00000           0.048346            1.31556
     34       0.00000           0.055811            1.51869
     35       0.00000           0.069516            1.89163
     36       0.00000           0.084052            2.28717
     37       0.00000           0.092348            2.51291
     38       0.00000           0.104589            2.84602
     39       0.00000           0.105849            2.88030
     40       0.00000           0.110039            2.99433
     41       0.00000           0.111687            3.03916
     42       0.00000           0.130934            3.56289
     43       0.00000           0.132638            3.60927
     44       0.00000           0.138705            3.77437
     45       0.00000           0.152558            4.15130
     46       0.00000           0.157173            4.27689
     47       0.00000           0.165725            4.50960
     48       0.00000           0.183635            4.99696
     49       0.00000           0.191623            5.21433
     50       0.00000           0.204212            5.55690
     51       0.00000           0.225225            6.12868
     52       0.00000           0.234187            6.37255
     53       0.00000           0.246250            6.70079
     54       0.00000           0.258122            7.02386
     55       0.00000           0.273555            7.44382
     56       0.00000           0.278653            7.58252
     57       0.00000           0.305373            8.30963
     58       0.00000           0.319602            8.69682
     59       0.00000           0.330020            8.98031
     60       0.00000           0.340837            9.27465
     61       0.00000           0.354815            9.65501
     62       0.00000           0.372360           10.13243
     63       0.00000           0.377748           10.27905
     64       0.00000           0.392449           10.67907
     65       0.00000           0.394166           10.72579
     66       0.00000           0.411039           11.18494
     67       0.00000           0.413877           11.26217
     68       0.00000           0.436867           11.88776
     69       0.00000           0.443112           12.05769
     70       0.00000           0.465888           12.67744
     71       0.00000           0.472003           12.84385
     72       0.00000           0.504654           13.73234
     73       0.00000           0.519878           14.14660
     74       0.00000           0.542472           14.76141
     75       0.00000           0.553645           15.06544
     76       0.00000           0.567372           15.43898
     77       0.00000           0.585808           15.94065
     78       0.00000           0.627031           17.06239
     79       0.00000           0.662811           18.03601
     80       0.00000           0.681253           18.53784
     81       0.00000           0.706823           19.23364
     82       0.00000           0.725592           19.74435
     83       0.00000           0.757473           20.61190
     84       0.00000           0.768532           20.91282
     85       0.00000           0.785953           21.38688

  Highest occupied state (VBM) at     -9.61097802 eV
  | Occupation number:      2.00000000

  Lowest unoccupied state (CBM) at    -2.35424635 eV
  | Occupation number:      0.00000000

  Overall HOMO-LUMO gap:      7.25673167 eV.

  Total energy components:
  | Sum of eigenvalues            :        -214.79910685 Ha       -5844.98108671 eV
  | XC energy correction          :         -45.84947935 Ha       -1247.62781185 eV
  | XC potential correction       :          58.60334497 Ha        1594.67815284 eV
  | Free-atom electrostatic energy:        -178.71735508 Ha       -4863.14666578 eV
  | Hartree energy correction     :          -2.18185585 Ha         -59.37131856 eV
  | van der Waals energy corr.    :           0.00000000 Ha           0.00000000 eV
  | Entropy correction            :           0.00000000 Ha           0.00000000 eV
  | ---------------------------
  | Total energy                  :        -382.94445217 Ha      -10420.44873006 eV
  | Total energy, T -> 0          :        -382.94445217 Ha      -10420.44873006 eV  <-- do not rely on this value for anything but (periodic) metals
  | Electronic free energy        :        -382.94445217 Ha      -10420.44873006 eV

  Derived energy quantities:
  | Kinetic energy                :         380.65561941 Ha       10358.16642172 eV
  | Electrostatic energy          :        -717.75059222 Ha      -19530.98733993 eV
  | Energy correction for multipole
  | error in Hartree potential    :           0.00003661 Ha           0.00099611 eV
  | Sum of eigenvalues per atom                           :        -389.66540578 eV
  | Total energy (T->0) per atom                          :        -694.69658200 eV  <-- do not rely on this value for anything but (periodic) metals
  | Electronic free energy per atom                       :        -694.69658200 eV

  Self-consistency convergence accuracy:
  | Change of charge density      : 0.6544E+00
  | Change of sum of eigenvalues  : 0.6122E+02 eV
  | Change of total energy        : 0.3830E+01 eV

  End self-consistency iteration #     1       :  max(cpu_time)    wall_clock(cpu1)
  | Time for this iteration                    :        2.064 s           2.064 s
  | Charge density update                      :        0.673 s           0.674 s
  | Density mixing                             :        0.004 s           0.003 s
  | Hartree multipole update                   :        0.005 s           0.005 s
  | Hartree multipole summation                :        0.323 s           0.324 s
  | Integration                                :        1.004 s           1.004 s
  | Solution of K.-S. eqns.                    :        0.054 s           0.054 s
  | Total energy evaluation                    :        0.000 s           0.000 s
------------------------------------------------------------

------------------------------------------------------------
          Begin self-consistency iteration #    2

  Date     :  20150727, Time     :  122107.740
------------------------------------------------------------
  Evaluating new KS density.
  Integration grid: deviation in total charge (<rho> - N_e) =   7.105427E-15
  Pulay mixing of updated and previous charge densities.

  Evaluating partitioned Hartree potential by multipole expansion.
  | Analytical far-field extrapolation by fixed multipoles:
  | Hartree multipole sum: apparent total charge =  -0.520059E-05
  Summing up the Hartree potential.
  Time summed over all CPUs for potential: real work        2.569 s, elapsed        2.582 s
  | RMS charge density error from multipole expansion :   0.672923E-02

  Integrating Hamiltonian matrix: batch-based integration.
  Time summed over all CPUs for integration: real work        7.823 s, elapsed        8.031 s

  Updating Kohn-Sham eigenvalues, eigenvectors, occupation numbers, and Fermi level.
  Solving generalized eigenproblem
  Updating Kohn-Sham eigenvalues and eigenfunctions.
  Solving real generalised eigenvalue problem by standard LAPACK (fast)
  Determining occupation numbers for Kohn-Sham eigenstates.
  | Chemical potential (Fermi level) in eV                 : -.31176973E+01
  | Error in electron count due to remaining E_F inaccuracy: 0.00000000E+00
  | Maximum occupation number of highest empty state:  0.00E+00

  Highest occupied state (VBM) at     -5.80402438 eV
  | Occupation number:      2.00000000

  Lowest unoccupied state (CBM) at    -1.99798314 eV
  | Occupation number:      0.00000000

  Overall HOMO-LUMO gap:      3.80604123 eV.

  Total energy components:
  | Sum of eigenvalues            :        -209.30209989 Ha       -5695.39991684 eV
  | XC energy correction          :         -46.45264251 Ha       -1264.04071647 eV
  | XC potential correction       :          59.39042117 Ha        1616.09558611 eV
  | Free-atom electrostatic energy:        -178.71735508 Ha       -4863.14666578 eV
  | Hartree energy correction     :          -7.69257906 Ha        -209.32572652 eV
  | van der Waals energy corr.    :           0.00000000 Ha           0.00000000 eV
  | Entropy correction            :           0.00000000 Ha           0.00000000 eV
  | ---------------------------
  | Total energy                  :        -382.77425537 Ha      -10415.81743950 eV
  | Total energy, T -> 0          :        -382.77425537 Ha      -10415.81743950 eV  <-- do not rely on this value for anything but (periodic) metals
  | Electronic free energy        :        -382.77425537 Ha      -10415.81743950 eV

  Derived energy quantities:
  | Kinetic energy                :         383.59353580 Ha       10438.11119435 eV
  | Electrostatic energy          :        -719.91514865 Ha      -19589.88791739 eV
  | Energy correction for multipole
  | error in Hartree potential    :          -0.00071111 Ha          -0.01935037 eV
  | Sum of eigenvalues per atom                           :        -379.69332779 eV
  | Total energy (T->0) per atom                          :        -694.38782930 eV  <-- do not rely on this value for anything but (periodic) metals
  | Electronic free energy per atom                       :        -694.38782930 eV

  Self-consistency convergence accuracy:
  | Change of charge density      : 0.4965E+00
  | Change of sum of eigenvalues  : 0.1496E+03 eV
  | Change of total energy        : 0.4631E+01 eV

  End self-consistency iteration #     2       :  max(cpu_time)    wall_clock(cpu1)
  | Time for this iteration                    :        2.064 s           2.063 s
  | Charge density update                      :        0.670 s           0.669 s
  | Density mixing                             :        0.006 s           0.005 s
  | Hartree multipole update                   :        0.005 s           0.005 s
  | Hartree multipole summation                :        0.323 s           0.323 s
  | Integration                                :        1.006 s           1.006 s
  | Solution of K.-S. eqns.                    :        0.054 s           0.054 s
  | Total energy evaluation                    :        0.000 s           0.000 s
------------------------------------------------------------

------------------------------------------------------------
          Begin self-consistency iteration #    3

  Date     :  20150727, Time     :  122109.803
------------------------------------------------------------
  Evaluating new KS density.
  Integration grid: deviation in total charge (<rho> - N_e) =  -7.105427E-15
  Pulay mixing of updated and previous charge densities.

  Evaluating partitioned Hartree potential by multipole expansion.
  | Analytical far-field extrapolation by fixed multipoles:
  | Hartree multipole sum: apparent total charge =  -0.484495E-05
  Summing up the Hartree potential.
  Time summed over all CPUs for potential: real work        2.569 s, elapsed        2.583 s
  | RMS charge density error from multipole expansion :   0.133805E-01

  Integrating Hamiltonian matrix: batch-based integration.
  Time summed over all CPUs for integration: real work        7.832 s, elapsed        7.983 s

  Updating Kohn-Sham eigenvalues, eigenvectors, occupation numbers, and Fermi level.
  Solving generalized eigenproblem
  Updating Kohn-Sham eigenvalues and eigenfunctions.
  Solving real generalised eigenvalue problem by standard LAPACK (fast)
  Determining occupation numbers for Kohn-Sham eigenstates.
  | Chemical potential (Fermi level) in eV                 : -.28920194E+01
  | Error in electron count due to remaining E_F inaccuracy: 0.00000000E+00
  | Maximum occupation number of highest empty state:  0.00E+00

  Highest occupied state (VBM) at     -5.33943214 eV
  | Occupation number:      2.00000000

  Lowest unoccupied state (CBM) at    -2.03615287 eV
  | Occupation number:      0.00000000

  Overall HOMO-LUMO gap:      3.30327927 eV.

  Total energy components:
  | Sum of eigenvalues            :        -209.33156160 Ha       -5696.20161080 eV
  | XC energy correction          :         -46.44004445 Ha       -1263.69790572 eV
  | XC potential correction       :          59.36837190 Ha        1615.49559497 eV
  | Free-atom electrostatic energy:        -178.71735508 Ha       -4863.14666578 eV
  | Hartree energy correction     :          -7.64574573 Ha        -208.05132690 eV
  | van der Waals energy corr.    :           0.00000000 Ha           0.00000000 eV
  | Entropy correction            :           0.00000000 Ha           0.00000000 eV
  | ---------------------------
  | Total energy                  :        -382.76633496 Ha      -10415.60191424 eV
  | Total energy, T -> 0          :        -382.76633496 Ha      -10415.60191424 eV  <-- do not rely on this value for anything but (periodic) metals
  | Electronic free energy        :        -382.76633496 Ha      -10415.60191424 eV

  Derived energy quantities:
  | Kinetic energy                :         381.63241106 Ha       10384.74627499 eV
  | Electrostatic energy          :        -717.95870157 Ha      -19536.65028351 eV
  | Energy correction for multipole
  | error in Hartree potential    :          -0.00522955 Ha          -0.14230336 eV
  | Sum of eigenvalues per atom                           :        -379.74677405 eV
  | Total energy (T->0) per atom                          :        -694.37346095 eV  <-- do not rely on this value for anything but (periodic) metals
  | Electronic free energy per atom                       :        -694.37346095 eV

  Self-consistency convergence accuracy:
  | Change of charge density      : 0.2417E+00
  | Change of sum of eigenvalues  : -.8017E+00 eV
  | Change of total energy        : 0.2155E+00 eV

  End self-consistency iteration #     3       :  max(cpu_time)    wall_clock(cpu1)
  | Time for this iteration                    :        2.056 s           2.056 s
  | Charge density update                      :        0.667 s           0.666 s
  | Density mixing                             :        0.007 s           0.006 s
  | Hartree multipole update                   :        0.004 s           0.005 s
  | Hartree multipole summation                :        0.324 s           0.324 s
  | Integration                                :        1.000 s           0.999 s
  | Solution of K.-S. eqns.                    :        0.054 s           0.054 s
  | Total energy evaluation                    :        0.000 s           0.000 s
------------------------------------------------------------

------------------------------------------------------------
          Begin self-consistency iteration #    4

  Date     :  20150727, Time     :  122111.859
------------------------------------------------------------
  Evaluating new KS density.
  Integration grid: deviation in total charge (<rho> - N_e) =   1.421085E-14
  Pulay mixing of updated and previous charge densities.

  Evaluating partitioned Hartree potential by multipole expansion.
  | Analytical far-field extrapolation by fixed multipoles:
  | Hartree multipole sum: apparent total charge =  -0.561242E-05
  Summing up the Hartree potential.
  Time summed over all CPUs for potential: real work        2.568 s, elapsed        2.582 s
  | RMS charge density error from multipole expansion :   0.173191E-01

  Integrating Hamiltonian matrix: batch-based integration.
  Time summed over all CPUs for integration: real work        7.822 s, elapsed        7.973 s

  Updating Kohn-Sham eigenvalues, eigenvectors, occupation numbers, and Fermi level.
  Solving generalized eigenproblem
  Updating Kohn-Sham eigenvalues and eigenfunctions.
  Solving real generalised eigenvalue problem by standard LAPACK (fast)
  Determining occupation numbers for Kohn-Sham eigenstates.
  | Chemical potential (Fermi level) in eV                 : -.24586954E+01
  | Error in electron count due to remaining E_F inaccuracy: 0.00000000E+00
  | Maximum occupation number of highest empty state:  0.00E+00

  Highest occupied state (VBM) at     -4.08278311 eV
  | Occupation number:      2.00000000

  Lowest unoccupied state (CBM) at    -1.96398051 eV
  | Occupation number:      0.00000000

  Overall HOMO-LUMO gap:      2.11880259 eV.

  Total energy components:
  | Sum of eigenvalues            :        -207.78546603 Ha       -5654.13020957 eV
  | XC energy correction          :         -46.62628350 Ha       -1268.76572814 eV
  | XC potential correction       :          59.61007853 Ha        1622.07276692 eV
  | Free-atom electrostatic energy:        -178.71735508 Ha       -4863.14666578 eV
  | Hartree energy correction     :          -9.23789803 Ha        -251.37599533 eV
  | van der Waals energy corr.    :           0.00000000 Ha           0.00000000 eV
  | Entropy correction            :           0.00000000 Ha           0.00000000 eV
  | ---------------------------
  | Total energy                  :        -382.75692411 Ha      -10415.34583190 eV
  | Total energy, T -> 0          :        -382.75692411 Ha      -10415.34583190 eV  <-- do not rely on this value for anything but (periodic) metals
  | Electronic free energy        :        -382.75692411 Ha      -10415.34583190 eV

  Derived energy quantities:
  | Kinetic energy                :         381.71707842 Ha       10387.05019100 eV
  | Electrostatic energy          :        -717.84771902 Ha      -19533.63029476 eV
  | Energy correction for multipole
  | error in Hartree potential    :          -0.00721868 Ha          -0.19643024 eV
  | Sum of eigenvalues per atom                           :        -376.94201397 eV
  | Total energy (T->0) per atom                          :        -694.35638879 eV  <-- do not rely on this value for anything but (periodic) metals
  | Electronic free energy per atom                       :        -694.35638879 eV

  Self-consistency convergence accuracy:
  | Change of charge density      : 0.1249E+00
  | Change of sum of eigenvalues  : 0.4207E+02 eV
  | Change of total energy        : 0.2561E+00 eV

  End self-consistency iteration #     4       :  max(cpu_time)    wall_clock(cpu1)
  | Time for this iteration                    :        2.057 s           2.056 s
  | Charge density update                      :        0.667 s           0.667 s
  | Density mixing                             :        0.009 s           0.008 s
  | Hartree multipole update                   :        0.005 s           0.005 s
  | Hartree multipole summation                :        0.323 s           0.324 s
  | Integration                                :        0.999 s           0.998 s
  | Solution of K.-S. eqns.                    :        0.053 s           0.054 s
  | Total energy evaluation                    :        0.000 s           0.000 s
------------------------------------------------------------

------------------------------------------------------------
          Begin self-consistency iteration #    5

  Date     :  20150727, Time     :  122113.915
------------------------------------------------------------
  Evaluating new KS density.
  Integration grid: deviation in total charge (<rho> - N_e) =  -2.131628E-14
  Pulay mixing of updated and previous charge densities.

  Evaluating partitioned Hartree potential by multipole expansion.
  | Analytical far-field extrapolation by fixed multipoles:
  | Hartree multipole sum: apparent total charge =  -0.555202E-05
  Summing up the Hartree potential.
  Time summed over all CPUs for potential: real work        2.568 s, elapsed        2.582 s
  | RMS charge density error from multipole expansion :   0.179500E-01

  Integrating Hamiltonian matrix: batch-based integration.
  Time summed over all CPUs for integration: real work        7.818 s, elapsed        7.976 s

  Updating Kohn-Sham eigenvalues, eigenvectors, occupation numbers, and Fermi level.
  Solving generalized eigenproblem
  Updating Kohn-Sham eigenvalues and eigenfunctions.
  Solving real generalised eigenvalue problem by standard LAPACK (fast)
  Determining occupation numbers for Kohn-Sham eigenstates.
  | Chemical potential (Fermi level) in eV                 : -.24431310E+01
  | Error in electron count due to remaining E_F inaccuracy: 0.00000000E+00
  | Maximum occupation number of highest empty state:  0.00E+00

  Highest occupied state (VBM) at     -3.96162908 eV
  | Occupation number:      2.00000000

  Lowest unoccupied state (CBM) at    -1.95106992 eV
  | Occupation number:      0.00000000

  Overall HOMO-LUMO gap:      2.01055916 eV.

  Total energy components:
  | Sum of eigenvalues            :        -207.68825274 Ha       -5651.48490147 eV
  | XC energy correction          :         -46.64491181 Ha       -1269.27263021 eV
  | XC potential correction       :          59.63372923 Ha        1622.71633514 eV
  | Free-atom electrostatic energy:        -178.71735508 Ha       -4863.14666578 eV
  | Hartree energy correction     :          -9.33999202 Ha        -254.15411400 eV
  | van der Waals energy corr.    :           0.00000000 Ha           0.00000000 eV
  | Entropy correction            :           0.00000000 Ha           0.00000000 eV
  | ---------------------------
  | Total energy                  :        -382.75678242 Ha      -10415.34197632 eV
  | Total energy, T -> 0          :        -382.75678242 Ha      -10415.34197632 eV  <-- do not rely on this value for anything but (periodic) metals
  | Electronic free energy        :        -382.75678242 Ha      -10415.34197632 eV

  Derived energy quantities:
  | Kinetic energy                :         381.76210447 Ha       10388.27541225 eV
  | Electrostatic energy          :        -717.87397508 Ha      -19534.34475836 eV
  | Energy correction for multipole
  | error in Hartree potential    :          -0.00745127 Ha          -0.20275947 eV
  | Sum of eigenvalues per atom                           :        -376.76566010 eV
  | Total energy (T->0) per atom                          :        -694.35613175 eV  <-- do not rely on this value for anything but (periodic) metals
  | Electronic free energy per atom                       :        -694.35613175 eV

  Self-consistency convergence accuracy:
  | Change of charge density      : 0.2856E-01
  | Change of sum of eigenvalues  : 0.2645E+01 eV
  | Change of total energy        : 0.3856E-02 eV

  End self-consistency iteration #     5       :  max(cpu_time)    wall_clock(cpu1)
  | Time for this iteration                    :        2.056 s           2.056 s
  | Charge density update                      :        0.665 s           0.665 s
  | Density mixing                             :        0.009 s           0.010 s
  | Hartree multipole update                   :        0.005 s           0.004 s
  | Hartree multipole summation                :        0.324 s           0.324 s
  | Integration                                :        0.999 s           0.999 s
  | Solution of K.-S. eqns.                    :        0.053 s           0.053 s
  | Total energy evaluation                    :        0.000 s           0.000 s
------------------------------------------------------------

------------------------------------------------------------
          Begin self-consistency iteration #    6

  Date     :  20150727, Time     :  122115.971
------------------------------------------------------------
  Evaluating new KS density.
  Integration grid: deviation in total charge (<rho> - N_e) =   4.973799E-14
  Pulay mixing of updated and previous charge densities.

  Evaluating partitioned Hartree potential by multipole expansion.
  | Analytical far-field extrapolation by fixed multipoles:
  | Hartree multipole sum: apparent total charge =  -0.551592E-05
  Summing up the Hartree potential.
  Time summed over all CPUs for potential: real work        2.568 s, elapsed        2.583 s
  | RMS charge density error from multipole expansion :   0.180448E-01

  Integrating Hamiltonian matrix: batch-based integration.
  Time summed over all CPUs for integration: real work        7.817 s, elapsed        7.977 s

  Updating Kohn-Sham eigenvalues, eigenvectors, occupation numbers, and Fermi level.
  Solving generalized eigenproblem
  Updating Kohn-Sham eigenvalues and eigenfunctions.
  Solving real generalised eigenvalue problem by standard LAPACK (fast)
  Determining occupation numbers for Kohn-Sham eigenstates.
  | Chemical potential (Fermi level) in eV                 : -.24473304E+01
  | Error in electron count due to remaining E_F inaccuracy: 0.00000000E+00
  | Maximum occupation number of highest empty state:  0.00E+00

  Highest occupied state (VBM) at     -3.97904890 eV
  | Occupation number:      2.00000000

  Lowest unoccupied state (CBM) at    -1.95056822 eV
  | Occupation number:      0.00000000

  Overall HOMO-LUMO gap:      2.02848068 eV.

  Total energy components:
  | Sum of eigenvalues            :        -207.70504862 Ha       -5651.94194054 eV
  | XC energy correction          :         -46.64440086 Ha       -1269.25872644 eV
  | XC potential correction       :          59.63288639 Ha        1622.69340033 eV
  | Free-atom electrostatic energy:        -178.71735508 Ha       -4863.14666578 eV
  | Hartree energy correction     :          -9.32284718 Ha        -253.68757938 eV
  | van der Waals energy corr.    :           0.00000000 Ha           0.00000000 eV
  | Entropy correction            :           0.00000000 Ha           0.00000000 eV
  | ---------------------------
  | Total energy                  :        -382.75676535 Ha      -10415.34151181 eV
  | Total energy, T -> 0          :        -382.75676535 Ha      -10415.34151181 eV  <-- do not rely on this value for anything but (periodic) metals
  | Electronic free energy        :        -382.75676535 Ha      -10415.34151181 eV

  Derived energy quantities:
  | Kinetic energy                :         381.76165276 Ha       10388.26312057 eV
  | Electrostatic energy          :        -717.87401725 Ha      -19534.34590595 eV
  | Energy correction for multipole
  | error in Hartree potential    :          -0.00748149 Ha          -0.20358169 eV
  | Sum of eigenvalues per atom                           :        -376.79612937 eV
  | Total energy (T->0) per atom                          :        -694.35610079 eV  <-- do not rely on this value for anything but (periodic) metals
  | Electronic free energy per atom                       :        -694.35610079 eV

  Self-consistency convergence accuracy:
  | Change of charge density      : 0.1223E-01
  | Change of sum of eigenvalues  : -.4570E+00 eV
  | Change of total energy        : 0.4645E-03 eV

  End self-consistency iteration #     6       :  max(cpu_time)    wall_clock(cpu1)
  | Time for this iteration                    :        2.059 s           2.058 s
  | Charge density update                      :        0.666 s           0.666 s
  | Density mixing                             :        0.011 s           0.011 s
  | Hartree multipole update                   :        0.005 s           0.005 s
  | Hartree multipole summation                :        0.323 s           0.323 s
  | Integration                                :        0.999 s           0.999 s
  | Solution of K.-S. eqns.                    :        0.054 s           0.054 s
  | Total energy evaluation                    :        0.000 s           0.000 s
------------------------------------------------------------

------------------------------------------------------------
          Begin self-consistency iteration #    7

  Date     :  20150727, Time     :  122118.029
------------------------------------------------------------
  Evaluating new KS density.
  Integration grid: deviation in total charge (<rho> - N_e) =   3.552714E-14
  Pulay mixing of updated and previous charge densities.

  Evaluating partitioned Hartree potential by multipole expansion.
  | Analytical far-field extrapolation by fixed multipoles:
  | Hartree multipole sum: apparent total charge =  -0.530695E-05
  Summing up the Hartree potential.
  Time summed over all CPUs for potential: real work        2.569 s, elapsed        2.583 s
  | RMS charge density error from multipole expansion :   0.180170E-01

  Integrating Hamiltonian matrix: batch-based integration.
  Time summed over all CPUs for integration: real work        7.822 s, elapsed        8.003 s

  Updating Kohn-Sham eigenvalues, eigenvectors, occupation numbers, and Fermi level.
  Solving generalized eigenproblem
  Updating Kohn-Sham eigenvalues and eigenfunctions.
  Solving real generalised eigenvalue problem by standard LAPACK (fast)
  Determining occupation numbers for Kohn-Sham eigenstates.
  | Chemical potential (Fermi level) in eV                 : -.24962221E+01
  | Error in electron count due to remaining E_F inaccuracy: 0.00000000E+00
  | Maximum occupation number of highest empty state:  0.00E+00

  Highest occupied state (VBM) at     -4.15935841 eV
  | Occupation number:      2.00000000

  Lowest unoccupied state (CBM) at    -1.95846282 eV
  | Occupation number:      0.00000000

  Overall HOMO-LUMO gap:      2.20089559 eV.

  Total energy components:
  | Sum of eigenvalues            :        -207.86319873 Ha       -5656.24542409 eV
  | XC energy correction          :         -46.63039384 Ha       -1268.87757612 eV
  | XC potential correction       :          59.61403797 Ha        1622.18050880 eV
  | Free-atom electrostatic energy:        -178.71735508 Ha       -4863.14666578 eV
  | Hartree energy correction     :          -9.15975329 Ha        -249.24956872 eV
  | van der Waals energy corr.    :           0.00000000 Ha           0.00000000 eV
  | Entropy correction            :           0.00000000 Ha           0.00000000 eV
  | ---------------------------
  | Total energy                  :        -382.75666297 Ha      -10415.33872592 eV
  | Total energy, T -> 0          :        -382.75666297 Ha      -10415.33872592 eV  <-- do not rely on this value for anything but (periodic) metals
  | Electronic free energy        :        -382.75666297 Ha      -10415.33872592 eV

  Derived energy quantities:
  | Kinetic energy                :         381.81651544 Ha       10389.75601015 eV
  | Electrostatic energy          :        -717.94278457 Ha      -19536.21715995 eV
  | Energy correction for multipole
  | error in Hartree potential    :          -0.00735614 Ha          -0.20017080 eV
  | Sum of eigenvalues per atom                           :        -377.08302827 eV
  | Total energy (T->0) per atom                          :        -694.35591506 eV  <-- do not rely on this value for anything but (periodic) metals
  | Electronic free energy per atom                       :        -694.35591506 eV

  Self-consistency convergence accuracy:
  | Change of charge density      : 0.1059E-01
  | Change of sum of eigenvalues  : -.4303E+01 eV
  | Change of total energy        : 0.2786E-02 eV

  End self-consistency iteration #     7       :  max(cpu_time)    wall_clock(cpu1)
  | Time for this iteration                    :        2.063 s           2.063 s
  | Charge density update                      :        0.665 s           0.666 s
  | Density mixing                             :        0.012 s           0.012 s
  | Hartree multipole update                   :        0.004 s           0.005 s
  | Hartree multipole summation                :        0.324 s           0.324 s
  | Integration                                :        1.002 s           1.001 s
  | Solution of K.-S. eqns.                    :        0.054 s           0.055 s
  | Total energy evaluation                    :        0.000 s           0.000 s
------------------------------------------------------------

------------------------------------------------------------
          Begin self-consistency iteration #    8

  Date     :  20150727, Time     :  122120.092
------------------------------------------------------------
  Evaluating new KS density.
  Integration grid: deviation in total charge (<rho> - N_e) =   0.000000E+00
  Pulay mixing of updated and previous charge densities.

  Evaluating partitioned Hartree potential by multipole expansion.
  | Analytical far-field extrapolation by fixed multipoles:
  | Hartree multipole sum: apparent total charge =  -0.532156E-05
  Summing up the Hartree potential.
  Time summed over all CPUs for potential: real work        2.568 s, elapsed        2.583 s
  | RMS charge density error from multipole expansion :   0.181069E-01

  Integrating Hamiltonian matrix: batch-based integration.
  Time summed over all CPUs for integration: real work        7.816 s, elapsed        8.011 s

  Updating Kohn-Sham eigenvalues, eigenvectors, occupation numbers, and Fermi level.
  Solving generalized eigenproblem
  Updating Kohn-Sham eigenvalues and eigenfunctions.
  Solving real generalised eigenvalue problem by standard LAPACK (fast)
  Determining occupation numbers for Kohn-Sham eigenstates.
  | Chemical potential (Fermi level) in eV                 : -.24860803E+01
  | Error in electron count due to remaining E_F inaccuracy: 0.00000000E+00
  | Maximum occupation number of highest empty state:  0.00E+00

  Highest occupied state (VBM) at     -4.11347313 eV
  | Occupation number:      2.00000000

  Lowest unoccupied state (CBM) at    -1.95702628 eV
  | Occupation number:      0.00000000

  Overall HOMO-LUMO gap:      2.15644685 eV.

  Total energy components:
  | Sum of eigenvalues            :        -207.82837495 Ha       -5655.29782064 eV
  | XC energy correction          :         -46.63416234 Ha       -1268.98012214 eV
  | XC potential correction       :          59.61892949 Ha        1622.31361373 eV
  | Free-atom electrostatic energy:        -178.71735508 Ha       -4863.14666578 eV
  | Hartree energy correction     :          -9.19569834 Ha        -250.22768319 eV
  | van der Waals energy corr.    :           0.00000000 Ha           0.00000000 eV
  | Entropy correction            :           0.00000000 Ha           0.00000000 eV
  | ---------------------------
  | Total energy                  :        -382.75666121 Ha      -10415.33867803 eV
  | Total energy, T -> 0          :        -382.75666121 Ha      -10415.33867803 eV  <-- do not rely on this value for anything but (periodic) metals
  | Electronic free energy        :        -382.75666121 Ha      -10415.33867803 eV

  Derived energy quantities:
  | Kinetic energy                :         381.81747723 Ha       10389.78218168 eV
  | Electrostatic energy          :        -717.93997610 Ha      -19536.14073757 eV
  | Energy correction for multipole
  | error in Hartree potential    :          -0.00742497 Ha          -0.20204380 eV
  | Sum of eigenvalues per atom                           :        -377.01985471 eV
  | Total energy (T->0) per atom                          :        -694.35591187 eV  <-- do not rely on this value for anything but (periodic) metals
  | Electronic free energy per atom                       :        -694.35591187 eV

  Self-consistency convergence accuracy:
  | Change of charge density      : 0.2893E-02
  | Change of sum of eigenvalues  : 0.9476E+00 eV
  | Change of total energy        : 0.4789E-04 eV

  End self-consistency iteration #     8       :  max(cpu_time)    wall_clock(cpu1)
  | Time for this iteration                    :        2.065 s           2.065 s
  | Charge density update                      :        0.665 s           0.666 s
  | Density mixing                             :        0.013 s           0.013 s
  | Hartree multipole update                   :        0.005 s           0.004 s
  | Hartree multipole summation                :        0.324 s           0.324 s
  | Integration                                :        1.003 s           1.003 s
  | Solution of K.-S. eqns.                    :        0.054 s           0.054 s
  | Total energy evaluation                    :        0.000 s           0.000 s
------------------------------------------------------------

------------------------------------------------------------
          Begin self-consistency iteration #    9

  Date     :  20150727, Time     :  122122.157
------------------------------------------------------------
  Evaluating new KS density.
  Integration grid: deviation in total charge (<rho> - N_e) =  -1.421085E-14
  Pulay mixing of updated and previous charge densities.

  Evaluating partitioned Hartree potential by multipole expansion.
  | Analytical far-field extrapolation by fixed multipoles:
  | Hartree multipole sum: apparent total charge =  -0.531261E-05
  Summing up the Hartree potential.
  Time summed over all CPUs for potential: real work        2.569 s, elapsed        2.582 s
  | RMS charge density error from multipole expansion :   0.180835E-01

  Integrating Hamiltonian matrix: batch-based integration.
  Time summed over all CPUs for integration: real work        7.823 s, elapsed        7.996 s

  Updating Kohn-Sham eigenvalues, eigenvectors, occupation numbers, and Fermi level.
  Solving generalized eigenproblem
  Updating Kohn-Sham eigenvalues and eigenfunctions.
  Solving real generalised eigenvalue problem by standard LAPACK (fast)
  Determining occupation numbers for Kohn-Sham eigenstates.
  | Chemical potential (Fermi level) in eV                 : -.24880347E+01
  | Error in electron count due to remaining E_F inaccuracy: 0.00000000E+00
  | Maximum occupation number of highest empty state:  0.00E+00

  Highest occupied state (VBM) at     -4.11756995 eV
  | Occupation number:      2.00000000

  Lowest unoccupied state (CBM) at    -1.95783879 eV
  | Occupation number:      0.00000000

  Overall HOMO-LUMO gap:      2.15973117 eV.

  Total energy components:
  | Sum of eigenvalues            :        -207.83289518 Ha       -5655.42082258 eV
  | XC energy correction          :         -46.63335819 Ha       -1268.95824031 eV
  | XC potential correction       :          59.61787551 Ha        1622.28493348 eV
  | Free-atom electrostatic energy:        -178.71735508 Ha       -4863.14666578 eV
  | Hartree energy correction     :          -9.19092498 Ha        -250.09779359 eV
  | van der Waals energy corr.    :           0.00000000 Ha           0.00000000 eV
  | Entropy correction            :           0.00000000 Ha           0.00000000 eV
  | ---------------------------
  | Total energy                  :        -382.75665793 Ha      -10415.33858878 eV
  | Total energy, T -> 0          :        -382.75665793 Ha      -10415.33858878 eV  <-- do not rely on this value for anything but (periodic) metals
  | Electronic free energy        :        -382.75665793 Ha      -10415.33858878 eV

  Derived energy quantities:
  | Kinetic energy                :         381.82472833 Ha       10389.97949408 eV
  | Electrostatic energy          :        -717.94802806 Ha      -19536.35984255 eV
  | Energy correction for multipole
[...]
   ----------------------------------------------------------------
   Total forces(   4)            : -.124852E+00 0.541021E+00 0.209128E+01
  atom #    5
   Hellmann-Feynman + Multipole  : -.212422E+00 -.182345E+00 -.372831E-01
   Pulay + GGA                   : 0.374990E-01 0.824136E-01 0.126332E-02
   Van der Waals               : 0.208554E-02 -.353830E-03 0.816518E-03
   ----------------------------------------------------------------
   Total forces(   5)            : -.172838E+00 -.100285E+00 -.352033E-01
  atom #    6
   Hellmann-Feynman + Multipole  : -.259223E+00 0.289986E+00 -.224242E+01
   Pulay + GGA                   : -.357178E-01 0.423387E-01 -.121942E+00
   Van der Waals               : 0.281905E-02 0.243100E-02 0.283091E-02
   ----------------------------------------------------------------
   Total forces(   6)            : -.292121E+00 0.334756E+00 -.236153E+01
  atom #    7
   Hellmann-Feynman + Multipole  : -.608678E+01 0.808530E+00 -.973000E+01
   Pulay + GGA                   : 0.925927E+01 -.786295E+00 0.109269E+02
   Van der Waals               : -.162533E-02 0.602820E-02 0.110793E-02
   ----------------------------------------------------------------
   Total forces(   7)            : 0.317087E+01 0.282625E-01 0.119805E+01
  atom #    8
   Hellmann-Feynman + Multipole  : -.290843E+00 -.700146E+00 -.101764E+01
   Pulay + GGA                   : 0.515642E-01 0.488077E-01 0.673625E-01
   Van der Waals               : 0.394582E-03 -.140066E-03 -.312293E-02
   ----------------------------------------------------------------
   Total forces(   8)            : -.238884E+00 -.651478E+00 -.953404E+00
  atom #    9
   Hellmann-Feynman + Multipole  : -.170206E+01 0.994519E+00 -.394698E+00
   Pulay + GGA                   : 0.123703E+00 -.468122E-01 0.242246E-01
   Van der Waals               : -.221918E-02 0.356098E-02 0.200671E-02
   ----------------------------------------------------------------
   Total forces(   9)            : -.158058E+01 0.951268E+00 -.368467E+00
  atom #   10
   Hellmann-Feynman + Multipole  : -.150869E+01 -.241200E+01 -.138976E+02
   Pulay + GGA                   : 0.243063E+01 0.292513E+01 0.125470E+02
   Van der Waals               : -.263641E-02 -.332133E-02 -.251016E-02
   ----------------------------------------------------------------
   Total forces(  10)            : 0.919312E+00 0.509816E+00 -.135315E+01
  atom #   11
   Hellmann-Feynman + Multipole  : -.404746E+00 -.236115E+00 0.335293E+00
   Pulay + GGA                   : 0.934793E-01 0.578088E-01 0.533087E-01
   Van der Waals               : -.821010E-03 -.683026E-03 -.129835E-02
   ----------------------------------------------------------------
   Total forces(  11)            : -.312088E+00 -.178989E+00 0.387303E+00
  atom #   12
   Hellmann-Feynman + Multipole  : -.437704E+00 -.234623E+00 0.111969E+01
   Pulay + GGA                   : -.714809E-01 -.371717E-01 0.963548E-01
   Van der Waals               : -.127158E-02 -.338608E-02 -.388454E-02
   ----------------------------------------------------------------
   Total forces(  12)            : -.510456E+00 -.275181E+00 0.121216E+01
  atom #   13
   Hellmann-Feynman + Multipole  : -.126693E+02 -.320386E+01 0.251295E+01
   Pulay + GGA                   : 0.135982E+02 0.493069E+01 -.329283E+01
   Van der Waals               : 0.152693E-02 -.498901E-02 -.236158E-02
   ----------------------------------------------------------------
   Total forces(  13)            : 0.930491E+00 0.172185E+01 -.782245E+00
  atom #   14
   Hellmann-Feynman + Multipole  : -.281178E+00 -.161602E+00 0.462958E-01
   Pulay + GGA                   : 0.848900E-01 -.224644E-01 0.246986E-01
   Van der Waals               : -.354845E-02 -.365465E-02 -.450696E-02
   ----------------------------------------------------------------
   Total forces(  14)            : -.199837E+00 -.187721E+00 0.664874E-01
  atom #   15
   Hellmann-Feynman + Multipole  : -.828629E+00 -.149547E+01 0.677474E+00
   Pulay + GGA                   : 0.508032E-01 0.108064E+00 -.479941E-01
   Van der Waals               : 0.185631E-02 -.456712E-02 0.164730E-02
   ----------------------------------------------------------------
   Total forces(  15)            : -.775970E+00 -.139197E+01 0.631128E+00
  Timings for vdw_correction_hirshfeld (Tkatchenko-Scheffler 2009):
  | CPU time:        5.543 s, Wall clock time:        5.543 s.
  Removing unitary transformations (pure translations, rotations) from forces on atoms.
  Atomic forces before filtering:
  | Net force on center of mass :  0.162566E-02 -.463328E-02 -.901808E-02 eV/A
  | Net torque on center of mass:  0.478787E-02 -.558148E-02 -.910612E-02 eV
  Atomic forces after filtering:
  | Net force on center of mass :  -.624421E-15 0.124884E-14 -.178406E-15 eV/A
  | Net torque on center of mass:  -.118011E-14 -.160494E-14 0.264344E-14 eV
 
  Energy and forces in a compact form:
  | Total energy uncorrected      :         -0.104154125994591E+05 eV
  | Total energy corrected        :         -0.104154125994591E+05 eV  <-- do not rely on this value for anything but (periodic) metals
  | Electronic free energy        :         -0.104154125994591E+05 eV
  Total atomic forces (unitary forces cleaned) [eV/Ang]:
  |   1         -0.536369926906824E+00          0.231972509719747E+01         -0.706062561197395E+00
  |   2          0.172145854478023E+01         -0.301464358739083E+01          0.121794486712175E+01
  |   3         -0.199631416816985E+01         -0.610525443306254E+00         -0.250888298648716E+00
  |   4         -0.125119082572934E+00          0.540965767093633E+00          0.209216746876671E+01
  |   5         -0.173166625335011E+00         -0.100253812877609E+00         -0.344310474585791E-01
  |   6         -0.292528581318632E+00          0.334625322190151E+00         -0.236063687689913E+01
  |   7          0.317089096547925E+01          0.287596400523930E-01          0.119852570468525E+01
  |   8         -0.238841184571728E+00         -0.650921364830484E+00         -0.952975517005420E+00
  |   9         -0.158045768481232E+01          0.951885542875517E+00         -0.368062137517467E+00
  |  10          0.919325877874244E+00          0.510390207913971E+00         -0.135275432840093E+01
  |  11         -0.312099887904823E+00         -0.178290847952970E+00          0.387568305590580E+00
  |  12         -0.510307987503739E+00         -0.274639698920275E+00          0.121264907478108E+01
  |  13          0.930132306237337E+00          0.172205273058805E+01         -0.781654163168283E+00
  |  14         -0.200099298379883E+00         -0.187382270503816E+00          0.669890574407677E-01
  |  15         -0.776503266895327E+00         -0.139174728212893E+01          0.631620451909782E+00
 
  ------------------------------------ 
  Start decomposition of the XC Energy 
  ------------------------------------ 
  Hartree-Fock part   :          0.000000000 Ha              0.000000000 eV
  ------------------------------------ 
  X Energy            :        -44.988112161 Ha          -1224.188817933 eV
  C Energy GGA        :         -1.645175467 Ha            -44.767502199 eV
  Total XC Energy     :        -46.633287628 Ha          -1268.956320132 eV
  LDA X and C from self-consistent density 
  X Energy LDA        :        -40.564597985 Ha          -1103.818872850 eV
  C Energy LDA        :         -3.303914195 Ha            -89.904079514 eV
  ------------------------------------ 
  End decomposition of the XC Energy 
  ------------------------------------ 
  Performing Hirshfeld analysis of fragment charges and moments.
  ----------------------------------------------------------------------
  | Atom     1: O
  |   Hirshfeld charge        :     -0.43974441
  |   Free atom volume        :     23.95238533
  |   Hirshfeld volume        :     25.65819291
  |   Hirshfeld dipole vector :      0.03946158       0.08220589      -0.02910866
  |   Hirshfeld dipole moment :      0.09572011
  |   Hirshfeld second moments:     -0.03048444      -0.02866830       0.02948107
  |                                 -0.02866830      -0.09768728      -0.02038481
  |                                  0.02948107      -0.02038481      -0.14405314
  ----------------------------------------------------------------------
  | Atom     2: H
  |   Hirshfeld charge        :      0.05325342
  |   Free atom volume        :     10.44207651
  |   Hirshfeld volume        :      9.06531973
  |   Hirshfeld dipole vector :     -0.01817978       0.04373246      -0.02063830
  |   Hirshfeld dipole moment :      0.05166210
  |   Hirshfeld second moments:      0.05934917       0.02559348       0.00210644
  |                                  0.02559348       0.01292825       0.01548627
  |                                  0.00210644       0.01548627       0.04575759
  ----------------------------------------------------------------------
  | Atom     3: H
  |   Hirshfeld charge        :      0.03505733
  |   Free atom volume        :     10.44207651
  |   Hirshfeld volume        :      9.23573615
  |   Hirshfeld dipole vector :      0.05189058       0.01774457       0.00312861
  |   Hirshfeld dipole moment :      0.05492987
  |   Hirshfeld second moments:      0.01020207      -0.03130332       0.00718637
  |                                 -0.03130332       0.05441471      -0.00355708
  |                                  0.00718637      -0.00355708       0.03847066
  ----------------------------------------------------------------------
  | Atom     4: O
  |   Hirshfeld charge        :     -0.20486839
  |   Free atom volume        :     23.95238533
  |   Hirshfeld volume        :     20.61070429
  |   Hirshfeld dipole vector :      0.03287024      -0.00952031      -0.01656633
  |   Hirshfeld dipole moment :      0.03802015
  |   Hirshfeld second moments:      0.03269389       0.01114021       0.02634414
  |                                  0.01114021       0.07211964       0.00622477
  |                                  0.02634414       0.00622477       0.09553128
  ----------------------------------------------------------------------
  | Atom     5: H
  |   Hirshfeld charge        :      0.11346130
  |   Free atom volume        :     10.44207651
  |   Hirshfeld volume        :      7.45694934
  |   Hirshfeld dipole vector :      0.02742005       0.03790553       0.00685947
  |   Hirshfeld dipole moment :      0.04728362
  |   Hirshfeld second moments:      0.07844080      -0.02086301      -0.00626751
  |                                 -0.02086301       0.06729933      -0.02793046
  |                                 -0.00626751      -0.02793046       0.09945319
  ----------------------------------------------------------------------
  | Atom     6: H
  |   Hirshfeld charge        :      0.15908999
  |   Free atom volume        :     10.44207651
  |   Hirshfeld volume        :      6.02821675
  |   Hirshfeld dipole vector :     -0.01701918       0.00906222      -0.11928534
  |   Hirshfeld dipole moment :      0.12083364
  |   Hirshfeld second moments:      0.11790371       0.00845396       0.00791735
  |                                  0.00845396       0.13194360       0.00299740
  |                                  0.00791735       0.00299740       0.12205435
  ----------------------------------------------------------------------
  | Atom     7: O
  |   Hirshfeld charge        :     -0.21061553
  |   Free atom volume        :     23.95238533
  |   Hirshfeld volume        :     21.11021053
  |   Hirshfeld dipole vector :     -0.02210042      -0.02899316       0.02862020
  |   Hirshfeld dipole moment :      0.04634811
  |   Hirshfeld second moments:      0.06182803      -0.02846672       0.00916785
  |                                 -0.02846672       0.06119720       0.03078046
  |                                  0.00916785       0.03078046       0.02629947
  ----------------------------------------------------------------------
  | Atom     8: H
  |   Hirshfeld charge        :      0.10562087
  |   Free atom volume        :     10.44207651
  |   Hirshfeld volume        :      7.38125022
  |   Hirshfeld dipole vector :      0.00990393       0.02657527       0.04816144
  |   Hirshfeld dipole moment :      0.05589147
  |   Hirshfeld second moments:      0.10645458      -0.00255189       0.00967188
  |                                 -0.00255189       0.07600918      -0.02491694
  |                                  0.00967188      -0.02491694       0.06368003
  ----------------------------------------------------------------------
  | Atom     9: H
  |   Hirshfeld charge        :      0.15644292
  |   Free atom volume        :     10.44207651
  |   Hirshfeld volume        :      6.13227674
  |   Hirshfeld dipole vector :      0.08846078      -0.07844264       0.01251149
  |   Hirshfeld dipole moment :      0.11889111
  |   Hirshfeld second moments:      0.11707768       0.00054118       0.00129393
  |                                  0.00054118       0.12018944       0.01410970
  |                                  0.00129393       0.01410970       0.12139809
  ----------------------------------------------------------------------
  | Atom    10: O
  |   Hirshfeld charge        :     -0.17395035
  |   Free atom volume        :     23.95238533
  |   Hirshfeld volume        :     19.29889363
  |   Hirshfeld dipole vector :     -0.00754631      -0.00277660       0.00791763
  |   Hirshfeld dipole moment :      0.01128473
  |   Hirshfeld second moments:      0.11552499       0.02987214      -0.00809998
  |                                  0.02987214       0.08623711      -0.00242758
  |                                 -0.00809998      -0.00242758       0.09897751
  ----------------------------------------------------------------------
  | Atom    11: H
  |   Hirshfeld charge        :      0.18658982
  |   Free atom volume        :     10.44207651
  |   Hirshfeld volume        :      5.24790441
  |   Hirshfeld dipole vector :      0.09649618       0.06578386       0.03293324
  |   Hirshfeld dipole moment :      0.12134095
  |   Hirshfeld second moments:      0.14026715       0.00374876      -0.00938352
  |                                  0.00374876       0.13584718      -0.00555781
  |                                 -0.00938352      -0.00555781       0.14864161
  ----------------------------------------------------------------------
  | Atom    12: H
  |   Hirshfeld charge        :      0.18975954
  |   Free atom volume        :     10.44207651
  |   Hirshfeld volume        :      5.71325708
  |   Hirshfeld dipole vector :     -0.07366793      -0.03872067       0.08575620
  |   Hirshfeld dipole moment :      0.11950055
  |   Hirshfeld second moments:      0.13566791       0.00481043       0.00345950
  |                                  0.00481043       0.12939747       0.00262785
  |                                  0.00345950       0.00262785       0.13816578
  ----------------------------------------------------------------------
  | Atom    13: O
  |   Hirshfeld charge        :     -0.23798892
  |   Free atom volume        :     23.95238533
  |   Hirshfeld volume        :     20.93334809
  |   Hirshfeld dipole vector :      0.02239223      -0.01628448      -0.02865896
  |   Hirshfeld dipole moment :      0.03984887
  |   Hirshfeld second moments:      0.04120105       0.00551344       0.02299147
  |                                  0.00551344       0.08105085      -0.03112376
  |                                  0.02299147      -0.03112376       0.02355559
  ----------------------------------------------------------------------
  | Atom    14: H
  |   Hirshfeld charge        :      0.11037535
  |   Free atom volume        :     10.44207651
  |   Hirshfeld volume        :      7.16592955
  |   Hirshfeld dipole vector :      0.05510163      -0.02259645       0.00727562
  |   Hirshfeld dipole moment :      0.05999770
  |   Hirshfeld second moments:      0.07381791       0.03081334      -0.01813082
  |                                  0.03081334       0.10024531       0.00199456
  |                                 -0.01813082       0.00199456       0.08868266
  ----------------------------------------------------------------------
  | Atom    15: H
  |   Hirshfeld charge        :      0.15755720
  |   Free atom volume        :     10.44207651
  |   Hirshfeld volume        :      5.89867744
  |   Hirshfeld dipole vector :      0.03525785       0.10150745      -0.05552486
  |   Hirshfeld dipole moment :      0.12095408
  |   Hirshfeld second moments:      0.13124371      -0.00502508       0.01127666
  |                                 -0.00502508       0.12433915      -0.00226042
  |                                  0.01127666      -0.00226042       0.11510299
  ----------------------------------------------------------------------


------------------------------------------------------------------------------
  Final output of selected total energy values:

  The following output summarizes some interesting total energy values
  at the end of a run (AFTER all relaxation, molecular dynamics, etc.).

  | Total energy of the DFT / Hartree-Fock s.c.f. calculation      :         -10415.412599459 eV
  | Final zero-broadening corrected energy (caution - metals only) :         -10415.412599459 eV
  | For reference only, the value of 1 Hartree used in FHI-aims is :             27.211384500 eV

  Before relying on these values, please be sure to understand exactly which
  total energy value is referred to by a given number. Different objects may
  all carry the same name 'total energy'. Definitions:

  Total energy of the DFT / Hartree-Fock s.c.f. calculation:
  | Note that this energy does not include ANY quantities calculated after the
  | s.c.f. cycle, in particular not ANY RPA, MP2, etc. many-body perturbation terms.

  Final zero-broadening corrected energy:
  | For metallic systems only, a broadening of the occupation numbers at the Fermi
  | level can be extrapolated back to zero broadening by an electron-gas inspired
  | formula. For all systems that are not real metals, this value can be
  | meaningless and should be avoided.

------------------------------------------------------------------------------

------------------------------------------------------------
          Leaving FHI-aims.
          Date     :  20150727, Time     :  122142.834

          Computational steps:
          | Number of self-consistency cycles          :           16

          Detailed time accounting                     :  max(cpu_time)    wall_clock(cpu1)
          | Total time                                 :       39.909 s          39.936 s
          | Preparation time                           :        0.173 s           0.612 s
          | Grid partitioning                          :        0.162 s           0.162 s
          | Preloading free-atom quantities on grid    :        0.013 s           0.014 s
          | Free-atom superposition energy             :        0.067 s           0.067 s
          | Total time for integrations                :       17.568 s          17.569 s
          | Total time for solution of K.-S. equations :        1.058 s           1.058 s
          | Total time for density & force components  :       13.596 s          13.598 s
          | Total time for mixing                      :        0.207 s           0.204 s
          | Total time for Hartree multipole update    :        0.076 s           0.076 s
          | Total time for Hartree multipole sum       :        6.249 s           6.253 s
          | Total time for total energy evaluation     :        0.002 s           0.004 s
          | Total time for scaled ZORA corrections     :        0.000 s           0.000 s
          | Total time for TS (2009) vdW correction    :        0.052 s           0.052 s

          Have a nice day.
------------------------------------------------------------
