  MPI-parallelism will be employed.
------------------------------------------------------------
          Invoking FHI-aims ...
          Version 081213
          Compiled on 2013/08/29 at 17:41:06 on host generoso.

          When using FHI-aims, please cite the following reference:

          Volker Blum, Ralf Gehrke, Felix Hanke, Paula Havu,
          Ville Havu, Xinguo Ren, Karsten Reuter, and Matthias Scheffler,
          'Ab Initio Molecular Simulations with Numeric Atom-Centered Orbitals: FHI-aims',
          Computer Physics Communications 180, 2175-2196 (2009)

          For any questions about FHI-aims, please visit the aimsclub website
          with its forums and wiki. Contributions to both the forums and the
          wiki are warmly encouraged - they are for you, and everyone is welcome there.

------------------------------------------------------------

  Date     :  20150727, Time     :  121348.153
  Time zero on CPU 1             :   0.489920000000000E-01  s.
  Internal wall clock time zero  :           207231228.153  s.

  Using        8 parallel tasks.
  Task        0 on host gen60 reporting.
  Task        1 on host gen60 reporting.
  Task        2 on host gen60 reporting.
  Task        3 on host gen60 reporting.
  Task        4 on host gen60 reporting.
  Task        5 on host gen60 reporting.
  Task        6 on host gen60 reporting.
  Task        7 on host gen60 reporting.

  Performing system and environment tests:
  | Environment variable OMP_NUM_THREADS correctly set to 1.
  | Checking for scalapack...
  | No scalapack compiled in.

  Obtaining array dimensions for all initial allocations:
  
  -----------------------------------------------------------------------
  Parsing control.in (first pass over file, find array dimensions only).
  The contents of control.in will be repeated verbatim below
  unless switched off by setting 'verbatim_writeout .false.' .
  in the first line of control.in .
  -----------------------------------------------------------------------
  
  #########################################################################################
  #
  #  Volker Blum, FHI 2008 : Test run input file control.in
  #
  #########################################################################################
  #
  #  Physical model
  #
    xc                 rpbe
    spin               none
    relativistic       atomic_zora scalar
    charge             0.
   vdw_correction_hirshfeld
  #
  #  SCF convergence
  #
    occupation_type    gaussian 0.01
    mixer              pulay
      n_max_pulay        10
      charge_mix_param   0.1
    sc_accuracy_rho    5E-5
    sc_accuracy_eev    5E-3
    sc_accuracy_etot   5E-6
    sc_iter_limit      3000
  #
  #  Eigenvalue solver
  #
    KS_method          lapack
      empty_states       8
      basis_threshold    0.e-5
  #
  #  Efficiency
  #
  #   all previous settings are now default, except stratmann still
  #   undecided. Continue to handle stratmann with care, if at all.
  #
  #  partition_type stratmann
    partition_type rho_r2
  #  hartree_partition_type stratmann
  #
  #  Oprions for large clusters (100's of atoms: memory saving / better scaling)
  #
  # for periodic systems:
  #
    density_update_method orbital
    packed_matrix_format none
  #  k_grid 6 6 6
  #  output k_eigenvalue 1
  #  distributed_spline_storage .true.
  #
  #  Relaxation
  #
  #  relax_geometry   bfgs 5.e-3
    sc_accuracy_forces 5.E-4
    final_forces_cleaned .true.
  #
  #  Output options
  #
  #  output mulliken
    output Hirshfeld
  #  output dipole
  
  #harmonic_length_scale 0.001
  
  ################################################################################
  #
  #  FHI-aims code project
  #  VB, Fritz-Haber Institut, 2007
  #
  #  Suggested "safe" defaults for H atom (to be pasted into control.in file)
  #  Basis constructed for a non-relativistic H2 molecule using the
  #  PW-LDA functional.
  #
  ################################################################################
    species        H
  #     global species definitions
      nucleus             1
      cut_pot             4.0  2.0  1.0
      cut_free_atom       finite 8.0
      logarithmic         0.00010000 100.00  1.0123
      basis_dep_cutoff    1d-4  # 1d-4 is safe default - please check 5d-4 if you wish!
      radial_base         24 7.0
      radial_multiplier   2
      angular_grids       specified
        division   0.2783  110
        division   0.3822  194
        division   0.5626  302
  #      division   0.5922  434
  #      division   0.6227  590
  #      division   0.7206  770
        outer_grid  302
      l_hartree           4
  ################################################################################
  #
  #  Definition of "minimal" basis
  #
  ################################################################################
  #     valence basis states
      valence      1  s   1.
  #     ion occupancy
      ion_occ      1  s   0.5
  ################################################################################
  #
  #  Suggested additional basis functions. For production calculations,
  #  uncomment them one after another (the most important basis functions are
  #  listed first).
  #
  ################################################################################
  #  "First tier" - improvements: -1014.90 meV to -62.69 meV
       hydro 2 s 2.1
       hydro 2 p 3.5
  #  "Second tier" - improvements: -12.89 meV to -1.83 meV
       hydro 1 s 0.85
       hydro 2 p 3.7
       hydro 2 s 1.2
       hydro 3 d 7
  #  "Third tier" - improvements: -0.25 meV to -0.12 meV
  #     hydro 4 f 11.2
  #     hydro 3 p 4.8
  #     hydro 4 d 9
  #     hydro 3 s 3.2
  
  ################################################################################
  #
  #  FHI-aims code project
  #  VB, Fritz-Haber Institut, 2007
  #
  #  Suggested "safe" defaults for O atom (to be pasted into control.in file)
  #  All values have been tested for a non-relativistic, non-spinpolarized O2
  #  molecule using the PW-LDA functional. Validity for PBE is expected.
  #
  #  Constructed for dimers: 1.0 A, 1.208 A, 1.5 A, 2.0 A, 3.0 A
  #
  ################################################################################
    species        O
  #     global species definitions
      nucleus             8
      mass                15.9994
      l_hartree           4
      cut_pot             4.0  2.0  1.0
      cut_free_atom       finite 8.0
      basis_dep_cutoff    1d-4  # 1d-4 is safe default - please check 5d-4 if you wish!
      logarithmic         0.00010000 100.00  1.0123
      radial_base         36 7.0
      radial_multiplier   2
       angular_grids specified
        division   0.4087  110
        division   0.5181  194
        division   0.6184  302
  #      division   0.7315  434
  #      division   0.7934  590
  #      division   0.9656  770
  #      division   1.4041  974
  #      outer_grid 974
        outer_grid 302
  ################################################################################
  #
  #  Definition of "minimal" basis
  #
  ################################################################################
  #     valence basis states
      valence      2  s   2.
      valence      2  p   4.
  #     ion occupancy
      ion_occ      2  s   1.
      ion_occ      2  p   3.
  ################################################################################
  #
  #  Suggested additional basis functions. For production calculations,
  #  uncomment them one after another (the most important basis functions are
  #  listed first).
  #
  ################################################################################
  #  "First tier" - improvements: -699.05 meV to -159.38 meV
       hydro 2 p 1.8
       hydro 3 d 7.6
       hydro 3 s 6.4
  #  "Second tier" - improvements: -49.91 meV to -5.39 meV
       hydro 4 f 11.6
       hydro 3 p 6.2
       hydro 3 d 5.6
       hydro 5 g 17.6
       hydro 1 s 0.75
  #  "Third tier" - improvements: -2.83 meV to -0.50 meV
  #     ionic 2 p auto
  #     hydro 4 f 10.8
  #     hydro 4 d 4.7
  #     hydro 2 s 6.8
  #  "Fourth tier" - improvements: -0.40 meV to -0.12 meV
  #     hydro 3 p 5
  #     hydro 3 s 3.3
  #     hydro 5 g 15.6
  #     hydro 4 f 17.6
  #     hydro 4 d 14
  # Further basis functions - -0.08 meV and below
  #     hydro 3 s 2.1
  #     hydro 4 d 11.6
  #     hydro 3 p 16
  #     hydro 2 s 17.2
  
  
  -----------------------------------------------------------------------
  Completed first pass over input file control.in .
  -----------------------------------------------------------------------
  
  
  -----------------------------------------------------------------------
  Parsing geometry.in (first pass over file, find array dimensions only).
  The contents of geometry.in will be repeated verbatim below
  unless switched off by setting 'verbatim_writeout .false.' .
  in the first line of geometry.in .
  -----------------------------------------------------------------------
  
  atom      -4.053030000      0.065001000     -1.525160000  O
  atom      -4.566710000      0.974813000     -1.912820000  H
  atom      -3.067820000      0.330172000     -1.477310000  H
  atom      -5.293160000      2.192130000     -2.328800000  O
  atom      -4.829300000      2.988660000     -1.973850000  H
  atom      -5.428570000      2.328640000     -3.235170000  H
  atom      -1.645860000      0.870179000     -1.502250000  O
  atom      -1.568890000      1.501730000     -0.721051000  H
  atom      -0.824432000      0.282220000     -1.377720000  H
  atom      -3.818880000      2.024990000      2.187990000  O
  atom      -3.690880000      1.961360000      3.202150000  H
  atom      -4.546490000      2.751300000      2.045370000  H
  atom      -1.975360000      2.858040000      0.453140000  O
  atom      -1.223550000      3.375850000      0.786238000  H
  atom      -2.537520000      2.567960000      1.156120000  H
  atom      -4.066610000      4.258280000     -0.900064000  O
  atom      -3.224110000      3.876870000     -0.569443000  H
  atom      -3.737450000      5.116530000     -1.322720000  H
  atom      -5.628340000      3.730740000      1.385610000  O
  atom      -6.090650000      4.418470000      1.860350000  H
  atom      -5.158540000      4.200260000      0.615875000  H
  
  -----------------------------------------------------------------------
  Completed first pass over input file geometry.in .
  -----------------------------------------------------------------------
  
 
  Basic array size parameters: 
  | Number of species                 :        2
  | Number of atoms                   :       21
  | Max. basis fn. angular momentum   :        4
  | Max. atomic/ionic basis occupied n:        2
  | Max. number of basis fn. types    :        2
  | Max. radial fns per species/type  :        8
  | Max. logarithmic grid size        :     1301
  | Max. radial integration grid size :       73
  | Max. angular integration grid size:      302
  | Max. angular grid division number :        8
  | Radial grid for Hartree potential :     1301
  | Number of spin channels           :        1

------------------------------------------------------------
          Reading file control.in.
------------------------------------------------------------
  XC: Using RPBE gradient-corrected functionals.
  Spin treatment: No spin polarisation.
  Scalar relativistic treatment of kinetic energy: on-site free-atom approximation to ZORA.
  Charge =   0.000000E+00: Neutral system requested explicitly.
  Using non-empirical van der Waals correction (Hirshfeld partitioning):
  Occupation type: Gaussian broadening, width =   0.100000E-01 eV.
  Using pulay charge density mixing.
  Pulay mixing - number of memorized iterations:   10
  Charge density mixing - mixing parameter:     0.1000
  Convergence accuracy of self-consistent charge density: 0.5000E-04
  Convergence accuracy of sum of eigenvalues: 0.5000E-02
  Convergence accuracy of total energy: 0.5000E-05
  Maximum number of s.-c. iterations  :  3000
  Kohn-Sham eigenvalues and eigenfunctions calculated by lapack diagonalisation (D&C).
  Number of empty states per atom:        8
  Threshold for basis singularities: 0.0000E+00
  Partition function in integrals calculations: rho / r^2
 Using packed matrix format           0
  Convergence accuracy of forces: 0.5000E-03
  Cleaning forces before final output.
  Hirshfeld charge analysis will be performed.
 
  Reading configuration options for species H                   .
  | Found nuclear charge :   1.0000
  | Found cutoff potl. onset [A], width [A], scale factor :    4.00000    2.00000    1.00000
  | Found cutoff specification for free atom: Cutoff potential begins at    8.00000 A.
  | Found logarithmic grid data [bohr] : 0.1000E-03 0.1000E+03 0.1012E+01
  | Threshold for basis-dependent cutoff potential is   0.100000E-03
  | Found data for basic radial integration grid :    24 points, outermost radius =    7.000 A
  | Found multiplier for basic radial grid :   2
  | Found angular grid specification: user-specified.
  | Specified grid contains     4 separate shells.
  | Check grid settings after all constraints further below.
  | Found l_max for Hartree potential  :   4
  | Found free-atom valence shell :  1 s   1.000
  | No ionic wave fns used. Skipping ion_occ.
  | Found hydrogenic basis function :  2 s   2.100
  | Found hydrogenic basis function :  2 p   3.500
  | Found hydrogenic basis function :  1 s   0.850
  | Found hydrogenic basis function :  2 p   3.700
  | Found hydrogenic basis function :  2 s   1.200
  | Found hydrogenic basis function :  3 d   7.000
  Species H                   : Missing cutoff potential type.
  Defaulting to exp(1/x)/(1-x)^2 type cutoff potential.
  Species H : On-site basis accuracy parameter (for Gram-Schmidt orthonormalisation) not specified.
  Using default value basis_acc =  0.1000000E-03.
  Species H                   : Using default innermost maximum threshold i_radial=  2 for radial functions.
  Species H                   : Basic radial grid will be enhanced according to radial_multiplier =   2, to contain    49 grid points.
 
  Reading configuration options for species O                   .
  | Found nuclear charge :   8.0000
  | Found atomic mass :    15.9994000000000      amu
  | Found l_max for Hartree potential  :   4
  | Found cutoff potl. onset [A], width [A], scale factor :    4.00000    2.00000    1.00000
  | Found cutoff specification for free atom: Cutoff potential begins at    8.00000 A.
  | Threshold for basis-dependent cutoff potential is   0.100000E-03
  | Found logarithmic grid data [bohr] : 0.1000E-03 0.1000E+03 0.1012E+01
  | Found data for basic radial integration grid :    36 points, outermost radius =    7.000 A
  | Found multiplier for basic radial grid :   2
  | Found angular grid specification: user-specified.
  | Specified grid contains     4 separate shells.
  | Check grid settings after all constraints further below.
  | Found free-atom valence shell :  2 s   2.000
  | Found free-atom valence shell :  2 p   4.000
  | No ionic wave fns used. Skipping ion_occ.
  | No ionic wave fns used. Skipping ion_occ.
  | Found hydrogenic basis function :  2 p   1.800
  | Found hydrogenic basis function :  3 d   7.600
  | Found hydrogenic basis function :  3 s   6.400
  | Found hydrogenic basis function :  4 f  11.600
  | Found hydrogenic basis function :  3 p   6.200
  | Found hydrogenic basis function :  3 d   5.600
  | Found hydrogenic basis function :  5 g  17.600
  | Found hydrogenic basis function :  1 s   0.750
  Species O                   : Missing cutoff potential type.
  Defaulting to exp(1/x)/(1-x)^2 type cutoff potential.
  Species O : On-site basis accuracy parameter (for Gram-Schmidt orthonormalisation) not specified.
  Using default value basis_acc =  0.1000000E-03.
  Species O                   : Using default innermost maximum threshold i_radial=  2 for radial functions.
  Species O                   : Basic radial grid will be enhanced according to radial_multiplier =   2, to contain    73 grid points.
 
  Finished reading input file 'control.in'. Consistency checks are next.
 
  Target number of points in a grid batch is not set. Defaulting to  100
  Method for grid partitioning is not set. Defaulting to parallel hash+maxmin partitioning.
  Batch size limit is not set. Defaulting to    200
  By default, will store active basis functions for each batch.
  If in need of memory, prune_basis_once .false. can be used to disable this option.
  communication_type for Hartree potential was not specified.
  Defaulting to calc_hartree .
  Pulay mixer: Number of initial linear mixing iterations not set.
  Defaulting to    0 iterations.
  Work space size for distributed Hartree potential not set.
  Defaulting to   0.200000E+03 MB.
  Algorithm-dependent basis array size parameters:
  | n_max_pulay                         :       10
  Geometry relaxation not requested: no relaxation will be performed.
  Handling of forces: Unphysical translation and rotation will be removed from forces.
  No accuracy limit for integral partition fn. given. Defaulting to 0.1000E-14.
  No threshold value for u(r) in integrations given. Defaulting to 0.1000E-05.
  No accuracy for occupation numbers given. Defaulting to 0.1000E-07.
  No threshold value for occupation numbers given. Defaulting to 0.0000E+00.
  No accuracy for fermi level given. Defaulting to 0.1000E-19.
  Maximum # of iterations to find E_F not set. Defaulting to  200.
  Will not use alltoall communication since running on < 1024 CPUs.
  Partitioning for Hartree potential was not defined. Using partition_type for integrals.
  | Reporting present value of keyword multip_moments_threshold  :       0.10000000E-09
  | This value may affect high angular momentum components of the Hartree potential in periodic systems.
  No q(lm)/r^(l+1) cutoff set for long-range Hartree potential.
  | Using default value of  0.100000E-09 .
  | Verify using the multipole_threshold keyword.
  Defaulting to new monopole extrapolation.
  Density update method: Loop over occupied states selected for charge density update.
------------------------------------------------------------


------------------------------------------------------------
          Reading geometry description geometry.in.
------------------------------------------------------------
  Input structure read successfully.
  The structure contains       21 atoms,  and a total of         70.000 electrons.

  Input geometry:
  | No unit cell requested.
  | Atomic structure:
  |       Atom                x [A]            y [A]            z [A]
  |    1: Species O             -4.053030         0.065001        -1.525160
  |    2: Species H             -4.566710         0.974813        -1.912820
  |    3: Species H             -3.067820         0.330172        -1.477310
  |    4: Species O             -5.293160         2.192130        -2.328800
  |    5: Species H             -4.829300         2.988660        -1.973850
  |    6: Species H             -5.428570         2.328640        -3.235170
  |    7: Species O             -1.645860         0.870179        -1.502250
  |    8: Species H             -1.568890         1.501730        -0.721051
  |    9: Species H             -0.824432         0.282220        -1.377720
  |   10: Species O             -3.818880         2.024990         2.187990
  |   11: Species H             -3.690880         1.961360         3.202150
  |   12: Species H             -4.546490         2.751300         2.045370
  |   13: Species O             -1.975360         2.858040         0.453140
  |   14: Species H             -1.223550         3.375850         0.786238
  |   15: Species H             -2.537520         2.567960         1.156120
  |   16: Species O             -4.066610         4.258280        -0.900064
  |   17: Species H             -3.224110         3.876870        -0.569443
  |   18: Species H             -3.737450         5.116530        -1.322720
  |   19: Species O             -5.628340         3.730740         1.385610
  |   20: Species H             -6.090650         4.418470         1.860350
  |   21: Species H             -5.158540         4.200260         0.615875
  |

  | The smallest distance between any two atoms is         0.92654057 AA.
  |
  | The first atom of this pair is atom number                      4 .
  | The second atom of this pair is atom number                     6 .

  Structure-dependent array size parameters: 
  | Maximum number of distinct radial functions  :       18
  | Maximum number of basis functions            :      483
  | Number of Kohn-Sham states (occupied + empty):      119
------------------------------------------------------------

------------------------------------------------------------
          Preparing all fixed parts of the calculation.
------------------------------------------------------------
  Determining machine precision:
    2.225073858507201E-308
  Setting up grids for atomic and cluster calculations.

  Creating wave function, potential, and density for free atoms.

  Species: H

  List of occupied orbitals and eigenvalues:
    n    l              occ      energy [Ha]    energy [eV]
    1    0           1.0000        -0.241408        -6.5691


  Species: O

  List of occupied orbitals and eigenvalues:
    n    l              occ      energy [Ha]    energy [eV]
    1    0           2.0000       -18.944147      -515.4965
    2    0           2.0000        -0.883529       -24.0421
    2    1           4.0000        -0.330176        -8.9845

  Creating fixed part of basis set: Ionic, confined, hydrogenic.
 
  H                    hydrogenic:
 
  List of hydrogenic basis orbitals: 
    n    l      effective z      eigenvalue [eV]  inner max. [A]     outer max. [A]     outer radius [A]   
    2    0         2.100000       -14.9965           0.193241           1.317192           5.372934
    2    1         3.500000       -41.6672           0.602363           0.602363           4.056010
    1    0         0.850000        -9.8292           0.624864           0.624864           5.372934
    2    1         3.700000       -46.5653           0.573616           0.573616           3.909951
    2    0         1.200000        -4.5995           0.334977           2.228160           5.505921
    3    2         7.000000       -74.0753           0.680692           0.680692           3.769152
 
 
  O                    hydrogenic:
 
  List of hydrogenic basis orbitals: 
    n    l      effective z      eigenvalue [eV]  inner max. [A]     outer max. [A]     outer radius [A]   
    2    1         1.800000       -11.0118           1.178546           1.178546           5.432516
    3    2         7.600000       -87.3182           0.624117           0.624117           3.541422
    3    0         6.400000       -61.9209           0.061166           1.081887           4.306510
    4    3        11.600000      -114.4238           0.731621           0.731621           3.584982
    3    1         6.200000       -58.1113           0.255677           1.030255           4.306510
    3    2         5.600000       -47.4081           0.847222           0.847222           4.413102
    5    4        17.600000      -168.5799           0.749730           0.749730           3.372413
    1    0         0.750000        -7.6499           0.705275           0.705275           5.366508
 

  Adding cutoff potential to free-atom effective potential.
  Creating atomic-like basis functions for current effective potential.

  Species H                   :

  List of atomic basis orbitals and eigenvalues:
    n    l      energy [Ha]    energy [eV]    outer radius [A]
    1    0        -0.241374        -6.5681       5.372934


  Species O                   :

  List of atomic basis orbitals and eigenvalues:
    n    l      energy [Ha]    energy [eV]    outer radius [A]
    1    0       -18.944147      -515.4965       1.415745
    2    0        -0.883529       -24.0421       5.048305
    2    1        -0.330173        -8.9845       5.301302

  Assembling full basis from fixed parts.
  | Species H :   atomic orbital   1 s accepted.
  | Species H :    hydro orbital   2 s accepted.
  | Species H :    hydro orbital   1 s accepted.
  | Species H :    hydro orbital   2 s accepted.
  | Species H :    hydro orbital   2 p accepted.
  | Species H :    hydro orbital   2 p accepted.
  | Species H :    hydro orbital   3 d accepted.
  | Species O :   atomic orbital   1 s accepted.
  | Species O :    hydro orbital   3 s accepted.
  | Species O :   atomic orbital   2 s accepted.
  | Species O :    hydro orbital   1 s accepted.
  | Species O :    hydro orbital   3 p accepted.
  | Species O :   atomic orbital   2 p accepted.
  | Species O :    hydro orbital   2 p accepted.
  | Species O :    hydro orbital   3 d accepted.
  | Species O :    hydro orbital   3 d accepted.
  | Species O :    hydro orbital   4 f accepted.
  | Species O :    hydro orbital   5 g accepted.
 
  Basis size parameters after reduction:
  | Total number of radial functions:       18
  | Total number of basis functions :      483
 
  Testing on-site integration grid accuracy.
  |  Species  Function  <phi|h_atom|phi> (log., in eV)  <phi|h_atom|phi> (rad., in eV)
           1        1                 -6.5683835025                 -6.5684759159
           1        2                 13.3711789951                 13.3708738703
           1        3                 23.6590910787                 23.6532055418
           1        4                 16.2963827186                 16.1870710655 ***
           1        5                 28.7627214838                 28.7627215090
           1        6                 59.5965249172                 59.5965950857
           1        7                 60.2220506392                 60.2220503827
           2        8               -515.4964576505               -515.4964530710
           2        9                 15.3030791347                 15.3030722972
           2       10                -21.7296094581                -21.7296135470
           2       11                 14.2969371730                 14.2969701621
           2       12                 21.0679693190                 21.0679697493
           2       13                 -2.3833606469                 -2.3833613176
           2       14                 13.7067136422                 13.7066766629
           2       15                 45.8013116808                 45.8013116965
           2       16                 52.2309815402                 52.2309831494
           2       17                 85.4120732416                 85.4120732763
           2       18                142.1019167745                142.1019167817
 * Note: Onsite integrals marked "***" above are less accurate than
 * onsite_accuracy_threshold =    0.03000 eV. Usually, this is harmless.
 * When in doubt, tighten the "radial" and/or "radial_multiplier" flags to check.

  Preparing densities etc. for the partition functions (integrals / Hartree potential).

  Preparations completed.
  max(cpu_time)          :      0.174 s.
  Wall clock time (cpu1) :      0.481 s.
------------------------------------------------------------

------------------------------------------------------------
          Begin self-consistency loop: Initialization.

          Date     :  20150727, Time     :  121348.648
------------------------------------------------------------

  Initializing index lists of integration centers etc. from given atomic structure:
  | Number of centers in hartree potential         :        21
  | Number of centers in hartree multipole         :        21
  | Number of centers in electron density summation:        21
  | Number of centers in basis integrals           :        21
  | Number of centers in integrals                 :        21
  Partitioning the integration grid into batches with parallel hashing+maxmin method.
  | Number of batches:     2686
  | Maximal batch size:     200
  | Minimal batch size:      52
  | Average batch size:     102.529
  | Standard deviation of batch sizes:      31.043

  Integration load balanced across     8 MPI tasks.
  Work distribution over tasks is as follows:
  Task     0 has      34372 integration points.
  Task     1 has      34461 integration points.
  Task     2 has      34465 integration points.
  Task     3 has      34450 integration points.
  Task     4 has      34449 integration points.
  Task     5 has      34460 integration points.
  Task     6 has      34361 integration points.
  Task     7 has      34376 integration points.
  Initializing partition tables, free-atom densities, potentials, etc. across the integration grid (initialize_grid_storage).
  | Net number of integration points:   275394
  | of which are non-zero points    :   274815
  Obtaining max. number of non-zero basis functions in each batch (get_n_compute_maxes).
  | Maximal number of non-zero basis functions:      478 in task     0
  | Maximal number of non-zero basis functions:      478 in task     1
  | Maximal number of non-zero basis functions:      478 in task     2
  | Maximal number of non-zero basis functions:      478 in task     3
  | Maximal number of non-zero basis functions:      478 in task     4
  | Maximal number of non-zero basis functions:      478 in task     5
  | Maximal number of non-zero basis functions:      478 in task     6
  | Maximal number of non-zero basis functions:      478 in task     7
  Integrating Hamiltonian matrix: batch-based integration.
  Time summed over all CPUs for integration: real work       15.803 s, elapsed       15.996 s
  Integrating overlap matrix.
  Time summed over all CPUs for integration: real work        8.750 s, elapsed        8.883 s

  Updating Kohn-Sham eigenvalues, eigenvectors, occupation numbers, and Fermi level.
  Solving generalized eigenproblem
  Updating Kohn-Sham eigenvalues and eigenfunctions.
  Transforming overlap matrix and checking for singularities.
  Overlap matrix is nonsingular:
  | Lowest eigenvalue:  0.212067E-03
  Solving real generalised eigenvalue problem by standard LAPACK (fast)
  Determining occupation numbers for Kohn-Sham eigenstates.
  | Chemical potential (Fermi level) in eV                 : -.31037869E+01
  | Error in electron count due to remaining E_F inaccuracy: 0.00000000E+00
  | Maximum occupation number of highest empty state:  0.00E+00

  Writing Kohn-Sham eigenvalues.

  State    Occupation    Eigenvalue [Ha]    Eigenvalue [eV]
      1       2.00000         -19.064910         -518.78260
      2       2.00000         -19.059585         -518.63770
      3       2.00000         -19.050655         -518.39471
      4       2.00000         -19.045481         -518.25392
      5       2.00000         -19.042534         -518.17372
      6       2.00000         -19.032823         -517.90946
      7       2.00000         -19.019683         -517.55191
      8       2.00000          -1.122296          -30.53921
      9       2.00000          -1.113684          -30.30489
     10       2.00000          -1.100507          -29.94631
     11       2.00000          -1.089293          -29.64116
     12       2.00000          -1.086475          -29.56448
     13       2.00000          -1.064433          -28.96470
     14       2.00000          -1.042055          -28.35575
     15       2.00000          -0.656825          -17.87312
     16       2.00000          -0.653501          -17.78266
     17       2.00000          -0.632183          -17.20259
     18       2.00000          -0.612049          -16.65471
     19       2.00000          -0.610018          -16.59942
     20       2.00000          -0.604546          -16.45052
     21       2.00000          -0.603853          -16.43167
     22       2.00000          -0.551326          -15.00235
     23       2.00000          -0.529919          -14.41983
     24       2.00000          -0.515330          -14.02284
     25       2.00000          -0.510040          -13.87890
     26       2.00000          -0.499876          -13.60232
     27       2.00000          -0.487283          -13.25966
     28       2.00000          -0.476775          -12.97371
     29       2.00000          -0.448743          -12.21092
     30       2.00000          -0.441459          -12.01271
     31       2.00000          -0.440622          -11.98993
     32       2.00000          -0.437892          -11.91566
     33       2.00000          -0.431562          -11.74341
     34       2.00000          -0.424803          -11.55948
     35       2.00000          -0.409731          -11.14935
     36       0.00000          -0.097549           -2.65445
     37       0.00000          -0.067362           -1.83301
     38       0.00000          -0.064089           -1.74396
     39       0.00000          -0.048232           -1.31245
     40       0.00000          -0.041942           -1.14131
     41       0.00000          -0.026729           -0.72734
     42       0.00000           0.006405            0.17429
     43       0.00000           0.024129            0.65659
     44       0.00000           0.029419            0.80054
     45       0.00000           0.037353            1.01643
     46       0.00000           0.043112            1.17314
     47       0.00000           0.047525            1.29321
     48       0.00000           0.053984            1.46898
     49       0.00000           0.063199            1.71974
     50       0.00000           0.075664            2.05891
     51       0.00000           0.079989            2.17661
     52       0.00000           0.087515            2.38141
     53       0.00000           0.088667            2.41276
     54       0.00000           0.095405            2.59609
     55       0.00000           0.100290            2.72902
     56       0.00000           0.109356            2.97574
     57       0.00000           0.112868            3.07130
     58       0.00000           0.119872            3.26189
     59       0.00000           0.121518            3.30668
     60       0.00000           0.128168            3.48762
     61       0.00000           0.134155            3.65055
     62       0.00000           0.136384            3.71121
     63       0.00000           0.142628            3.88111
     64       0.00000           0.151963            4.13514
     65       0.00000           0.154827            4.21306
     66       0.00000           0.164662            4.48069
     67       0.00000           0.179699            4.88985
     68       0.00000           0.186016            5.06176
     69       0.00000           0.194839            5.30183
     70       0.00000           0.200695            5.46118
     71       0.00000           0.230133            6.26223
     72       0.00000           0.235639            6.41205
     73       0.00000           0.244695            6.65849
     74       0.00000           0.254655            6.92951
     75       0.00000           0.273037            7.42972
     76       0.00000           0.275374            7.49331
     77       0.00000           0.293949            7.99875
     78       0.00000           0.299782            8.15750
     79       0.00000           0.304826            8.29473
     80       0.00000           0.311779            8.48393
     81       0.00000           0.321657            8.75273
     82       0.00000           0.332344            9.04354
     83       0.00000           0.342515            9.32030
     84       0.00000           0.353519            9.61974
     85       0.00000           0.358863            9.76515
     86       0.00000           0.363259            9.88478
     87       0.00000           0.371676           10.11381
     88       0.00000           0.377664           10.27677
     89       0.00000           0.388141           10.56185
     90       0.00000           0.397954           10.82889
     91       0.00000           0.401885           10.93584
     92       0.00000           0.409288           11.13729
     93       0.00000           0.423983           11.53717
     94       0.00000           0.447518           12.17757
     95       0.00000           0.461440           12.55642
     96       0.00000           0.466878           12.70439
     97       0.00000           0.470142           12.79322
     98       0.00000           0.478579           13.02279
     99       0.00000           0.485636           13.21482
    100       0.00000           0.506246           13.77566
    101       0.00000           0.509435           13.86242
    102       0.00000           0.519584           14.13859
    103       0.00000           0.539777           14.68807
    104       0.00000           0.550293           14.97422
    105       0.00000           0.590646           16.07230
    106       0.00000           0.610148           16.60297
    107       0.00000           0.613373           16.69074
    108       0.00000           0.642861           17.49312
    109       0.00000           0.659093           17.93483
    110       0.00000           0.672825           18.30849
    111       0.00000           0.694307           18.89306
    112       0.00000           0.701764           19.09597
    113       0.00000           0.710673           19.33839
    114       0.00000           0.732553           19.93377
    115       0.00000           0.738977           20.10858
    116       0.00000           0.763537           20.77690
    117       0.00000           0.784947           21.35949
    118       0.00000           0.786138           21.39191
    119       0.00000           0.804647           21.89555

  Highest occupied state (VBM) at    -11.14934961 eV
  | Occupation number:      2.00000000

  Lowest unoccupied state (CBM) at    -2.65445309 eV
  | Occupation number:      0.00000000

  Overall HOMO-LUMO gap:      8.49489652 eV.
  Calculating total energy contributions from superposition of free atom densities.

  Total energy components:
  | Sum of eigenvalues            :        -303.82550253 Ha       -8267.51257030 eV
  | XC energy correction          :         -63.87032588 Ha       -1737.99999568 eV
  | XC potential correction       :          81.63308189 Ha        2221.34917919 eV
  | Free-atom electrostatic energy:        -250.25179871 Ha       -6809.69791654 eV
  | Hartree energy correction     :           0.00000000 Ha           0.00000000 eV
  | van der Waals energy corr.    :           0.00000000 Ha           0.00000000 eV
  | Entropy correction            :           0.00000000 Ha           0.00000000 eV
  | ---------------------------
  | Total energy                  :        -536.31454524 Ha      -14593.86130333 eV
  | Total energy, T -> 0          :        -536.31454524 Ha      -14593.86130333 eV  <-- do not rely on this value for anything but (periodic) metals
  | Electronic free energy        :        -536.31454524 Ha      -14593.86130333 eV

  Derived energy quantities:
  | Kinetic energy                :         530.97333864 Ha       14448.51967708 eV
  | Electrostatic energy          :       -1003.41755800 Ha      -27304.38098473 eV
  | Energy correction for multipole
  | error in Hartree potential    :           0.00000000 Ha           0.00000000 eV
  | Sum of eigenvalues per atom                           :        -393.69107478 eV
  | Total energy (T->0) per atom                          :        -694.94577635 eV  <-- do not rely on this value for anything but (periodic) metals
  | Electronic free energy per atom                       :        -694.94577635 eV
  Initialize hartree_potential_storage
  Max. number of atoms included in rho_multipole:           21

  End scf initialization - timings             :  max(cpu_time)    wall_clock(cpu1)
  | Time for scf. initialization               :        4.181 s           4.181 s
  | Boundary condition initialization          :        0.000 s           0.000 s
  | Integration                                :        3.117 s           3.117 s
  | Solution of K.-S. eqns.                    :        0.462 s           0.462 s
  | Grid partitioning                          :        0.209 s           0.208 s
  | Preloading free-atom quantities on grid    :        0.013 s           0.013 s
  | Free-atom superposition energy             :        0.118 s           0.118 s
  | Total energy evaluation                    :        0.000 s           0.000 s
------------------------------------------------------------

------------------------------------------------------------
          Begin self-consistency iteration #    1

  Date     :  20150727, Time     :  121352.829
------------------------------------------------------------
  Evaluating new KS density.
  Integration grid: deviation in total charge (<rho> - N_e) =   2.842171E-14
  Pulay mixing of updated and previous charge densities.

  Evaluating partitioned Hartree potential by multipole expansion.
  | Analytical far-field extrapolation by fixed multipoles:
  | Hartree multipole sum: apparent total charge =  -0.260170E-05
  Summing up the Hartree potential.
  Time summed over all CPUs for potential: real work        4.982 s, elapsed        5.002 s
  | RMS charge density error from multipole expansion :   0.195724E-02

  Integrating Hamiltonian matrix: batch-based integration.
  Time summed over all CPUs for integration: real work       15.784 s, elapsed       15.974 s

  Updating Kohn-Sham eigenvalues, eigenvectors, occupation numbers, and Fermi level.
  Solving generalized eigenproblem
  Updating Kohn-Sham eigenvalues and eigenfunctions.
  Solving real generalised eigenvalue problem by standard LAPACK (fast)
  Determining occupation numbers for Kohn-Sham eigenstates.
  | Chemical potential (Fermi level) in eV                 : -.27241406E+01
  | Error in electron count due to remaining E_F inaccuracy: 0.00000000E+00
  | Maximum occupation number of highest empty state:  0.00E+00

  Writing Kohn-Sham eigenvalues.

  State    Occupation    Eigenvalue [Ha]    Eigenvalue [eV]
      1       2.00000         -18.989975         -516.74352
      2       2.00000         -18.987810         -516.68459
      3       2.00000         -18.981842         -516.52219
      4       2.00000         -18.979506         -516.45865
      5       2.00000         -18.970474         -516.21288
      6       2.00000         -18.957437         -515.85810
      7       2.00000         -18.919112         -514.81523
      8       2.00000          -1.084465          -29.50978
      9       2.00000          -1.079177          -29.36590
     10       2.00000          -1.066489          -29.02064
     11       2.00000          -1.058380          -28.79999
     12       2.00000          -1.048600          -28.53386
     13       2.00000          -1.025663          -27.90972
     14       2.00000          -0.984562          -26.79130
     15       2.00000          -0.626788          -17.05577
     16       2.00000          -0.620154          -16.87525
     17       2.00000          -0.602544          -16.39606
     18       2.00000          -0.585724          -15.93836
     19       2.00000          -0.577102          -15.70373
     20       2.00000          -0.571654          -15.55551
     21       2.00000          -0.562370          -15.30287
     22       2.00000          -0.511654          -13.92283
     23       2.00000          -0.497257          -13.53105
     24       2.00000          -0.480966          -13.08775
     25       2.00000          -0.475438          -12.93732
     26       2.00000          -0.457902          -12.46016
     27       2.00000          -0.449378          -12.22821
     28       2.00000          -0.432386          -11.76581
     29       2.00000          -0.413104          -11.24112
     30       2.00000          -0.407086          -11.07738
     31       2.00000          -0.402054          -10.94044
     32       2.00000          -0.395232          -10.75482
     33       2.00000          -0.385753          -10.49688
     34       2.00000          -0.384217          -10.45507
     35       2.00000          -0.350864           -9.54748
     36       0.00000          -0.088782           -2.41589
     37       0.00000          -0.058722           -1.59791
     38       0.00000          -0.055951           -1.52250
     39       0.00000          -0.040509           -1.10230
     40       0.00000          -0.034177           -0.93001
     41       0.00000          -0.020984           -0.57101
     42       0.00000           0.020810            0.56626
     43       0.00000           0.035263            0.95955
     44       0.00000           0.037723            1.02648
     45       0.00000           0.046028            1.25248
     46       0.00000           0.053731            1.46210
     47       0.00000           0.058802            1.60007
     48       0.00000           0.062817            1.70935
     49       0.00000           0.071653            1.94978
     50       0.00000           0.085618            2.32979
     51       0.00000           0.094413            2.56910
     52       0.00000           0.095917            2.61003
     53       0.00000           0.100761            2.74185
     54       0.00000           0.106833            2.90708
     55       0.00000           0.110891            3.01749
     56       0.00000           0.121788            3.31403
     57       0.00000           0.127345            3.46522
     58       0.00000           0.130830            3.56006
     59       0.00000           0.135923            3.69865
     60       0.00000           0.138946            3.78092
     61       0.00000           0.145709            3.96495
     62       0.00000           0.147209            4.00575
     63       0.00000           0.155118            4.22097
     64       0.00000           0.168672            4.58979
     65       0.00000           0.173609            4.72413
     66       0.00000           0.187910            5.11330
     67       0.00000           0.189512            5.15688
     68       0.00000           0.198076            5.38992
     69       0.00000           0.207001            5.63278
     70       0.00000           0.213138            5.79978
     71       0.00000           0.241114            6.56104
     72       0.00000           0.247738            6.74129
     73       0.00000           0.253382            6.89489
     74       0.00000           0.265200            7.21647
     75       0.00000           0.281659            7.66433
     76       0.00000           0.285282            7.76291
     77       0.00000           0.303697            8.26401
     78       0.00000           0.311740            8.48286
     79       0.00000           0.314866            8.56794
     80       0.00000           0.321401            8.74576
     81       0.00000           0.331575            9.02261
     82       0.00000           0.342769            9.32723
     83       0.00000           0.355171            9.66469
     84       0.00000           0.362894            9.87484
     85       0.00000           0.367970           10.01298
     86       0.00000           0.374127           10.18051
     87       0.00000           0.381818           10.38980
     88       0.00000           0.387079           10.53297
     89       0.00000           0.398181           10.83506
     90       0.00000           0.409057           11.13101
     91       0.00000           0.411625           11.20088
     92       0.00000           0.419687           11.42027
     93       0.00000           0.437130           11.89492
     94       0.00000           0.458628           12.47989
     95       0.00000           0.470975           12.81589
     96       0.00000           0.477648           12.99746
     97       0.00000           0.479584           13.05014
     98       0.00000           0.490759           13.35423
     99       0.00000           0.494908           13.46714
    100       0.00000           0.518326           14.10437
    101       0.00000           0.523122           14.23486
    102       0.00000           0.532714           14.49588
    103       0.00000           0.554626           15.09213
    104       0.00000           0.563358           15.32975
    105       0.00000           0.600937           16.35232
    106       0.00000           0.624077           16.98200
    107       0.00000           0.624957           17.00596
    108       0.00000           0.658457           17.91752
    109       0.00000           0.672774           18.30710
    110       0.00000           0.686852           18.69020
    111       0.00000           0.708201           19.27113
    112       0.00000           0.714368           19.43893
    113       0.00000           0.723432           19.68557
    114       0.00000           0.747987           20.35376
    115       0.00000           0.752623           20.47991
    116       0.00000           0.775416           21.10014
    117       0.00000           0.798198           21.72006
    118       0.00000           0.799893           21.76619
    119       0.00000           0.815642           22.19475

  Highest occupied state (VBM) at     -9.54748296 eV
  | Occupation number:      2.00000000

  Lowest unoccupied state (CBM) at    -2.41588716 eV
  | Occupation number:      0.00000000

  Overall HOMO-LUMO gap:      7.13159581 eV.

  Total energy components:
  | Sum of eigenvalues            :        -300.64623949 Ha       -8181.00042116 eV
  | XC energy correction          :         -64.19735031 Ha       -1746.89878315 eV
  | XC potential correction       :          82.05997049 Ha        2232.96540895 eV
  | Free-atom electrostatic energy:        -250.25179871 Ha       -6809.69791654 eV
  | Hartree energy correction     :          -3.08920406 Ha         -84.06151940 eV
  | van der Waals energy corr.    :           0.00000000 Ha           0.00000000 eV
  | Entropy correction            :           0.00000000 Ha           0.00000000 eV
  | ---------------------------
  | Total energy                  :        -536.12462208 Ha      -14588.69323131 eV
  | Total energy, T -> 0          :        -536.12462208 Ha      -14588.69323131 eV  <-- do not rely on this value for anything but (periodic) metals
  | Electronic free energy        :        -536.12462208 Ha      -14588.69323131 eV

  Derived energy quantities:
  | Kinetic energy                :         532.92039268 Ha       14501.50171309 eV
  | Electrostatic energy          :       -1004.84766445 Ha      -27343.29616125 eV
  | Energy correction for multipole
  | error in Hartree potential    :           0.00011902 Ha           0.00323858 eV
  | Sum of eigenvalues per atom                           :        -389.57144863 eV
  | Total energy (T->0) per atom                          :        -694.69967768 eV  <-- do not rely on this value for anything but (periodic) metals
  | Electronic free energy per atom                       :        -694.69967768 eV

  Self-consistency convergence accuracy:
  | Change of charge density      : 0.7666E+00
  | Change of sum of eigenvalues  : 0.8651E+02 eV
  | Change of total energy        : 0.5168E+01 eV

  End self-consistency iteration #     1       :  max(cpu_time)    wall_clock(cpu1)
  | Time for this iteration                    :        4.094 s           4.095 s
  | Charge density update                      :        1.335 s           1.335 s
  | Density mixing                             :        0.005 s           0.005 s
  | Hartree multipole update                   :        0.006 s           0.007 s
  | Hartree multipole summation                :        0.626 s           0.626 s
  | Integration                                :        2.000 s           2.000 s
  | Solution of K.-S. eqns.                    :        0.121 s           0.121 s
  | Total energy evaluation                    :        0.000 s           0.001 s
------------------------------------------------------------

------------------------------------------------------------
          Begin self-consistency iteration #    2

  Date     :  20150727, Time     :  121356.924
------------------------------------------------------------
  Evaluating new KS density.
  Integration grid: deviation in total charge (<rho> - N_e) =   5.684342E-14
  Pulay mixing of updated and previous charge densities.

  Evaluating partitioned Hartree potential by multipole expansion.
  | Analytical far-field extrapolation by fixed multipoles:
  | Hartree multipole sum: apparent total charge =  -0.759857E-05
  Summing up the Hartree potential.
  Time summed over all CPUs for potential: real work        4.981 s, elapsed        5.002 s
  | RMS charge density error from multipole expansion :   0.796078E-02

  Integrating Hamiltonian matrix: batch-based integration.
  Time summed over all CPUs for integration: real work       15.770 s, elapsed       15.949 s

  Updating Kohn-Sham eigenvalues, eigenvectors, occupation numbers, and Fermi level.
  Solving generalized eigenproblem
  Updating Kohn-Sham eigenvalues and eigenfunctions.
  Solving real generalised eigenvalue problem by standard LAPACK (fast)
  Determining occupation numbers for Kohn-Sham eigenstates.
  | Chemical potential (Fermi level) in eV                 : -.35533441E+01
  | Error in electron count due to remaining E_F inaccuracy: 0.00000000E+00
  | Maximum occupation number of highest empty state:  0.00E+00

  Highest occupied state (VBM) at     -5.56950021 eV
  | Occupation number:      2.00000000

  Lowest unoccupied state (CBM) at    -1.94045043 eV
  | Occupation number:      0.00000000

  Overall HOMO-LUMO gap:      3.62904978 eV.

  Total energy components:
  | Sum of eigenvalues            :        -292.86984238 Ha       -7969.39388957 eV
  | XC energy correction          :         -65.03043276 Ha       -1769.56810993 eV
  | XC potential correction       :          83.14607892 Ha        2262.51992305 eV
  | Free-atom electrostatic energy:        -250.25179871 Ha       -6809.69791654 eV
  | Hartree energy correction     :         -10.89187613 Ha        -296.38302940 eV
  | van der Waals energy corr.    :           0.00000000 Ha           0.00000000 eV
  | Entropy correction            :           0.00000000 Ha           0.00000000 eV
  | ---------------------------
  | Total energy                  :        -535.89787107 Ha      -14582.52302240 eV
  | Total energy, T -> 0          :        -535.89787107 Ha      -14582.52302240 eV  <-- do not rely on this value for anything but (periodic) metals
  | Electronic free energy        :        -535.89787107 Ha      -14582.52302240 eV

  Derived energy quantities:
  | Kinetic energy                :         536.97298656 Ha       14611.77840336 eV
  | Electrostatic energy          :       -1007.84042487 Ha      -27424.73331583 eV
  | Energy correction for multipole
  | error in Hartree potential    :          -0.00082970 Ha          -0.02257735 eV
  | Sum of eigenvalues per atom                           :        -379.49494712 eV
  | Total energy (T->0) per atom                          :        -694.40585821 eV  <-- do not rely on this value for anything but (periodic) metals
  | Electronic free energy per atom                       :        -694.40585821 eV

  Self-consistency convergence accuracy:
  | Change of charge density      : 0.5817E+00
  | Change of sum of eigenvalues  : 0.2116E+03 eV
  | Change of total energy        : 0.6170E+01 eV

  End self-consistency iteration #     2       :  max(cpu_time)    wall_clock(cpu1)
  | Time for this iteration                    :        4.085 s           4.085 s
  | Charge density update                      :        1.328 s           1.327 s
  | Density mixing                             :        0.007 s           0.008 s
  | Hartree multipole update                   :        0.007 s           0.007 s
  | Hartree multipole summation                :        0.626 s           0.626 s
  | Integration                                :        1.997 s           1.997 s
  | Solution of K.-S. eqns.                    :        0.120 s           0.120 s
  | Total energy evaluation                    :        0.000 s           0.000 s
------------------------------------------------------------

------------------------------------------------------------
          Begin self-consistency iteration #    3

  Date     :  20150727, Time     :  121401.009
------------------------------------------------------------
  Evaluating new KS density.
  Integration grid: deviation in total charge (<rho> - N_e) =   0.000000E+00
  Pulay mixing of updated and previous charge densities.

  Evaluating partitioned Hartree potential by multipole expansion.
  | Analytical far-field extrapolation by fixed multipoles:
  | Hartree multipole sum: apparent total charge =  -0.754667E-05
  Summing up the Hartree potential.
  Time summed over all CPUs for potential: real work        4.980 s, elapsed        5.002 s
  | RMS charge density error from multipole expansion :   0.159723E-01

  Integrating Hamiltonian matrix: batch-based integration.
  Time summed over all CPUs for integration: real work       15.766 s, elapsed       15.942 s

  Updating Kohn-Sham eigenvalues, eigenvectors, occupation numbers, and Fermi level.
  Solving generalized eigenproblem
  Updating Kohn-Sham eigenvalues and eigenfunctions.
  Solving real generalised eigenvalue problem by standard LAPACK (fast)
  Determining occupation numbers for Kohn-Sham eigenstates.
  | Chemical potential (Fermi level) in eV                 : -.33324374E+01
  | Error in electron count due to remaining E_F inaccuracy: 0.00000000E+00
  | Maximum occupation number of highest empty state:  0.00E+00

  Highest occupied state (VBM) at     -5.03143013 eV
  | Occupation number:      2.00000000

  Lowest unoccupied state (CBM) at    -1.89901276 eV
  | Occupation number:      0.00000000

  Overall HOMO-LUMO gap:      3.13241737 eV.

  Total energy components:
  | Sum of eigenvalues            :        -292.86941370 Ha       -7969.38222460 eV
  | XC energy correction          :         -65.02530390 Ha       -1769.42854673 eV
  | XC potential correction       :          83.13078077 Ha        2262.10363921 eV
  | Free-atom electrostatic energy:        -250.25179871 Ha       -6809.69791654 eV
  | Hartree energy correction     :         -10.87324842 Ha        -295.87614356 eV
  | van der Waals energy corr.    :           0.00000000 Ha           0.00000000 eV
  | Entropy correction            :           0.00000000 Ha           0.00000000 eV
  | ---------------------------
  | Total energy                  :        -535.88898397 Ha      -14582.28119223 eV
  | Total energy, T -> 0          :        -535.88898397 Ha      -14582.28119223 eV  <-- do not rely on this value for anything but (periodic) metals
  | Electronic free energy        :        -535.88898397 Ha      -14582.28119223 eV

  Derived energy quantities:
  | Kinetic energy                :         534.27596567 Ha       14538.38873084 eV
  | Electrostatic energy          :       -1005.13964574 Ha      -27351.24137633 eV
  | Energy correction for multipole
  | error in Hartree potential    :          -0.00781511 Ha          -0.21265999 eV
  | Sum of eigenvalues per atom                           :        -379.49439165 eV
  | Total energy (T->0) per atom                          :        -694.39434249 eV  <-- do not rely on this value for anything but (periodic) metals
  | Electronic free energy per atom                       :        -694.39434249 eV

  Self-consistency convergence accuracy:
  | Change of charge density      : 0.2824E+00
  | Change of sum of eigenvalues  : 0.1166E-01 eV
  | Change of total energy        : 0.2418E+00 eV

  End self-consistency iteration #     3       :  max(cpu_time)    wall_clock(cpu1)
  | Time for this iteration                    :        4.099 s           4.100 s
  | Charge density update                      :        1.340 s           1.340 s
  | Density mixing                             :        0.010 s           0.010 s
  | Hartree multipole update                   :        0.007 s           0.007 s
  | Hartree multipole summation                :        0.626 s           0.626 s
  | Integration                                :        1.996 s           1.996 s
  | Solution of K.-S. eqns.                    :        0.120 s           0.120 s
  | Total energy evaluation                    :        0.000 s           0.001 s
------------------------------------------------------------

------------------------------------------------------------
          Begin self-consistency iteration #    4

  Date     :  20150727, Time     :  121405.109
------------------------------------------------------------
  Evaluating new KS density.
  Integration grid: deviation in total charge (<rho> - N_e) =   5.684342E-14
  Pulay mixing of updated and previous charge densities.

  Evaluating partitioned Hartree potential by multipole expansion.
  | Analytical far-field extrapolation by fixed multipoles:
  | Hartree multipole sum: apparent total charge =  -0.880594E-05
  Summing up the Hartree potential.
  Time summed over all CPUs for potential: real work        4.980 s, elapsed        5.001 s
  | RMS charge density error from multipole expansion :   0.204983E-01

  Integrating Hamiltonian matrix: batch-based integration.
  Time summed over all CPUs for integration: real work       15.763 s, elapsed       15.934 s

  Updating Kohn-Sham eigenvalues, eigenvectors, occupation numbers, and Fermi level.
  Solving generalized eigenproblem
  Updating Kohn-Sham eigenvalues and eigenfunctions.
  Solving real generalised eigenvalue problem by standard LAPACK (fast)
  Determining occupation numbers for Kohn-Sham eigenstates.
  | Chemical potential (Fermi level) in eV                 : -.30466732E+01
  | Error in electron count due to remaining E_F inaccuracy: 0.00000000E+00
  | Maximum occupation number of highest empty state:  0.00E+00

  Highest occupied state (VBM) at     -3.74254772 eV
  | Occupation number:      2.00000000

  Lowest unoccupied state (CBM) at    -1.76935519 eV
  | Occupation number:      0.00000000

  Overall HOMO-LUMO gap:      1.97319253 eV.

  Total energy components:
  | Sum of eigenvalues            :        -290.73329916 Ha       -7911.25559050 eV
  | XC energy correction          :         -65.27836738 Ha       -1776.31475420 eV
  | XC potential correction       :          83.45850675 Ha        2271.02151704 eV
  | Free-atom electrostatic energy:        -250.25179871 Ha       -6809.69791654 eV
  | Hartree energy correction     :         -13.07253420 Ha        -355.72175459 eV
  | van der Waals energy corr.    :           0.00000000 Ha           0.00000000 eV
  | Entropy correction            :           0.00000000 Ha           0.00000000 eV
  | ---------------------------
  | Total energy                  :        -535.87749270 Ha      -14581.96849879 eV
  | Total energy, T -> 0          :        -535.87749270 Ha      -14581.96849879 eV  <-- do not rely on this value for anything but (periodic) metals
  | Electronic free energy        :        -535.87749270 Ha      -14581.96849879 eV

  Derived energy quantities:
  | Kinetic energy                :         534.40367058 Ha       14541.86375825 eV
  | Electrostatic energy          :       -1005.00279590 Ha      -27347.51750284 eV
  | Energy correction for multipole
  | error in Hartree potential    :          -0.01072890 Ha          -0.29194827 eV
  | Sum of eigenvalues per atom                           :        -376.72645669 eV
  | Total energy (T->0) per atom                          :        -694.37945232 eV  <-- do not rely on this value for anything but (periodic) metals
  | Electronic free energy per atom                       :        -694.37945232 eV

  Self-consistency convergence accuracy:
  | Change of charge density      : 0.1410E+00
  | Change of sum of eigenvalues  : 0.5813E+02 eV
  | Change of total energy        : 0.3127E+00 eV

  End self-consistency iteration #     4       :  max(cpu_time)    wall_clock(cpu1)
  | Time for this iteration                    :        4.088 s           4.088 s
  | Charge density update                      :        1.328 s           1.327 s
  | Density mixing                             :        0.011 s           0.012 s
  | Hartree multipole update                   :        0.007 s           0.006 s
  | Hartree multipole summation                :        0.626 s           0.626 s
  | Integration                                :        1.995 s           1.995 s
  | Solution of K.-S. eqns.                    :        0.121 s           0.121 s
  | Total energy evaluation                    :        0.000 s           0.000 s
------------------------------------------------------------

------------------------------------------------------------
          Begin self-consistency iteration #    5

  Date     :  20150727, Time     :  121409.197
------------------------------------------------------------
  Evaluating new KS density.
  Integration grid: deviation in total charge (<rho> - N_e) =   2.842171E-14
  Pulay mixing of updated and previous charge densities.

  Evaluating partitioned Hartree potential by multipole expansion.
  | Analytical far-field extrapolation by fixed multipoles:
  | Hartree multipole sum: apparent total charge =  -0.882317E-05
  Summing up the Hartree potential.
  Time summed over all CPUs for potential: real work        4.980 s, elapsed        5.002 s
  | RMS charge density error from multipole expansion :   0.211165E-01

  Integrating Hamiltonian matrix: batch-based integration.
  Time summed over all CPUs for integration: real work       15.766 s, elapsed       15.924 s

  Updating Kohn-Sham eigenvalues, eigenvectors, occupation numbers, and Fermi level.
  Solving generalized eigenproblem
  Updating Kohn-Sham eigenvalues and eigenfunctions.
  Solving real generalised eigenvalue problem by standard LAPACK (fast)
  Determining occupation numbers for Kohn-Sham eigenstates.
  | Chemical potential (Fermi level) in eV                 : -.30300427E+01
  | Error in electron count due to remaining E_F inaccuracy: 0.00000000E+00
  | Maximum occupation number of highest empty state:  0.00E+00

  Highest occupied state (VBM) at     -3.64475555 eV
  | Occupation number:      2.00000000

  Lowest unoccupied state (CBM) at    -1.75207540 eV
  | Occupation number:      0.00000000

  Overall HOMO-LUMO gap:      1.89268015 eV.

  Total energy components:
  | Sum of eigenvalues            :        -290.62567149 Ha       -7908.32689237 eV
  | XC energy correction          :         -65.29806990 Ha       -1776.85088729 eV
  | XC potential correction       :          83.48338481 Ha        2271.69848354 eV
  | Free-atom electrostatic energy:        -250.25179871 Ha       -6809.69791654 eV
  | Hartree energy correction     :         -13.18513914 Ha        -358.78589089 eV
  | van der Waals energy corr.    :           0.00000000 Ha           0.00000000 eV
  | Entropy correction            :           0.00000000 Ha           0.00000000 eV
  | ---------------------------
  | Total energy                  :        -535.87729443 Ha      -14581.96310356 eV
  | Total energy, T -> 0          :        -535.87729443 Ha      -14581.96310356 eV  <-- do not rely on this value for anything but (periodic) metals
  | Electronic free energy        :        -535.87729443 Ha      -14581.96310356 eV

  Derived energy quantities:
  | Kinetic energy                :         534.45627616 Ha       14543.29522906 eV
  | Electrostatic energy          :       -1005.03550069 Ha      -27348.40744533 eV
  | Energy correction for multipole
  | error in Hartree potential    :          -0.01120780 Ha          -0.30497972 eV
  | Sum of eigenvalues per atom                           :        -376.58699487 eV
  | Total energy (T->0) per atom                          :        -694.37919541 eV  <-- do not rely on this value for anything but (periodic) metals
  | Electronic free energy per atom                       :        -694.37919541 eV

  Self-consistency convergence accuracy:
  | Change of charge density      : 0.3121E-01
  | Change of sum of eigenvalues  : 0.2929E+01 eV
  | Change of total energy        : 0.5395E-02 eV

  End self-consistency iteration #     5       :  max(cpu_time)    wall_clock(cpu1)
  | Time for this iteration                    :        4.087 s           4.087 s
  | Charge density update                      :        1.326 s           1.326 s
  | Density mixing                             :        0.014 s           0.014 s
  | Hartree multipole update                   :        0.007 s           0.006 s
  | Hartree multipole summation                :        0.626 s           0.626 s
  | Integration                                :        1.994 s           1.993 s
  | Solution of K.-S. eqns.                    :        0.120 s           0.120 s
  | Total energy evaluation                    :        0.000 s           0.000 s
------------------------------------------------------------

------------------------------------------------------------
          Begin self-consistency iteration #    6

  Date     :  20150727, Time     :  121413.284
------------------------------------------------------------
  Evaluating new KS density.
  Integration grid: deviation in total charge (<rho> - N_e) =   5.684342E-14
  Pulay mixing of updated and previous charge densities.

  Evaluating partitioned Hartree potential by multipole expansion.
  | Analytical far-field extrapolation by fixed multipoles:
  | Hartree multipole sum: apparent total charge =  -0.878979E-05
  Summing up the Hartree potential.
  Time summed over all CPUs for potential: real work        4.980 s, elapsed        5.001 s
  | RMS charge density error from multipole expansion :   0.212531E-01

  Integrating Hamiltonian matrix: batch-based integration.
  Time summed over all CPUs for integration: real work       15.771 s, elapsed       15.933 s

  Updating Kohn-Sham eigenvalues, eigenvectors, occupation numbers, and Fermi level.
  Solving generalized eigenproblem
  Updating Kohn-Sham eigenvalues and eigenfunctions.
  Solving real generalised eigenvalue problem by standard LAPACK (fast)
  Determining occupation numbers for Kohn-Sham eigenstates.
  | Chemical potential (Fermi level) in eV                 : -.30300459E+01
  | Error in electron count due to remaining E_F inaccuracy: 0.00000000E+00
  | Maximum occupation number of highest empty state:  0.00E+00

  Highest occupied state (VBM) at     -3.65561230 eV
  | Occupation number:      2.00000000

  Lowest unoccupied state (CBM) at    -1.75014762 eV
  | Occupation number:      0.00000000

  Overall HOMO-LUMO gap:      1.90546468 eV.

  Total energy components:
  | Sum of eigenvalues            :        -290.63589975 Ha       -7908.60521772 eV
  | XC energy correction          :         -65.29856917 Ha       -1776.86447291 eV
  | XC potential correction       :          83.48380004 Ha        2271.70978250 eV
  | Free-atom electrostatic energy:        -250.25179871 Ha       -6809.69791654 eV
  | Hartree energy correction     :         -13.17482469 Ha        -358.50522037 eV
  | van der Waals energy corr.    :           0.00000000 Ha           0.00000000 eV
  | Entropy correction            :           0.00000000 Ha           0.00000000 eV
  | ---------------------------
  | Total energy                  :        -535.87729228 Ha      -14581.96304504 eV
  | Total energy, T -> 0          :        -535.87729228 Ha      -14581.96304504 eV  <-- do not rely on this value for anything but (periodic) metals
  | Electronic free energy        :        -535.87729228 Ha      -14581.96304504 eV

  Derived energy quantities:
  | Kinetic energy                :         534.45092773 Ha       14543.14969087 eV
  | Electrostatic energy          :       -1005.02965084 Ha      -27348.24826300 eV
  | Energy correction for multipole
  | error in Hartree potential    :          -0.01133411 Ha          -0.30841694 eV
  | Sum of eigenvalues per atom                           :        -376.60024846 eV
  | Total energy (T->0) per atom                          :        -694.37919262 eV  <-- do not rely on this value for anything but (periodic) metals
  | Electronic free energy per atom                       :        -694.37919262 eV

  Self-consistency convergence accuracy:
  | Change of charge density      : 0.1272E-01
  | Change of sum of eigenvalues  : -.2783E+00 eV
  | Change of total energy        : 0.5853E-04 eV

  End self-consistency iteration #     6       :  max(cpu_time)    wall_clock(cpu1)
  | Time for this iteration                    :        4.087 s           4.088 s
  | Charge density update                      :        1.322 s           1.323 s
  | Density mixing                             :        0.016 s           0.015 s
  | Hartree multipole update                   :        0.007 s           0.007 s
  | Hartree multipole summation                :        0.626 s           0.626 s
  | Integration                                :        1.995 s           1.995 s
  | Solution of K.-S. eqns.                    :        0.122 s           0.121 s
  | Total energy evaluation                    :        0.000 s           0.000 s
------------------------------------------------------------

------------------------------------------------------------
          Begin self-consistency iteration #    7

  Date     :  20150727, Time     :  121417.372
------------------------------------------------------------
  Evaluating new KS density.
  Integration grid: deviation in total charge (<rho> - N_e) =   5.684342E-14
  Pulay mixing of updated and previous charge densities.

  Evaluating partitioned Hartree potential by multipole expansion.
  | Analytical far-field extrapolation by fixed multipoles:
  | Hartree multipole sum: apparent total charge =  -0.858904E-05
  Summing up the Hartree potential.
  Time summed over all CPUs for potential: real work        4.980 s, elapsed        5.001 s
  | RMS charge density error from multipole expansion :   0.212820E-01

  Integrating Hamiltonian matrix: batch-based integration.
  Time summed over all CPUs for integration: real work       15.764 s, elapsed       15.934 s

  Updating Kohn-Sham eigenvalues, eigenvectors, occupation numbers, and Fermi level.
  Solving generalized eigenproblem
  Updating Kohn-Sham eigenvalues and eigenfunctions.
  Solving real generalised eigenvalue problem by standard LAPACK (fast)
  Determining occupation numbers for Kohn-Sham eigenstates.
  | Chemical potential (Fermi level) in eV                 : -.19596792E+01
  | Error in electron count due to remaining E_F inaccuracy: 0.00000000E+00
  | Maximum occupation number of highest empty state:  0.00E+00

  Highest occupied state (VBM) at     -3.81295397 eV
  | Occupation number:      2.00000000

  Lowest unoccupied state (CBM) at    -1.75775126 eV
  | Occupation number:      0.00000000

  Overall HOMO-LUMO gap:      2.05520270 eV.

  Total energy components:
  | Sum of eigenvalues            :        -290.81055453 Ha       -7913.35781589 eV
  | XC energy correction          :         -65.28339794 Ha       -1776.45164286 eV
  | XC potential correction       :          83.46334694 Ha        2271.15322516 eV
  | Free-atom electrostatic energy:        -250.25179871 Ha       -6809.69791654 eV
  | Hartree energy correction     :         -12.99479207 Ha        -353.60628355 eV
  | van der Waals energy corr.    :           0.00000000 Ha           0.00000000 eV
  | Entropy correction            :           0.00000000 Ha           0.00000000 eV
  | ---------------------------
  | Total energy                  :        -535.87719631 Ha      -14581.96043367 eV
  | Total energy, T -> 0          :        -535.87719631 Ha      -14581.96043367 eV  <-- do not rely on this value for anything but (periodic) metals
  | Electronic free energy        :        -535.87719631 Ha      -14581.96043367 eV

  Derived energy quantities:
  | Kinetic energy                :         534.51683620 Ha       14544.94315156 eV
  | Electrostatic energy          :       -1005.11063457 Ha      -27350.45194238 eV
  | Energy correction for multipole
  | error in Hartree potential    :          -0.01146110 Ha          -0.31187249 eV
  | Sum of eigenvalues per atom                           :        -376.82656266 eV
  | Total energy (T->0) per atom                          :        -694.37906827 eV  <-- do not rely on this value for anything but (periodic) metals
  | Electronic free energy per atom                       :        -694.37906827 eV

  Self-consistency convergence accuracy:
  | Change of charge density      : 0.1097E-01
  | Change of sum of eigenvalues  : -.4753E+01 eV
  | Change of total energy        : 0.2611E-02 eV

  End self-consistency iteration #     7       :  max(cpu_time)    wall_clock(cpu1)
  | Time for this iteration                    :        4.090 s           4.090 s
  | Charge density update                      :        1.324 s           1.323 s
  | Density mixing                             :        0.017 s           0.018 s
  | Hartree multipole update                   :        0.007 s           0.007 s
  | Hartree multipole summation                :        0.626 s           0.626 s
  | Integration                                :        1.995 s           1.995 s
  | Solution of K.-S. eqns.                    :        0.120 s           0.120 s
  | Total energy evaluation                    :        0.001 s           0.000 s
------------------------------------------------------------

------------------------------------------------------------
          Begin self-consistency iteration #    8

  Date     :  20150727, Time     :  121421.462
------------------------------------------------------------
  Evaluating new KS density.
  Integration grid: deviation in total charge (<rho> - N_e) =   2.842171E-14
  Pulay mixing of updated and previous charge densities.

  Evaluating partitioned Hartree potential by multipole expansion.
  | Analytical far-field extrapolation by fixed multipoles:
  | Hartree multipole sum: apparent total charge =  -0.860212E-05
  Summing up the Hartree potential.
  Time summed over all CPUs for potential: real work        4.981 s, elapsed        5.002 s
  | RMS charge density error from multipole expansion :   0.213727E-01

  Integrating Hamiltonian matrix: batch-based integration.
  Time summed over all CPUs for integration: real work       15.766 s, elapsed       15.934 s

  Updating Kohn-Sham eigenvalues, eigenvectors, occupation numbers, and Fermi level.
  Solving generalized eigenproblem
  Updating Kohn-Sham eigenvalues and eigenfunctions.
  Solving real generalised eigenvalue problem by standard LAPACK (fast)
  Determining occupation numbers for Kohn-Sham eigenstates.
  | Chemical potential (Fermi level) in eV                 : -.32552837E+01
  | Error in electron count due to remaining E_F inaccuracy: 0.00000000E+00
  | Maximum occupation number of highest empty state:  0.00E+00

  Highest occupied state (VBM) at     -3.77555296 eV
  | Occupation number:      2.00000000

  Lowest unoccupied state (CBM) at    -1.75658794 eV
  | Occupation number:      0.00000000

  Overall HOMO-LUMO gap:      2.01896502 eV.

  Total energy components:
  | Sum of eigenvalues            :        -290.77827761 Ha       -7912.47951636 eV
  | XC energy correction          :         -65.28695756 Ha       -1776.54850491 eV
  | XC potential correction       :          83.46792617 Ha        2271.27783234 eV
  | Free-atom electrostatic energy:        -250.25179871 Ha       -6809.69791654 eV
  | Hartree energy correction     :         -13.02808868 Ha        -354.51233028 eV
  | van der Waals energy corr.    :           0.00000000 Ha           0.00000000 eV
[...]
  Timings for vdw_correction_hirshfeld (Tkatchenko-Scheffler 2009):
  | CPU time:       11.143 s, Wall clock time:       11.143 s.
  Removing unitary transformations (pure translations, rotations) from forces on atoms.
  Atomic forces before filtering:
  | Net force on center of mass :  0.932607E-02 0.198057E-02 -.101887E-02 eV/A
  | Net torque on center of mass:  -.200279E-01 0.121864E-01 -.650319E-02 eV
  Atomic forces after filtering:
  | Net force on center of mass :  0.713624E-15 -.356812E-15 0.535218E-15 eV/A
  | Net torque on center of mass:  -.472042E-15 -.302107E-14 0.207699E-14 eV
 
  Energy and forces in a compact form:
  | Total energy uncorrected      :         -0.145820999645746E+05 eV
  | Total energy corrected        :         -0.145820999645746E+05 eV  <-- do not rely on this value for anything but (periodic) metals
  | Electronic free energy        :         -0.145820999645746E+05 eV
  Total atomic forces (unitary forces cleaned) [eV/Ang]:
  |   1         -0.626714272239469E+00          0.235553080227452E+01         -0.875167081506903E+00
  |   2          0.181969291257925E+01         -0.317450044606435E+01          0.129997456502246E+01
  |   3         -0.196063883579528E+01         -0.589165629147317E+00         -0.202977954946269E+00
  |   4         -0.146258022420526E+00          0.721090665585582E+00          0.212018369514667E+01
  |   5         -0.232310884812711E+00         -0.282006861880234E+00         -0.158035178388086E+00
  |   6         -0.284954350522325E+00          0.334265126176377E+00         -0.237617597856823E+01
  |   7          0.317170122910614E+01         -0.344475533638294E-01          0.108694870238328E+01
  |   8         -0.282410928977091E+00         -0.535232245896373E+00         -0.789718382261516E+00
  |   9         -0.160097963510166E+01          0.960192578485941E+00         -0.354077332643142E+00
  |  10         -0.331588103670858E+00          0.720686130048946E+00          0.221620297757010E+01
  |  11         -0.318278695458063E+00          0.171926902927180E+00         -0.224009825772915E+01
  |  12          0.863416117674499E+00         -0.115411919325728E+01          0.267687707946491E+00
  |  13          0.173016036947159E+01          0.111199667590834E+01         -0.234668507056655E+01
  |  14         -0.325782385894803E+00         -0.225962117895549E+00          0.255221942899025E+00
  |  15         -0.131030332641807E+01         -0.781727360292116E+00          0.212654404304779E+01
  |  16          0.778023602142449E+00          0.197501576900707E+01         -0.828801570672364E+00
  |  17          0.177909406933554E+00         -0.485773891319600E+00          0.285600375842558E+00
  |  18         -0.787300912572465E+00         -0.136161249048436E+01          0.617257230407466E+00
  |  19          0.695946230484929E+00          0.514564000310218E+00         -0.140069340667656E+01
  |  20         -0.369611068712800E+00          0.501671930424910E+00          0.412498391561515E+00
  |  21         -0.659718445796290E+00         -0.742392791548077E+00          0.884310582131424E+00
 
  ------------------------------------ 
  Start decomposition of the XC Energy 
  ------------------------------------ 
  Hartree-Fock part   :          0.000000000 Ha              0.000000000 eV
  ------------------------------------ 
  X Energy            :        -62.978727524 Ha          -1713.738369982 eV
  C Energy GGA        :         -2.307441771 Ha            -62.788685230 eV
  Total XC Energy     :        -65.286169295 Ha          -1776.527055212 eV
  LDA X and C from self-consistent density 
  X Energy LDA        :        -56.798115630 Ha          -1545.555363284 eV
  C Energy LDA        :         -4.627021915 Ha           -125.907672421 eV
  ------------------------------------ 
  End decomposition of the XC Energy 
  ------------------------------------ 
  Performing Hirshfeld analysis of fragment charges and moments.
  ----------------------------------------------------------------------
  | Atom     1: O
  |   Hirshfeld charge        :     -0.43718528
  |   Free atom volume        :     23.95238533
  |   Hirshfeld volume        :     25.55247364
  |   Hirshfeld dipole vector :      0.04023571       0.08374683      -0.01716344
  |   Hirshfeld dipole moment :      0.09448294
  |   Hirshfeld second moments:     -0.02955348      -0.02964193       0.02819677
  |                                 -0.02964193      -0.09630041      -0.02129645
  |                                  0.02819677      -0.02129645      -0.13815953
  ----------------------------------------------------------------------
  | Atom     2: H
  |   Hirshfeld charge        :      0.05269117
  |   Free atom volume        :     10.44207651
  |   Hirshfeld volume        :      9.03206931
  |   Hirshfeld dipole vector :     -0.01924617       0.04536056      -0.01682694
  |   Hirshfeld dipole moment :      0.05206862
  |   Hirshfeld second moments:      0.05973306       0.02556207       0.00219026
  |                                  0.02556207       0.01262610       0.01384524
  |                                  0.00219026       0.01384524       0.04834549
  ----------------------------------------------------------------------
  | Atom     3: H
  |   Hirshfeld charge        :      0.03705403
  |   Free atom volume        :     10.44207651
  |   Hirshfeld volume        :      9.23072645
  |   Hirshfeld dipole vector :      0.05073579       0.01778136       0.00793120
  |   Hirshfeld dipole moment :      0.05434336
  |   Hirshfeld second moments:      0.01098569      -0.03158900       0.00579639
  |                                 -0.03158900       0.05487250      -0.00483639
  |                                  0.00579639      -0.00483639       0.03903456
  ----------------------------------------------------------------------
  | Atom     4: O
  |   Hirshfeld charge        :     -0.20132999
  |   Free atom volume        :     23.95238533
  |   Hirshfeld volume        :     20.55511120
  |   Hirshfeld dipole vector :      0.03298308      -0.01293169      -0.01460613
  |   Hirshfeld dipole moment :      0.03832038
  |   Hirshfeld second moments:      0.03424493       0.01264482       0.02628288
  |                                  0.01264482       0.07290705       0.00658202
  |                                  0.02628288       0.00658202       0.09822467
  ----------------------------------------------------------------------
  | Atom     5: H
  |   Hirshfeld charge        :      0.11540331
  |   Free atom volume        :     10.44207651
  |   Hirshfeld volume        :      7.33825112
  |   Hirshfeld dipole vector :      0.02955888       0.03968393       0.01057979
  |   Hirshfeld dipole moment :      0.05060112
  |   Hirshfeld second moments:      0.08121751      -0.02028906      -0.00706727
  |                                 -0.02028906       0.07084391      -0.02611622
  |                                 -0.00706727      -0.02611622       0.10317598
  ----------------------------------------------------------------------
  | Atom     6: H
  |   Hirshfeld charge        :      0.15854744
  |   Free atom volume        :     10.44207651
  |   Hirshfeld volume        :      6.04878395
  |   Hirshfeld dipole vector :     -0.01680304       0.00778189      -0.11879938
  |   Hirshfeld dipole moment :      0.12023391
  |   Hirshfeld second moments:      0.11743575       0.00932407       0.00811171
  |                                  0.00932407       0.13093336       0.00290381
  |                                  0.00811171       0.00290381       0.12208534
  ----------------------------------------------------------------------
  | Atom     7: O
  |   Hirshfeld charge        :     -0.21524053
  |   Free atom volume        :     23.95238533
  |   Hirshfeld volume        :     21.20572008
  |   Hirshfeld dipole vector :     -0.02336919      -0.02960839       0.03463138
  |   Hirshfeld dipole moment :      0.05120652
  |   Hirshfeld second moments:      0.06047567      -0.02869364       0.00862445
  |                                 -0.02869364       0.05799364       0.03048969
  |                                  0.00862445       0.03048969       0.02295619
  ----------------------------------------------------------------------
  | Atom     8: H
  |   Hirshfeld charge        :      0.10552892
  |   Free atom volume        :     10.44207651
  |   Hirshfeld volume        :      7.51579677
  |   Hirshfeld dipole vector :      0.00891061       0.02288307       0.04814848
  |   Hirshfeld dipole moment :      0.05404915
  |   Hirshfeld second moments:      0.10496175      -0.00296332       0.01067012
  |                                 -0.00296332       0.07305317      -0.02550610
  |                                  0.01067012      -0.02550610       0.06001214
  ----------------------------------------------------------------------
  | Atom     9: H
  |   Hirshfeld charge        :      0.15360499
  |   Free atom volume        :     10.44207651
  |   Hirshfeld volume        :      6.20312830
  |   Hirshfeld dipole vector :      0.08758835      -0.07839442       0.01437291
  |   Hirshfeld dipole moment :      0.11842290
  |   Hirshfeld second moments:      0.11583968       0.00030584       0.00078503
  |                                  0.00030584       0.11830527       0.01419830
  |                                  0.00078503       0.01419830       0.11943187
  ----------------------------------------------------------------------
  | Atom    10: O
  |   Hirshfeld charge        :     -0.25429452
  |   Free atom volume        :     23.95238533
  |   Hirshfeld volume        :     21.42867519
  |   Hirshfeld dipole vector :      0.00205415       0.02977399       0.00329308
  |   Hirshfeld dipole moment :      0.03002590
  |   Hirshfeld second moments:      0.03445031      -0.02471943       0.00175726
  |                                 -0.02471943      -0.00232960      -0.02387953
  |                                  0.00175726      -0.02387953       0.07209054
  ----------------------------------------------------------------------
  | Atom    11: H
  |   Hirshfeld charge        :      0.14568401
  |   Free atom volume        :     10.44207651
  |   Hirshfeld volume        :      6.17537222
  |   Hirshfeld dipole vector :      0.01711608      -0.01315470       0.11771617
  |   Hirshfeld dipole moment :      0.11967916
  |   Hirshfeld second moments:      0.12247578      -0.01197226      -0.00267788
  |                                 -0.01197226       0.11248688      -0.00610799
  |                                 -0.00267788      -0.00610799       0.11273799
  ----------------------------------------------------------------------
  | Atom    12: H
  |   Hirshfeld charge        :      0.09222068
  |   Free atom volume        :     10.44207651
  |   Hirshfeld volume        :      7.70143582
  |   Hirshfeld dipole vector :     -0.02727172       0.02704759       0.00343400
  |   Hirshfeld dipole moment :      0.03856308
  |   Hirshfeld second moments:      0.06033306       0.02260444      -0.01903084
  |                                  0.02260444       0.05166037       0.01009033
  |                                 -0.01903084       0.01009033       0.10365382
  ----------------------------------------------------------------------
  | Atom    13: O
  |   Hirshfeld charge        :     -0.20756307
  |   Free atom volume        :     23.95238533
  |   Hirshfeld volume        :     20.02421874
  |   Hirshfeld dipole vector :     -0.00565101      -0.00875888       0.00867835
  |   Hirshfeld dipole moment :      0.01356339
  |   Hirshfeld second moments:      0.09486947       0.02327060       0.00666239
  |                                  0.02327060       0.07334594       0.00371758
  |                                  0.00666239       0.00371758       0.07247147
  ----------------------------------------------------------------------
  | Atom    14: H
  |   Hirshfeld charge        :      0.16725396
  |   Free atom volume        :     10.44207651
  |   Hirshfeld volume        :      5.68766821
  |   Hirshfeld dipole vector :      0.09574852       0.06244830       0.03382644
  |   Hirshfeld dipole moment :      0.11921324
  |   Hirshfeld second moments:      0.12924529       0.00278585      -0.00490321
  |                                  0.00278585       0.12703638      -0.00435498
  |                                 -0.00490321      -0.00435498       0.13492723
  ----------------------------------------------------------------------
  | Atom    15: H
  |   Hirshfeld charge        :      0.10680518
  |   Free atom volume        :     10.44207651
  |   Hirshfeld volume        :      7.44974080
  |   Hirshfeld dipole vector :     -0.01601724      -0.01394392       0.02474919
  |   Hirshfeld dipole moment :      0.03261146
  |   Hirshfeld second moments:      0.07739487      -0.01035938       0.03594749
  |                                 -0.01035938       0.08982426       0.01387579
  |                                  0.03594749       0.01387579       0.07448181
  ----------------------------------------------------------------------
  | Atom    16: O
  |   Hirshfeld charge        :     -0.18623208
  |   Free atom volume        :     23.95238533
  |   Hirshfeld volume        :     19.93057911
  |   Hirshfeld dipole vector :      0.00257718      -0.01626654      -0.00119142
  |   Hirshfeld dipole moment :      0.01651247
  |   Hirshfeld second moments:      0.07770126       0.00156521       0.00042051
  |                                  0.00156521       0.10131336      -0.02352209
  |                                  0.00042051      -0.02352209       0.06816602
  ----------------------------------------------------------------------
  | Atom    17: H
  |   Hirshfeld charge        :      0.12616631
  |   Free atom volume        :     10.44207651
  |   Hirshfeld volume        :      7.05757040
  |   Hirshfeld dipole vector :      0.04732656      -0.01877676       0.00528950
  |   Hirshfeld dipole moment :      0.05118934
  |   Hirshfeld second moments:      0.07943293       0.02904844      -0.02296256
  |                                  0.02904844       0.10465602       0.00657876
  |                                 -0.02296256       0.00657876       0.09340410
  ----------------------------------------------------------------------
  | Atom    18: H
  |   Hirshfeld charge        :      0.17311343
  |   Free atom volume        :     10.44207651
  |   Hirshfeld volume        :      5.52649970
  |   Hirshfeld dipole vector :      0.03462433       0.10034491      -0.05330847
  |   Hirshfeld dipole moment :      0.11878442
  |   Hirshfeld second moments:      0.14162135      -0.00545628       0.00428518
  |                                 -0.00545628       0.13019091      -0.00091100
  |                                  0.00428518      -0.00091100       0.12940380
  ----------------------------------------------------------------------
  | Atom    19: O
  |   Hirshfeld charge        :     -0.21346476
  |   Free atom volume        :     23.95238533
  |   Hirshfeld volume        :     20.54616443
  |   Hirshfeld dipole vector :      0.01908476       0.01081269       0.00937217
  |   Hirshfeld dipole moment :      0.02385330
  |   Hirshfeld second moments:      0.04878615      -0.02747324      -0.03345668
  |                                 -0.02747324       0.06502608      -0.00250104
  |                                 -0.03345668      -0.00250104       0.07677487
  ----------------------------------------------------------------------
  | Atom    20: H
  |   Hirshfeld charge        :      0.15894602
  |   Free atom volume        :     10.44207651
  |   Hirshfeld volume        :      5.77106889
  |   Hirshfeld dipole vector :     -0.06146985       0.08229936       0.06513046
  |   Hirshfeld dipole moment :      0.12162937
  |   Hirshfeld second moments:      0.12296035      -0.00147086      -0.00828561
  |                                 -0.00147086       0.12619632      -0.01126033
  |                                 -0.00828561      -0.01126033       0.13273324
  ----------------------------------------------------------------------
  | Atom    21: H
  |   Hirshfeld charge        :      0.12224495
  |   Free atom volume        :     10.44207651
  |   Hirshfeld volume        :      7.21883727
  |   Hirshfeld dipole vector :      0.01778774       0.03675582      -0.03701868
  |   Hirshfeld dipole moment :      0.05511603
  |   Hirshfeld second moments:      0.08292995      -0.01888441       0.02055515
  |                                 -0.01888441       0.11165445       0.01266166
  |                                  0.02055515       0.01266166       0.06721751
  ----------------------------------------------------------------------


------------------------------------------------------------------------------
  Final output of selected total energy values:

  The following output summarizes some interesting total energy values
  at the end of a run (AFTER all relaxation, molecular dynamics, etc.).

  | Total energy of the DFT / Hartree-Fock s.c.f. calculation      :         -14582.099964575 eV
  | Final zero-broadening corrected energy (caution - metals only) :         -14582.099964575 eV
  | For reference only, the value of 1 Hartree used in FHI-aims is :             27.211384500 eV

  Before relying on these values, please be sure to understand exactly which
  total energy value is referred to by a given number. Different objects may
  all carry the same name 'total energy'. Definitions:

  Total energy of the DFT / Hartree-Fock s.c.f. calculation:
  | Note that this energy does not include ANY quantities calculated after the
  | s.c.f. cycle, in particular not ANY RPA, MP2, etc. many-body perturbation terms.

  Final zero-broadening corrected energy:
  | For metallic systems only, a broadening of the occupation numbers at the Fermi
  | level can be extrapolated back to zero broadening by an electron-gas inspired
  | formula. For all systems that are not real metals, this value can be
  | meaningless and should be avoided.

------------------------------------------------------------------------------

------------------------------------------------------------
          Leaving FHI-aims.
          Date     :  20150727, Time     :  121506.701

          Computational steps:
          | Number of self-consistency cycles          :           16

          Detailed time accounting                     :  max(cpu_time)    wall_clock(cpu1)
          | Total time                                 :       78.510 s          78.548 s
          | Preparation time                           :        0.174 s           0.481 s
          | Grid partitioning                          :        0.209 s           0.208 s
          | Preloading free-atom quantities on grid    :        0.013 s           0.013 s
          | Free-atom superposition energy             :        0.118 s           0.118 s
          | Total time for integrations                :       35.066 s          35.068 s
          | Total time for solution of K.-S. equations :        2.390 s           2.388 s
          | Total time for density & force components  :       27.230 s          27.228 s
          | Total time for mixing                      :        0.294 s           0.297 s
          | Total time for Hartree multipole update    :        0.109 s           0.107 s
          | Total time for Hartree multipole sum       :       12.106 s          12.107 s
          | Total time for total energy evaluation     :        0.002 s           0.005 s
          | Total time for scaled ZORA corrections     :        0.000 s           0.000 s
          | Total time for TS (2009) vdW correction    :        0.097 s           0.097 s

          Have a nice day.
------------------------------------------------------------
