  MPI-parallelism will be employed.
------------------------------------------------------------
          Invoking FHI-aims ...
          Version 081213
          Compiled on 2013/08/29 at 17:41:06 on host generoso.

          When using FHI-aims, please cite the following reference:

          Volker Blum, Ralf Gehrke, Felix Hanke, Paula Havu,
          Ville Havu, Xinguo Ren, Karsten Reuter, and Matthias Scheffler,
          'Ab Initio Molecular Simulations with Numeric Atom-Centered Orbitals: FHI-aims',
          Computer Physics Communications 180, 2175-2196 (2009)

          For any questions about FHI-aims, please visit the aimsclub website
          with its forums and wiki. Contributions to both the forums and the
          wiki are warmly encouraged - they are for you, and everyone is welcome there.

------------------------------------------------------------

  Date     :  20150727, Time     :  122823.873
  Time zero on CPU 1             :   0.389930000000000E-01  s.
  Internal wall clock time zero  :           207232103.873  s.

  Using        8 parallel tasks.
  Task        0 on host gen60 reporting.
  Task        1 on host gen60 reporting.
  Task        2 on host gen60 reporting.
  Task        3 on host gen60 reporting.
  Task        4 on host gen60 reporting.
  Task        5 on host gen60 reporting.
  Task        6 on host gen60 reporting.
  Task        7 on host gen60 reporting.

  Performing system and environment tests:
  | Environment variable OMP_NUM_THREADS correctly set to 1.
  | Checking for scalapack...
  | No scalapack compiled in.

  Obtaining array dimensions for all initial allocations:
  
  -----------------------------------------------------------------------
  Parsing control.in (first pass over file, find array dimensions only).
  The contents of control.in will be repeated verbatim below
  unless switched off by setting 'verbatim_writeout .false.' .
  in the first line of control.in .
  -----------------------------------------------------------------------
  
  #########################################################################################
  #
  #  Volker Blum, FHI 2008 : Test run input file control.in
  #
  #########################################################################################
  #
  #  Physical model
  #
    xc                 rpbe
    spin               none
    relativistic       atomic_zora scalar
    charge             0.
   vdw_correction_hirshfeld
  #
  #  SCF convergence
  #
    occupation_type    gaussian 0.01
    mixer              pulay
      n_max_pulay        10
      charge_mix_param   0.1
    sc_accuracy_rho    5E-5
    sc_accuracy_eev    5E-3
    sc_accuracy_etot   5E-6
    sc_iter_limit      3000
  #
  #  Eigenvalue solver
  #
    KS_method          lapack
      empty_states       8
      basis_threshold    0.e-5
  #
  #  Efficiency
  #
  #   all previous settings are now default, except stratmann still
  #   undecided. Continue to handle stratmann with care, if at all.
  #
  #  partition_type stratmann
    partition_type rho_r2
  #  hartree_partition_type stratmann
  #
  #  Oprions for large clusters (100's of atoms: memory saving / better scaling)
  #
  # for periodic systems:
  #
    density_update_method orbital
    packed_matrix_format none
  #  k_grid 6 6 6
  #  output k_eigenvalue 1
  #  distributed_spline_storage .true.
  #
  #  Relaxation
  #
  #  relax_geometry   bfgs 5.e-3
    sc_accuracy_forces 5.E-4
    final_forces_cleaned .true.
  #
  #  Output options
  #
  #  output mulliken
    output Hirshfeld
  #  output dipole
  
  #harmonic_length_scale 0.001
  
  ################################################################################
  #
  #  FHI-aims code project
  #  VB, Fritz-Haber Institut, 2007
  #
  #  Suggested "safe" defaults for H atom (to be pasted into control.in file)
  #  Basis constructed for a non-relativistic H2 molecule using the
  #  PW-LDA functional.
  #
  ################################################################################
    species        H
  #     global species definitions
      nucleus             1
      cut_pot             4.0  2.0  1.0
      cut_free_atom       finite 8.0
      logarithmic         0.00010000 100.00  1.0123
      basis_dep_cutoff    1d-4  # 1d-4 is safe default - please check 5d-4 if you wish!
      radial_base         24 7.0
      radial_multiplier   2
      angular_grids       specified
        division   0.2783  110
        division   0.3822  194
        division   0.5626  302
  #      division   0.5922  434
  #      division   0.6227  590
  #      division   0.7206  770
        outer_grid  302
      l_hartree           4
  ################################################################################
  #
  #  Definition of "minimal" basis
  #
  ################################################################################
  #     valence basis states
      valence      1  s   1.
  #     ion occupancy
      ion_occ      1  s   0.5
  ################################################################################
  #
  #  Suggested additional basis functions. For production calculations,
  #  uncomment them one after another (the most important basis functions are
  #  listed first).
  #
  ################################################################################
  #  "First tier" - improvements: -1014.90 meV to -62.69 meV
       hydro 2 s 2.1
       hydro 2 p 3.5
  #  "Second tier" - improvements: -12.89 meV to -1.83 meV
       hydro 1 s 0.85
       hydro 2 p 3.7
       hydro 2 s 1.2
       hydro 3 d 7
  #  "Third tier" - improvements: -0.25 meV to -0.12 meV
  #     hydro 4 f 11.2
  #     hydro 3 p 4.8
  #     hydro 4 d 9
  #     hydro 3 s 3.2
  
  ################################################################################
  #
  #  FHI-aims code project
  #  VB, Fritz-Haber Institut, 2007
  #
  #  Suggested "safe" defaults for O atom (to be pasted into control.in file)
  #  All values have been tested for a non-relativistic, non-spinpolarized O2
  #  molecule using the PW-LDA functional. Validity for PBE is expected.
  #
  #  Constructed for dimers: 1.0 A, 1.208 A, 1.5 A, 2.0 A, 3.0 A
  #
  ################################################################################
    species        O
  #     global species definitions
      nucleus             8
      mass                15.9994
      l_hartree           4
      cut_pot             4.0  2.0  1.0
      cut_free_atom       finite 8.0
      basis_dep_cutoff    1d-4  # 1d-4 is safe default - please check 5d-4 if you wish!
      logarithmic         0.00010000 100.00  1.0123
      radial_base         36 7.0
      radial_multiplier   2
       angular_grids specified
        division   0.4087  110
        division   0.5181  194
        division   0.6184  302
  #      division   0.7315  434
  #      division   0.7934  590
  #      division   0.9656  770
  #      division   1.4041  974
  #      outer_grid 974
        outer_grid 302
  ################################################################################
  #
  #  Definition of "minimal" basis
  #
  ################################################################################
  #     valence basis states
      valence      2  s   2.
      valence      2  p   4.
  #     ion occupancy
      ion_occ      2  s   1.
      ion_occ      2  p   3.
  ################################################################################
  #
  #  Suggested additional basis functions. For production calculations,
  #  uncomment them one after another (the most important basis functions are
  #  listed first).
  #
  ################################################################################
  #  "First tier" - improvements: -699.05 meV to -159.38 meV
       hydro 2 p 1.8
       hydro 3 d 7.6
       hydro 3 s 6.4
  #  "Second tier" - improvements: -49.91 meV to -5.39 meV
       hydro 4 f 11.6
       hydro 3 p 6.2
       hydro 3 d 5.6
       hydro 5 g 17.6
       hydro 1 s 0.75
  #  "Third tier" - improvements: -2.83 meV to -0.50 meV
  #     ionic 2 p auto
  #     hydro 4 f 10.8
  #     hydro 4 d 4.7
  #     hydro 2 s 6.8
  #  "Fourth tier" - improvements: -0.40 meV to -0.12 meV
  #     hydro 3 p 5
  #     hydro 3 s 3.3
  #     hydro 5 g 15.6
  #     hydro 4 f 17.6
  #     hydro 4 d 14
  # Further basis functions - -0.08 meV and below
  #     hydro 3 s 2.1
  #     hydro 4 d 11.6
  #     hydro 3 p 16
  #     hydro 2 s 17.2
  
  
  -----------------------------------------------------------------------
  Completed first pass over input file control.in .
  -----------------------------------------------------------------------
  
  
  -----------------------------------------------------------------------
  Parsing geometry.in (first pass over file, find array dimensions only).
  The contents of geometry.in will be repeated verbatim below
  unless switched off by setting 'verbatim_writeout .false.' .
  in the first line of geometry.in .
  -----------------------------------------------------------------------
  
  atom      -4.053030000      0.065001000     -1.525160000  O
  atom      -4.566710000      0.974813000     -1.912820000  H
  atom      -3.067820000      0.330172000     -1.477310000  H
  atom      -5.293160000      2.192130000     -2.328800000  O
  atom      -4.829300000      2.988660000     -1.973850000  H
  atom      -5.428570000      2.328640000     -3.235170000  H
  atom      -3.818880000      2.024990000      2.187990000  O
  atom      -3.690880000      1.961360000      3.202150000  H
  atom      -4.546490000      2.751300000      2.045370000  H
  
  -----------------------------------------------------------------------
  Completed first pass over input file geometry.in .
  -----------------------------------------------------------------------
  
 
  Basic array size parameters: 
  | Number of species                 :        2
  | Number of atoms                   :        9
  | Max. basis fn. angular momentum   :        4
  | Max. atomic/ionic basis occupied n:        2
  | Max. number of basis fn. types    :        2
  | Max. radial fns per species/type  :        8
  | Max. logarithmic grid size        :     1301
  | Max. radial integration grid size :       73
  | Max. angular integration grid size:      302
  | Max. angular grid division number :        8
  | Radial grid for Hartree potential :     1301
  | Number of spin channels           :        1

------------------------------------------------------------
          Reading file control.in.
------------------------------------------------------------
  XC: Using RPBE gradient-corrected functionals.
  Spin treatment: No spin polarisation.
  Scalar relativistic treatment of kinetic energy: on-site free-atom approximation to ZORA.
  Charge =   0.000000E+00: Neutral system requested explicitly.
  Using non-empirical van der Waals correction (Hirshfeld partitioning):
  Occupation type: Gaussian broadening, width =   0.100000E-01 eV.
  Using pulay charge density mixing.
  Pulay mixing - number of memorized iterations:   10
  Charge density mixing - mixing parameter:     0.1000
  Convergence accuracy of self-consistent charge density: 0.5000E-04
  Convergence accuracy of sum of eigenvalues: 0.5000E-02
  Convergence accuracy of total energy: 0.5000E-05
  Maximum number of s.-c. iterations  :  3000
  Kohn-Sham eigenvalues and eigenfunctions calculated by lapack diagonalisation (D&C).
  Number of empty states per atom:        8
  Threshold for basis singularities: 0.0000E+00
  Partition function in integrals calculations: rho / r^2
 Using packed matrix format           0
  Convergence accuracy of forces: 0.5000E-03
  Cleaning forces before final output.
  Hirshfeld charge analysis will be performed.
 
  Reading configuration options for species H                   .
  | Found nuclear charge :   1.0000
  | Found cutoff potl. onset [A], width [A], scale factor :    4.00000    2.00000    1.00000
  | Found cutoff specification for free atom: Cutoff potential begins at    8.00000 A.
  | Found logarithmic grid data [bohr] : 0.1000E-03 0.1000E+03 0.1012E+01
  | Threshold for basis-dependent cutoff potential is   0.100000E-03
  | Found data for basic radial integration grid :    24 points, outermost radius =    7.000 A
  | Found multiplier for basic radial grid :   2
  | Found angular grid specification: user-specified.
  | Specified grid contains     4 separate shells.
  | Check grid settings after all constraints further below.
  | Found l_max for Hartree potential  :   4
  | Found free-atom valence shell :  1 s   1.000
  | No ionic wave fns used. Skipping ion_occ.
  | Found hydrogenic basis function :  2 s   2.100
  | Found hydrogenic basis function :  2 p   3.500
  | Found hydrogenic basis function :  1 s   0.850
  | Found hydrogenic basis function :  2 p   3.700
  | Found hydrogenic basis function :  2 s   1.200
  | Found hydrogenic basis function :  3 d   7.000
  Species H                   : Missing cutoff potential type.
  Defaulting to exp(1/x)/(1-x)^2 type cutoff potential.
  Species H : On-site basis accuracy parameter (for Gram-Schmidt orthonormalisation) not specified.
  Using default value basis_acc =  0.1000000E-03.
  Species H                   : Using default innermost maximum threshold i_radial=  2 for radial functions.
  Species H                   : Basic radial grid will be enhanced according to radial_multiplier =   2, to contain    49 grid points.
 
  Reading configuration options for species O                   .
  | Found nuclear charge :   8.0000
  | Found atomic mass :    15.9994000000000      amu
  | Found l_max for Hartree potential  :   4
  | Found cutoff potl. onset [A], width [A], scale factor :    4.00000    2.00000    1.00000
  | Found cutoff specification for free atom: Cutoff potential begins at    8.00000 A.
  | Threshold for basis-dependent cutoff potential is   0.100000E-03
  | Found logarithmic grid data [bohr] : 0.1000E-03 0.1000E+03 0.1012E+01
  | Found data for basic radial integration grid :    36 points, outermost radius =    7.000 A
  | Found multiplier for basic radial grid :   2
  | Found angular grid specification: user-specified.
  | Specified grid contains     4 separate shells.
  | Check grid settings after all constraints further below.
  | Found free-atom valence shell :  2 s   2.000
  | Found free-atom valence shell :  2 p   4.000
  | No ionic wave fns used. Skipping ion_occ.
  | No ionic wave fns used. Skipping ion_occ.
  | Found hydrogenic basis function :  2 p   1.800
  | Found hydrogenic basis function :  3 d   7.600
  | Found hydrogenic basis function :  3 s   6.400
  | Found hydrogenic basis function :  4 f  11.600
  | Found hydrogenic basis function :  3 p   6.200
  | Found hydrogenic basis function :  3 d   5.600
  | Found hydrogenic basis function :  5 g  17.600
  | Found hydrogenic basis function :  1 s   0.750
  Species O                   : Missing cutoff potential type.
  Defaulting to exp(1/x)/(1-x)^2 type cutoff potential.
  Species O : On-site basis accuracy parameter (for Gram-Schmidt orthonormalisation) not specified.
  Using default value basis_acc =  0.1000000E-03.
  Species O                   : Using default innermost maximum threshold i_radial=  2 for radial functions.
  Species O                   : Basic radial grid will be enhanced according to radial_multiplier =   2, to contain    73 grid points.
 
  Finished reading input file 'control.in'. Consistency checks are next.
 
  Target number of points in a grid batch is not set. Defaulting to  100
  Method for grid partitioning is not set. Defaulting to parallel hash+maxmin partitioning.
  Batch size limit is not set. Defaulting to    200
  By default, will store active basis functions for each batch.
  If in need of memory, prune_basis_once .false. can be used to disable this option.
  communication_type for Hartree potential was not specified.
  Defaulting to calc_hartree .
  Pulay mixer: Number of initial linear mixing iterations not set.
  Defaulting to    0 iterations.
  Work space size for distributed Hartree potential not set.
  Defaulting to   0.200000E+03 MB.
  Algorithm-dependent basis array size parameters:
  | n_max_pulay                         :       10
  Geometry relaxation not requested: no relaxation will be performed.
  Handling of forces: Unphysical translation and rotation will be removed from forces.
  No accuracy limit for integral partition fn. given. Defaulting to 0.1000E-14.
  No threshold value for u(r) in integrations given. Defaulting to 0.1000E-05.
  No accuracy for occupation numbers given. Defaulting to 0.1000E-07.
  No threshold value for occupation numbers given. Defaulting to 0.0000E+00.
  No accuracy for fermi level given. Defaulting to 0.1000E-19.
  Maximum # of iterations to find E_F not set. Defaulting to  200.
  Will not use alltoall communication since running on < 1024 CPUs.
  Partitioning for Hartree potential was not defined. Using partition_type for integrals.
  | Reporting present value of keyword multip_moments_threshold  :       0.10000000E-09
  | This value may affect high angular momentum components of the Hartree potential in periodic systems.
  No q(lm)/r^(l+1) cutoff set for long-range Hartree potential.
  | Using default value of  0.100000E-09 .
  | Verify using the multipole_threshold keyword.
  Defaulting to new monopole extrapolation.
  Density update method: Loop over occupied states selected for charge density update.
------------------------------------------------------------


------------------------------------------------------------
          Reading geometry description geometry.in.
------------------------------------------------------------
  Input structure read successfully.
  The structure contains        9 atoms,  and a total of         30.000 electrons.

  Input geometry:
  | No unit cell requested.
  | Atomic structure:
  |       Atom                x [A]            y [A]            z [A]
  |    1: Species O             -4.053030         0.065001        -1.525160
  |    2: Species H             -4.566710         0.974813        -1.912820
  |    3: Species H             -3.067820         0.330172        -1.477310
  |    4: Species O             -5.293160         2.192130        -2.328800
  |    5: Species H             -4.829300         2.988660        -1.973850
  |    6: Species H             -5.428570         2.328640        -3.235170
  |    7: Species O             -3.818880         2.024990         2.187990
  |    8: Species H             -3.690880         1.961360         3.202150
  |    9: Species H             -4.546490         2.751300         2.045370
  |

  | The smallest distance between any two atoms is         0.92654057 AA.
  |
  | The first atom of this pair is atom number                      4 .
  | The second atom of this pair is atom number                     6 .

  Structure-dependent array size parameters: 
  | Maximum number of distinct radial functions  :       18
  | Maximum number of basis functions            :      207
  | Number of Kohn-Sham states (occupied + empty):       51
------------------------------------------------------------

------------------------------------------------------------
          Preparing all fixed parts of the calculation.
------------------------------------------------------------
  Determining machine precision:
    2.225073858507201E-308
  Setting up grids for atomic and cluster calculations.

  Creating wave function, potential, and density for free atoms.

  Species: H

  List of occupied orbitals and eigenvalues:
    n    l              occ      energy [Ha]    energy [eV]
    1    0           1.0000        -0.241408        -6.5691


  Species: O

  List of occupied orbitals and eigenvalues:
    n    l              occ      energy [Ha]    energy [eV]
    1    0           2.0000       -18.944147      -515.4965
    2    0           2.0000        -0.883529       -24.0421
    2    1           4.0000        -0.330176        -8.9845

  Creating fixed part of basis set: Ionic, confined, hydrogenic.
 
  H                    hydrogenic:
 
  List of hydrogenic basis orbitals: 
    n    l      effective z      eigenvalue [eV]  inner max. [A]     outer max. [A]     outer radius [A]   
    2    0         2.100000       -14.9965           0.193241           1.317192           5.372934
    2    1         3.500000       -41.6672           0.602363           0.602363           4.056010
    1    0         0.850000        -9.8292           0.624864           0.624864           5.372934
    2    1         3.700000       -46.5653           0.573616           0.573616           3.909951
    2    0         1.200000        -4.5995           0.334977           2.228160           5.505921
    3    2         7.000000       -74.0753           0.680692           0.680692           3.769152
 
 
  O                    hydrogenic:
 
  List of hydrogenic basis orbitals: 
    n    l      effective z      eigenvalue [eV]  inner max. [A]     outer max. [A]     outer radius [A]   
    2    1         1.800000       -11.0118           1.178546           1.178546           5.432516
    3    2         7.600000       -87.3182           0.624117           0.624117           3.541422
    3    0         6.400000       -61.9209           0.061166           1.081887           4.306510
    4    3        11.600000      -114.4238           0.731621           0.731621           3.584982
    3    1         6.200000       -58.1113           0.255677           1.030255           4.306510
    3    2         5.600000       -47.4081           0.847222           0.847222           4.413102
    5    4        17.600000      -168.5799           0.749730           0.749730           3.372413
    1    0         0.750000        -7.6499           0.705275           0.705275           5.366508
 

  Adding cutoff potential to free-atom effective potential.
  Creating atomic-like basis functions for current effective potential.

  Species H                   :

  List of atomic basis orbitals and eigenvalues:
    n    l      energy [Ha]    energy [eV]    outer radius [A]
    1    0        -0.241374        -6.5681       5.372934


  Species O                   :

  List of atomic basis orbitals and eigenvalues:
    n    l      energy [Ha]    energy [eV]    outer radius [A]
    1    0       -18.944147      -515.4965       1.415745
    2    0        -0.883529       -24.0421       5.048305
    2    1        -0.330173        -8.9845       5.301302

  Assembling full basis from fixed parts.
  | Species H :   atomic orbital   1 s accepted.
  | Species H :    hydro orbital   2 s accepted.
  | Species H :    hydro orbital   1 s accepted.
  | Species H :    hydro orbital   2 s accepted.
  | Species H :    hydro orbital   2 p accepted.
  | Species H :    hydro orbital   2 p accepted.
  | Species H :    hydro orbital   3 d accepted.
  | Species O :   atomic orbital   1 s accepted.
  | Species O :    hydro orbital   3 s accepted.
  | Species O :   atomic orbital   2 s accepted.
  | Species O :    hydro orbital   1 s accepted.
  | Species O :    hydro orbital   3 p accepted.
  | Species O :   atomic orbital   2 p accepted.
  | Species O :    hydro orbital   2 p accepted.
  | Species O :    hydro orbital   3 d accepted.
  | Species O :    hydro orbital   3 d accepted.
  | Species O :    hydro orbital   4 f accepted.
  | Species O :    hydro orbital   5 g accepted.
 
  Basis size parameters after reduction:
  | Total number of radial functions:       18
  | Total number of basis functions :      207
 
  Testing on-site integration grid accuracy.
  |  Species  Function  <phi|h_atom|phi> (log., in eV)  <phi|h_atom|phi> (rad., in eV)
           1        1                 -6.5683835025                 -6.5684759159
           1        2                 13.3711789951                 13.3708738703
           1        3                 23.6590910787                 23.6532055418
           1        4                 16.2963827186                 16.1870710655 ***
           1        5                 28.7627214838                 28.7627215090
           1        6                 59.5965249172                 59.5965950857
           1        7                 60.2220506392                 60.2220503827
           2        8               -515.4964576505               -515.4964530710
           2        9                 15.3030791347                 15.3030722972
           2       10                -21.7296094581                -21.7296135470
           2       11                 14.2969371730                 14.2969701621
           2       12                 21.0679693190                 21.0679697493
           2       13                 -2.3833606469                 -2.3833613176
           2       14                 13.7067136422                 13.7066766629
           2       15                 45.8013116808                 45.8013116965
           2       16                 52.2309815402                 52.2309831494
           2       17                 85.4120732416                 85.4120732763
           2       18                142.1019167745                142.1019167817
 * Note: Onsite integrals marked "***" above are less accurate than
 * onsite_accuracy_threshold =    0.03000 eV. Usually, this is harmless.
 * When in doubt, tighten the "radial" and/or "radial_multiplier" flags to check.

  Preparing densities etc. for the partition functions (integrals / Hartree potential).

  Preparations completed.
  max(cpu_time)          :      0.172 s.
  Wall clock time (cpu1) :      0.616 s.
------------------------------------------------------------

------------------------------------------------------------
          Begin self-consistency loop: Initialization.

          Date     :  20150727, Time     :  122824.545
------------------------------------------------------------

  Initializing index lists of integration centers etc. from given atomic structure:
  | Number of centers in hartree potential         :         9
  | Number of centers in hartree multipole         :         9
  | Number of centers in electron density summation:         9
  | Number of centers in basis integrals           :         9
  | Number of centers in integrals                 :         9
  Partitioning the integration grid into batches with parallel hashing+maxmin method.
  | Number of batches:     1185
  | Maximal batch size:     192
  | Minimal batch size:      52
  | Average batch size:      99.600
  | Standard deviation of batch sizes:      30.434

  Integration load balanced across     8 MPI tasks.
  Work distribution over tasks is as follows:
  Task     0 has      14715 integration points.
  Task     1 has      14839 integration points.
  Task     2 has      14713 integration points.
  Task     3 has      14808 integration points.
  Task     4 has      14720 integration points.
  Task     5 has      14692 integration points.
  Task     6 has      14820 integration points.
  Task     7 has      14719 integration points.
  Initializing partition tables, free-atom densities, potentials, etc. across the integration grid (initialize_grid_storage).
  | Net number of integration points:   118026
  | of which are non-zero points    :   117515
  Obtaining max. number of non-zero basis functions in each batch (get_n_compute_maxes).
  | Maximal number of non-zero basis functions:      206 in task     0
  | Maximal number of non-zero basis functions:      205 in task     1
  | Maximal number of non-zero basis functions:      205 in task     2
  | Maximal number of non-zero basis functions:      205 in task     3
  | Maximal number of non-zero basis functions:      205 in task     4
  | Maximal number of non-zero basis functions:      205 in task     5
  | Maximal number of non-zero basis functions:      205 in task     6
  | Maximal number of non-zero basis functions:      206 in task     7
  Integrating Hamiltonian matrix: batch-based integration.
  Time summed over all CPUs for integration: real work        2.157 s, elapsed        2.219 s
  Integrating overlap matrix.
  Time summed over all CPUs for integration: real work        1.104 s, elapsed        1.134 s

  Updating Kohn-Sham eigenvalues, eigenvectors, occupation numbers, and Fermi level.
  Solving generalized eigenproblem
  Updating Kohn-Sham eigenvalues and eigenfunctions.
  Transforming overlap matrix and checking for singularities.
  Overlap matrix is nonsingular:
  | Lowest eigenvalue:  0.363521E-03
  Solving real generalised eigenvalue problem by standard LAPACK (fast)
  Determining occupation numbers for Kohn-Sham eigenstates.
  | Chemical potential (Fermi level) in eV                 : -.60914982E+01
  | Error in electron count due to remaining E_F inaccuracy: 0.00000000E+00
  | Maximum occupation number of highest empty state:  0.00E+00

  Writing Kohn-Sham eigenvalues.

  State    Occupation    Eigenvalue [Ha]    Eigenvalue [eV]
      1       2.00000         -19.064782         -518.77912
      2       2.00000         -19.028655         -517.79606
      3       2.00000         -19.019412         -517.54453
      4       2.00000          -1.121134          -30.50760
      5       2.00000          -1.060007          -28.84427
      6       2.00000          -1.043098          -28.38414
      7       2.00000          -0.650070          -17.68929
      8       2.00000          -0.596107          -16.22090
      9       2.00000          -0.590377          -16.06497
     10       2.00000          -0.524295          -14.26678
     11       2.00000          -0.487677          -13.27037
     12       2.00000          -0.481911          -13.11346
     13       2.00000          -0.440874          -11.99680
     14       2.00000          -0.417365          -11.35708
     15       2.00000          -0.409536          -11.14403
     16       0.00000          -0.086785           -2.36154
     17       0.00000          -0.068988           -1.87727
     18       0.00000          -0.041601           -1.13203
     19       0.00000          -0.016259           -0.44243
     20       0.00000           0.000250            0.00680
     21       0.00000           0.039945            1.08696
     22       0.00000           0.077937            2.12076
     23       0.00000           0.086269            2.34749
     24       0.00000           0.092173            2.50816
     25       0.00000           0.105869            2.88085
     26       0.00000           0.110000            2.99324
     27       0.00000           0.110573            3.00884
     28       0.00000           0.118237            3.21741
     29       0.00000           0.129149            3.51432
     30       0.00000           0.149061            4.05616
     31       0.00000           0.169758            4.61934
     32       0.00000           0.189981            5.16963
     33       0.00000           0.217018            5.90535
     34       0.00000           0.252321            6.86601
     35       0.00000           0.262658            7.14727
     36       0.00000           0.276021            7.51091
     37       0.00000           0.331763            9.02774
     38       0.00000           0.341788            9.30052
     39       0.00000           0.356977            9.71385
     40       0.00000           0.386698           10.52258
     41       0.00000           0.397565           10.81830
     42       0.00000           0.405810           11.04265
     43       0.00000           0.418452           11.38664
     44       0.00000           0.440278           11.98056
     45       0.00000           0.453699           12.34579
     46       0.00000           0.469430           12.77385
     47       0.00000           0.487685           13.27059
     48       0.00000           0.517213           14.07409
     49       0.00000           0.537781           14.63377
     50       0.00000           0.573514           15.60612
     51       0.00000           0.651031           17.71545

  Highest occupied state (VBM) at    -11.14402856 eV
  | Occupation number:      2.00000000

  Lowest unoccupied state (CBM) at    -2.36154093 eV
  | Occupation number:      0.00000000

  Overall HOMO-LUMO gap:      8.78248762 eV.
  Calculating total energy contributions from superposition of free atom densities.

  Total energy components:
  | Sum of eigenvalues            :        -129.87059962 Ha       -3533.95882139 eV
  | XC energy correction          :         -27.30101183 Ha        -742.89833027 eV
  | XC potential correction       :          34.87935202 Ha         949.11545901 eV
  | Free-atom electrostatic energy:        -107.54787838 Ha       -2926.52667088 eV
  | Hartree energy correction     :           0.00000000 Ha           0.00000000 eV
  | van der Waals energy corr.    :           0.00000000 Ha           0.00000000 eV
  | Entropy correction            :           0.00000000 Ha           0.00000000 eV
  | ---------------------------
  | Total energy                  :        -229.84013781 Ha       -6254.26836354 eV
  | Total energy, T -> 0          :        -229.84013781 Ha       -6254.26836354 eV  <-- do not rely on this value for anything but (periodic) metals
  | Electronic free energy        :        -229.84013781 Ha       -6254.26836354 eV

  Derived energy quantities:
  | Kinetic energy                :         227.42566136 Ha        6188.56711632 eV
  | Electrostatic energy          :        -429.96478733 Ha      -11699.93714959 eV
  | Energy correction for multipole
  | error in Hartree potential    :           0.00000000 Ha           0.00000000 eV
  | Sum of eigenvalues per atom                           :        -392.66209127 eV
  | Total energy (T->0) per atom                          :        -694.91870706 eV  <-- do not rely on this value for anything but (periodic) metals
  | Electronic free energy per atom                       :        -694.91870706 eV
  Initialize hartree_potential_storage
  Max. number of atoms included in rho_multipole:            9

  End scf initialization - timings             :  max(cpu_time)    wall_clock(cpu1)
  | Time for scf. initialization               :        0.685 s           0.685 s
  | Boundary condition initialization          :        0.000 s           0.019 s
  | Integration                                :        0.421 s           0.421 s
  | Solution of K.-S. eqns.                    :        0.064 s           0.065 s
  | Grid partitioning                          :        0.094 s           0.087 s
  | Preloading free-atom quantities on grid    :        0.013 s           0.013 s
  | Free-atom superposition energy             :        0.030 s           0.029 s
  | Total energy evaluation                    :        0.000 s           0.000 s
------------------------------------------------------------

------------------------------------------------------------
          Begin self-consistency iteration #    1

  Date     :  20150727, Time     :  122825.230
------------------------------------------------------------
  Evaluating new KS density.
  Integration grid: deviation in total charge (<rho> - N_e) =   0.000000E+00
  Pulay mixing of updated and previous charge densities.

  Evaluating partitioned Hartree potential by multipole expansion.
  | Analytical far-field extrapolation by fixed multipoles:
  | Hartree multipole sum: apparent total charge =  -0.120632E-05
  Summing up the Hartree potential.
  Time summed over all CPUs for potential: real work        0.943 s, elapsed        0.949 s
  | RMS charge density error from multipole expansion :   0.120683E-02

  Integrating Hamiltonian matrix: batch-based integration.
  Time summed over all CPUs for integration: real work        2.148 s, elapsed        2.204 s

  Updating Kohn-Sham eigenvalues, eigenvectors, occupation numbers, and Fermi level.
  Solving generalized eigenproblem
  Updating Kohn-Sham eigenvalues and eigenfunctions.
  Solving real generalised eigenvalue problem by standard LAPACK (fast)
  Determining occupation numbers for Kohn-Sham eigenstates.
  | Chemical potential (Fermi level) in eV                 : -.56997655E+01
  | Error in electron count due to remaining E_F inaccuracy: 0.00000000E+00
  | Maximum occupation number of highest empty state:  0.00E+00

  Writing Kohn-Sham eigenvalues.

  State    Occupation    Eigenvalue [Ha]    Eigenvalue [eV]
      1       2.00000         -18.998895         -516.98624
      2       2.00000         -18.953952         -515.76327
      3       2.00000         -18.933090         -515.19559
      4       2.00000          -1.090992          -29.68741
      5       2.00000          -1.022640          -27.82745
      6       2.00000          -0.996569          -27.11802
      7       2.00000          -0.624476          -16.99285
      8       2.00000          -0.561749          -15.28597
      9       2.00000          -0.559412          -15.22238
     10       2.00000          -0.486895          -13.24910
     11       2.00000          -0.450332          -12.25416
     12       2.00000          -0.444366          -12.09182
     13       2.00000          -0.400966          -10.91083
     14       2.00000          -0.377869          -10.28233
     15       2.00000          -0.361411           -9.83449
     16       0.00000          -0.080048           -2.17821
     17       0.00000          -0.061848           -1.68296
     18       0.00000          -0.031745           -0.86381
     19       0.00000          -0.010123           -0.27547
     20       0.00000           0.005587            0.15204
     21       0.00000           0.049609            1.34994
     22       0.00000           0.088497            2.40812
     23       0.00000           0.096750            2.63269
     24       0.00000           0.103805            2.82467
     25       0.00000           0.114329            3.11106
     26       0.00000           0.116715            3.17598
     27       0.00000           0.121674            3.31092
     28       0.00000           0.128911            3.50784
     29       0.00000           0.136161            3.70513
     30       0.00000           0.159297            4.33469
     31       0.00000           0.178160            4.84798
     32       0.00000           0.198438            5.39978
     33       0.00000           0.226781            6.17104
     34       0.00000           0.261277            7.10971
     35       0.00000           0.268586            7.30860
     36       0.00000           0.286299            7.79059
     37       0.00000           0.338923            9.22257
     38       0.00000           0.351121            9.55448
     39       0.00000           0.365024            9.93281
     40       0.00000           0.394075           10.72333
     41       0.00000           0.408252           11.10910
     42       0.00000           0.413494           11.25175
     43       0.00000           0.425180           11.56973
     44       0.00000           0.449343           12.22724
     45       0.00000           0.462584           12.58756
     46       0.00000           0.479302           13.04247
     47       0.00000           0.500953           13.63163
     48       0.00000           0.527244           14.34705
     49       0.00000           0.548569           14.92732
     50       0.00000           0.585778           15.93982
     51       0.00000           0.663036           18.04212

  Highest occupied state (VBM) at     -9.83449076 eV
  | Occupation number:      2.00000000

  Lowest unoccupied state (CBM) at    -2.17821210 eV
  | Occupation number:      0.00000000

  Overall HOMO-LUMO gap:      7.65627866 eV.

  Total energy components:
  | Sum of eigenvalues            :        -128.52722870 Ha       -3497.40383888 eV
  | XC energy correction          :         -27.44525034 Ha        -746.82325969 eV
  | XC potential correction       :          35.06856869 Ha         954.26430649 eV
  | Free-atom electrostatic energy:        -107.54787838 Ha       -2926.52667088 eV
  | Hartree energy correction     :          -1.29925160 Ha         -35.35443498 eV
  | van der Waals energy corr.    :           0.00000000 Ha           0.00000000 eV
  | Entropy correction            :           0.00000000 Ha           0.00000000 eV
  | ---------------------------
  | Total energy                  :        -229.75104034 Ha       -6251.84389794 eV
  | Total energy, T -> 0          :        -229.75104034 Ha       -6251.84389794 eV  <-- do not rely on this value for anything but (periodic) metals
  | Electronic free energy        :        -229.75104034 Ha       -6251.84389794 eV

  Derived energy quantities:
  | Kinetic energy                :         228.27496113 Ha        6211.67773899 eV
  | Electrostatic energy          :        -430.58075113 Ha      -11716.69837724 eV
  | Energy correction for multipole
  | error in Hartree potential    :          -0.00017304 Ha          -0.00470868 eV
  | Sum of eigenvalues per atom                           :        -388.60042654 eV
  | Total energy (T->0) per atom                          :        -694.64932199 eV  <-- do not rely on this value for anything but (periodic) metals
  | Electronic free energy per atom                       :        -694.64932199 eV

  Self-consistency convergence accuracy:
  | Change of charge density      : 0.5094E+00
  | Change of sum of eigenvalues  : 0.3655E+02 eV
  | Change of total energy        : 0.2424E+01 eV

  End self-consistency iteration #     1       :  max(cpu_time)    wall_clock(cpu1)
  | Time for this iteration                    :        0.625 s           0.624 s
  | Charge density update                      :        0.206 s           0.206 s
  | Density mixing                             :        0.002 s           0.002 s
  | Hartree multipole update                   :        0.004 s           0.004 s
  | Hartree multipole summation                :        0.119 s           0.119 s
  | Integration                                :        0.277 s           0.276 s
  | Solution of K.-S. eqns.                    :        0.016 s           0.017 s
  | Total energy evaluation                    :        0.001 s           0.000 s
------------------------------------------------------------

------------------------------------------------------------
          Begin self-consistency iteration #    2

  Date     :  20150727, Time     :  122825.855
------------------------------------------------------------
  Evaluating new KS density.
  Integration grid: deviation in total charge (<rho> - N_e) =   0.000000E+00
  Pulay mixing of updated and previous charge densities.

  Evaluating partitioned Hartree potential by multipole expansion.
  | Analytical far-field extrapolation by fixed multipoles:
  | Hartree multipole sum: apparent total charge =  -0.343510E-05
  Summing up the Hartree potential.
  Time summed over all CPUs for potential: real work        0.942 s, elapsed        0.948 s
  | RMS charge density error from multipole expansion :   0.473579E-02

  Integrating Hamiltonian matrix: batch-based integration.
  Time summed over all CPUs for integration: real work        2.146 s, elapsed        2.206 s

  Updating Kohn-Sham eigenvalues, eigenvectors, occupation numbers, and Fermi level.
  Solving generalized eigenproblem
  Updating Kohn-Sham eigenvalues and eigenfunctions.
  Solving real generalised eigenvalue problem by standard LAPACK (fast)
  Determining occupation numbers for Kohn-Sham eigenstates.
  | Chemical potential (Fermi level) in eV                 : -.47312945E+01
  | Error in electron count due to remaining E_F inaccuracy: 0.00000000E+00
  | Maximum occupation number of highest empty state:  0.00E+00

  Highest occupied state (VBM) at     -6.81767826 eV
  | Occupation number:      2.00000000

  Lowest unoccupied state (CBM) at    -1.79876394 eV
  | Occupation number:      0.00000000

  Overall HOMO-LUMO gap:      5.01891432 eV.

  Total energy components:
  | Sum of eigenvalues            :        -125.47077715 Ha       -3414.23356059 eV
  | XC energy correction          :         -27.78751335 Ha        -756.13671000 eV
  | XC potential correction       :          35.51722354 Ha         966.47282603 eV
  | Free-atom electrostatic energy:        -107.54787838 Ha       -2926.52667088 eV
  | Hartree energy correction     :          -4.36110317 Ha        -118.67165533 eV
  | van der Waals energy corr.    :           0.00000000 Ha           0.00000000 eV
  | Entropy correction            :           0.00000000 Ha           0.00000000 eV
  | ---------------------------
  | Total energy                  :        -229.65004852 Ha       -6249.09577076 eV
  | Total energy, T -> 0          :        -229.65004852 Ha       -6249.09577076 eV  <-- do not rely on this value for anything but (periodic) metals
  | Electronic free energy        :        -229.65004852 Ha       -6249.09577076 eV

  Derived energy quantities:
  | Kinetic energy                :         229.90894361 Ha        6256.14066465 eV
  | Electrostatic energy          :        -431.77147879 Ha      -11749.09972542 eV
  | Energy correction for multipole
  | error in Hartree potential    :          -0.00107176 Ha          -0.02916417 eV
  | Sum of eigenvalues per atom                           :        -379.35928451 eV
  | Total energy (T->0) per atom                          :        -694.34397453 eV  <-- do not rely on this value for anything but (periodic) metals
  | Electronic free energy per atom                       :        -694.34397453 eV

  Self-consistency convergence accuracy:
  | Change of charge density      : 0.3834E+00
  | Change of sum of eigenvalues  : 0.8317E+02 eV
  | Change of total energy        : 0.2748E+01 eV

  End self-consistency iteration #     2       :  max(cpu_time)    wall_clock(cpu1)
  | Time for this iteration                    :        0.623 s           0.623 s
  | Charge density update                      :        0.204 s           0.203 s
  | Density mixing                             :        0.003 s           0.003 s
  | Hartree multipole update                   :        0.004 s           0.003 s
  | Hartree multipole summation                :        0.119 s           0.119 s
  | Integration                                :        0.276 s           0.277 s
  | Solution of K.-S. eqns.                    :        0.017 s           0.016 s
  | Total energy evaluation                    :        0.000 s           0.000 s
------------------------------------------------------------

------------------------------------------------------------
          Begin self-consistency iteration #    3

  Date     :  20150727, Time     :  122826.478
------------------------------------------------------------
  Evaluating new KS density.
  Integration grid: deviation in total charge (<rho> - N_e) =   3.552714E-15
  Pulay mixing of updated and previous charge densities.

  Evaluating partitioned Hartree potential by multipole expansion.
  | Analytical far-field extrapolation by fixed multipoles:
  | Hartree multipole sum: apparent total charge =  -0.337447E-05
  Summing up the Hartree potential.
  Time summed over all CPUs for potential: real work        0.943 s, elapsed        0.948 s
  | RMS charge density error from multipole expansion :   0.994950E-02

  Integrating Hamiltonian matrix: batch-based integration.
  Time summed over all CPUs for integration: real work        2.146 s, elapsed        2.213 s

  Updating Kohn-Sham eigenvalues, eigenvectors, occupation numbers, and Fermi level.
  Solving generalized eigenproblem
  Updating Kohn-Sham eigenvalues and eigenfunctions.
  Solving real generalised eigenvalue problem by standard LAPACK (fast)
  Determining occupation numbers for Kohn-Sham eigenstates.
  | Chemical potential (Fermi level) in eV                 : -.44447836E+01
  | Error in electron count due to remaining E_F inaccuracy: 0.00000000E+00
  | Maximum occupation number of highest empty state:  0.00E+00

  Highest occupied state (VBM) at     -6.50684598 eV
  | Occupation number:      2.00000000

  Lowest unoccupied state (CBM) at    -1.72958254 eV
  | Occupation number:      0.00000000

  Overall HOMO-LUMO gap:      4.77726344 eV.

  Total energy components:
  | Sum of eigenvalues            :        -125.57688040 Ha       -3417.12077691 eV
  | XC energy correction          :         -27.77165735 Ha        -755.70524638 eV
  | XC potential correction       :          35.49398287 Ha         965.84041527 eV
  | Free-atom electrostatic energy:        -107.54787838 Ha       -2926.52667088 eV
  | Hartree energy correction     :          -4.24288773 Ha        -115.45484941 eV
  | van der Waals energy corr.    :           0.00000000 Ha           0.00000000 eV
  | Entropy correction            :           0.00000000 Ha           0.00000000 eV
  | ---------------------------
  | Total energy                  :        -229.64532100 Ha       -6248.96712831 eV
  | Total energy, T -> 0          :        -229.64532100 Ha       -6248.96712831 eV  <-- do not rely on this value for anything but (periodic) metals
  | Electronic free energy        :        -229.64532100 Ha       -6248.96712831 eV

  Derived energy quantities:
  | Kinetic energy                :         228.64479316 Ha        6221.74138062 eV
  | Electrostatic energy          :        -430.51845681 Ha      -11715.00326255 eV
  | Energy correction for multipole
  | error in Hartree potential    :          -0.00404279 Ha          -0.11000990 eV
  | Sum of eigenvalues per atom                           :        -379.68008632 eV
  | Total energy (T->0) per atom                          :        -694.32968092 eV  <-- do not rely on this value for anything but (periodic) metals
  | Electronic free energy per atom                       :        -694.32968092 eV

  Self-consistency convergence accuracy:
  | Change of charge density      : 0.1978E+00
  | Change of sum of eigenvalues  : -.2887E+01 eV
  | Change of total energy        : 0.1286E+00 eV

  End self-consistency iteration #     3       :  max(cpu_time)    wall_clock(cpu1)
  | Time for this iteration                    :        0.624 s           0.624 s
  | Charge density update                      :        0.203 s           0.202 s
  | Density mixing                             :        0.004 s           0.004 s
  | Hartree multipole update                   :        0.004 s           0.003 s
  | Hartree multipole summation                :        0.119 s           0.119 s
  | Integration                                :        0.277 s           0.278 s
  | Solution of K.-S. eqns.                    :        0.017 s           0.016 s
  | Total energy evaluation                    :        0.000 s           0.000 s
------------------------------------------------------------

------------------------------------------------------------
          Begin self-consistency iteration #    4

  Date     :  20150727, Time     :  122827.102
------------------------------------------------------------
  Evaluating new KS density.
  Integration grid: deviation in total charge (<rho> - N_e) =   3.552714E-15
  Pulay mixing of updated and previous charge densities.

  Evaluating partitioned Hartree potential by multipole expansion.
  | Analytical far-field extrapolation by fixed multipoles:
  | Hartree multipole sum: apparent total charge =  -0.399822E-05
  Summing up the Hartree potential.
  Time summed over all CPUs for potential: real work        0.942 s, elapsed        0.947 s
  | RMS charge density error from multipole expansion :   0.123852E-01

  Integrating Hamiltonian matrix: batch-based integration.
  Time summed over all CPUs for integration: real work        2.136 s, elapsed        2.205 s

  Updating Kohn-Sham eigenvalues, eigenvectors, occupation numbers, and Fermi level.
  Solving generalized eigenproblem
  Updating Kohn-Sham eigenvalues and eigenfunctions.
  Solving real generalised eigenvalue problem by standard LAPACK (fast)
  Determining occupation numbers for Kohn-Sham eigenstates.
  | Chemical potential (Fermi level) in eV                 : -.40893724E+01
  | Error in electron count due to remaining E_F inaccuracy: 0.00000000E+00
  | Maximum occupation number of highest empty state:  0.00E+00

  Highest occupied state (VBM) at     -5.53346957 eV
  | Occupation number:      2.00000000

  Lowest unoccupied state (CBM) at    -1.60399450 eV
  | Occupation number:      0.00000000

  Overall HOMO-LUMO gap:      3.92947507 eV.

  Total energy components:
  | Sum of eigenvalues            :        -124.70751529 Ha       -3393.46414858 eV
  | XC energy correction          :         -27.87824813 Ha        -758.60572917 eV
  | XC potential correction       :          35.63338488 Ha         969.63373713 eV
  | Free-atom electrostatic energy:        -107.54787838 Ha       -2926.52667088 eV
  | Hartree energy correction     :          -5.13756323 Ha        -139.80020840 eV
  | van der Waals energy corr.    :           0.00000000 Ha           0.00000000 eV
  | Entropy correction            :           0.00000000 Ha           0.00000000 eV
  | ---------------------------
  | Total energy                  :        -229.63782015 Ha       -6248.76301990 eV
  | Total energy, T -> 0          :        -229.63782015 Ha       -6248.76301990 eV  <-- do not rely on this value for anything but (periodic) metals
  | Electronic free energy        :        -229.63782015 Ha       -6248.76301990 eV

  Derived energy quantities:
  | Kinetic energy                :         228.77416657 Ha        6225.26181017 eV
  | Electrostatic energy          :        -430.53373859 Ha      -11715.41910090 eV
  | Energy correction for multipole
  | error in Hartree potential    :          -0.00512480 Ha          -0.13945287 eV
  | Sum of eigenvalues per atom                           :        -377.05157206 eV
  | Total energy (T->0) per atom                          :        -694.30700221 eV  <-- do not rely on this value for anything but (periodic) metals
  | Electronic free energy per atom                       :        -694.30700221 eV

  Self-consistency convergence accuracy:
  | Change of charge density      : 0.1088E+00
  | Change of sum of eigenvalues  : 0.2366E+02 eV
  | Change of total energy        : 0.2041E+00 eV

  End self-consistency iteration #     4       :  max(cpu_time)    wall_clock(cpu1)
  | Time for this iteration                    :        0.624 s           0.623 s
  | Charge density update                      :        0.203 s           0.202 s
  | Density mixing                             :        0.005 s           0.005 s
  | Hartree multipole update                   :        0.004 s           0.004 s
  | Hartree multipole summation                :        0.119 s           0.119 s
  | Integration                                :        0.276 s           0.276 s
  | Solution of K.-S. eqns.                    :        0.016 s           0.016 s
  | Total energy evaluation                    :        0.000 s           0.000 s
------------------------------------------------------------

------------------------------------------------------------
          Begin self-consistency iteration #    5

  Date     :  20150727, Time     :  122827.725
------------------------------------------------------------
  Evaluating new KS density.
  Integration grid: deviation in total charge (<rho> - N_e) =   0.000000E+00
  Pulay mixing of updated and previous charge densities.

  Evaluating partitioned Hartree potential by multipole expansion.
  | Analytical far-field extrapolation by fixed multipoles:
  | Hartree multipole sum: apparent total charge =  -0.406143E-05
  Summing up the Hartree potential.
  Time summed over all CPUs for potential: real work        0.942 s, elapsed        0.948 s
  | RMS charge density error from multipole expansion :   0.131764E-01

  Integrating Hamiltonian matrix: batch-based integration.
  Time summed over all CPUs for integration: real work        2.141 s, elapsed        2.198 s

  Updating Kohn-Sham eigenvalues, eigenvectors, occupation numbers, and Fermi level.
  Solving generalized eigenproblem
  Updating Kohn-Sham eigenvalues and eigenfunctions.
  Solving real generalised eigenvalue problem by standard LAPACK (fast)
  Determining occupation numbers for Kohn-Sham eigenstates.
  | Chemical potential (Fermi level) in eV                 : -.40560466E+01
  | Error in electron count due to remaining E_F inaccuracy: 0.00000000E+00
  | Maximum occupation number of highest empty state:  0.00E+00

  Highest occupied state (VBM) at     -5.30364020 eV
  | Occupation number:      2.00000000

  Lowest unoccupied state (CBM) at    -1.58002577 eV
  | Occupation number:      0.00000000

  Overall HOMO-LUMO gap:      3.72361443 eV.

  Total energy components:
  | Sum of eigenvalues            :        -124.54732045 Ha       -3389.10502522 eV
  | XC energy correction          :         -27.90013008 Ha        -759.20116723 eV
  | XC potential correction       :          35.66174416 Ha         970.40543229 eV
  | Free-atom electrostatic energy:        -107.54787838 Ha       -2926.52667088 eV
  | Hartree energy correction     :          -5.30393513 Ha        -144.32741828 eV
  | van der Waals energy corr.    :           0.00000000 Ha           0.00000000 eV
  | Entropy correction            :           0.00000000 Ha           0.00000000 eV
  | ---------------------------
  | Total energy                  :        -229.63751989 Ha       -6248.75484932 eV
  | Total energy, T -> 0          :        -229.63751989 Ha       -6248.75484932 eV  <-- do not rely on this value for anything but (periodic) metals
  | Electronic free energy        :        -229.63751989 Ha       -6248.75484932 eV

  Derived energy quantities:
  | Kinetic energy                :         228.79766498 Ha        6225.90123458 eV
  | Electrostatic energy          :        -430.53505479 Ha      -11715.45491667 eV
  | Energy correction for multipole
  | error in Hartree potential    :          -0.00539140 Ha          -0.14670740 eV
  | Sum of eigenvalues per atom                           :        -376.56722502 eV
  | Total energy (T->0) per atom                          :        -694.30609437 eV  <-- do not rely on this value for anything but (periodic) metals
  | Electronic free energy per atom                       :        -694.30609437 eV

  Self-consistency convergence accuracy:
  | Change of charge density      : 0.3185E-01
  | Change of sum of eigenvalues  : 0.4359E+01 eV
  | Change of total energy        : 0.8171E-02 eV

  End self-consistency iteration #     5       :  max(cpu_time)    wall_clock(cpu1)
  | Time for this iteration                    :        0.624 s           0.624 s
  | Charge density update                      :        0.203 s           0.203 s
  | Density mixing                             :        0.006 s           0.006 s
  | Hartree multipole update                   :        0.004 s           0.004 s
  | Hartree multipole summation                :        0.119 s           0.119 s
  | Integration                                :        0.275 s           0.275 s
  | Solution of K.-S. eqns.                    :        0.016 s           0.017 s
  | Total energy evaluation                    :        0.000 s           0.000 s
------------------------------------------------------------

------------------------------------------------------------
          Begin self-consistency iteration #    6

  Date     :  20150727, Time     :  122828.349
------------------------------------------------------------
  Evaluating new KS density.
  Integration grid: deviation in total charge (<rho> - N_e) =   1.421085E-14
  Pulay mixing of updated and previous charge densities.

  Evaluating partitioned Hartree potential by multipole expansion.
  | Analytical far-field extrapolation by fixed multipoles:
  | Hartree multipole sum: apparent total charge =  -0.407577E-05
  Summing up the Hartree potential.
  Time summed over all CPUs for potential: real work        0.942 s, elapsed        0.948 s
  | RMS charge density error from multipole expansion :   0.133900E-01

  Integrating Hamiltonian matrix: batch-based integration.
  Time summed over all CPUs for integration: real work        2.143 s, elapsed        2.198 s

  Updating Kohn-Sham eigenvalues, eigenvectors, occupation numbers, and Fermi level.
  Solving generalized eigenproblem
  Updating Kohn-Sham eigenvalues and eigenfunctions.
  Solving real generalised eigenvalue problem by standard LAPACK (fast)
  Determining occupation numbers for Kohn-Sham eigenstates.
  | Chemical potential (Fermi level) in eV                 : -.40375629E+01
  | Error in electron count due to remaining E_F inaccuracy: 0.00000000E+00
  | Maximum occupation number of highest empty state:  0.00E+00

  Highest occupied state (VBM) at     -5.25763191 eV
  | Occupation number:      2.00000000

  Lowest unoccupied state (CBM) at    -1.56790202 eV
  | Occupation number:      0.00000000

  Overall HOMO-LUMO gap:      3.68972989 eV.

  Total energy components:
  | Sum of eigenvalues            :        -124.50305266 Ha       -3387.90043730 eV
  | XC energy correction          :         -27.90611961 Ha        -759.36415060 eV
  | XC potential correction       :          35.66950590 Ha         970.61663983 eV
  | Free-atom electrostatic energy:        -107.54787838 Ha       -2926.52667088 eV
  | Hartree energy correction     :          -5.35004382 Ha        -145.58209947 eV
  | van der Waals energy corr.    :           0.00000000 Ha           0.00000000 eV
  | Entropy correction            :           0.00000000 Ha           0.00000000 eV
  | ---------------------------
  | Total energy                  :        -229.63758858 Ha       -6248.75671842 eV
  | Total energy, T -> 0          :        -229.63758858 Ha       -6248.75671842 eV  <-- do not rely on this value for anything but (periodic) metals
  | Electronic free energy        :        -229.63758858 Ha       -6248.75671842 eV

  Derived energy quantities:
  | Kinetic energy                :         228.80475348 Ha        6226.09412235 eV
  | Electrostatic energy          :        -430.53622245 Ha      -11715.48669017 eV
  | Energy correction for multipole
  | error in Hartree potential    :          -0.00545738 Ha          -0.14850282 eV
  | Sum of eigenvalues per atom                           :        -376.43338192 eV
  | Total energy (T->0) per atom                          :        -694.30630205 eV  <-- do not rely on this value for anything but (periodic) metals
  | Electronic free energy per atom                       :        -694.30630205 eV

  Self-consistency convergence accuracy:
  | Change of charge density      : 0.8527E-02
  | Change of sum of eigenvalues  : 0.1205E+01 eV
  | Change of total energy        : -.1869E-02 eV

  End self-consistency iteration #     6       :  max(cpu_time)    wall_clock(cpu1)
  | Time for this iteration                    :        0.625 s           0.625 s
  | Charge density update                      :        0.203 s           0.203 s
  | Density mixing                             :        0.007 s           0.007 s
  | Hartree multipole update                   :        0.003 s           0.003 s
  | Hartree multipole summation                :        0.119 s           0.120 s
  | Integration                                :        0.276 s           0.275 s
  | Solution of K.-S. eqns.                    :        0.016 s           0.016 s
  | Total energy evaluation                    :        0.001 s           0.001 s
------------------------------------------------------------

------------------------------------------------------------
          Begin self-consistency iteration #    7

  Date     :  20150727, Time     :  122828.974
------------------------------------------------------------
  Evaluating new KS density.
  Integration grid: deviation in total charge (<rho> - N_e) =   3.552714E-15
  Pulay mixing of updated and previous charge densities.

  Evaluating partitioned Hartree potential by multipole expansion.
  | Analytical far-field extrapolation by fixed multipoles:
  | Hartree multipole sum: apparent total charge =  -0.391290E-05
  Summing up the Hartree potential.
  Time summed over all CPUs for potential: real work        0.942 s, elapsed        0.947 s
  | RMS charge density error from multipole expansion :   0.133027E-01

  Integrating Hamiltonian matrix: batch-based integration.
  Time summed over all CPUs for integration: real work        2.139 s, elapsed        2.197 s

  Updating Kohn-Sham eigenvalues, eigenvectors, occupation numbers, and Fermi level.
  Solving generalized eigenproblem
  Updating Kohn-Sham eigenvalues and eigenfunctions.
  Solving real generalised eigenvalue problem by standard LAPACK (fast)
  Determining occupation numbers for Kohn-Sham eigenstates.
  | Chemical potential (Fermi level) in eV                 : -.40871947E+01
  | Error in electron count due to remaining E_F inaccuracy: 0.00000000E+00
  | Maximum occupation number of highest empty state:  0.00E+00

  Highest occupied state (VBM) at     -5.41821806 eV
  | Occupation number:      2.00000000

  Lowest unoccupied state (CBM) at    -1.58319209 eV
  | Occupation number:      0.00000000

  Overall HOMO-LUMO gap:      3.83502598 eV.

  Total energy components:
  | Sum of eigenvalues            :        -124.61203146 Ha       -3390.86590133 eV
  | XC energy correction          :         -27.89350493 Ha        -759.02088777 eV
  | XC potential correction       :          35.65266809 Ha         970.15845988 eV
  | Free-atom electrostatic energy:        -107.54787838 Ha       -2926.52667088 eV
  | Hartree energy correction     :          -5.23672697 Ha        -142.49859122 eV
  | van der Waals energy corr.    :           0.00000000 Ha           0.00000000 eV
  | Entropy correction            :           0.00000000 Ha           0.00000000 eV
  | ---------------------------
  | Total energy                  :        -229.63747366 Ha       -6248.75359132 eV
  | Total energy, T -> 0          :        -229.63747366 Ha       -6248.75359132 eV  <-- do not rely on this value for anything but (periodic) metals
  | Electronic free energy        :        -229.63747366 Ha       -6248.75359132 eV

  Derived energy quantities:
  | Kinetic energy                :         228.83720207 Ha        6226.97709331 eV
  | Electrostatic energy          :        -430.58117079 Ha      -11716.70979686 eV
  | Energy correction for multipole
  | error in Hartree potential    :          -0.00525238 Ha          -0.14292455 eV
  | Sum of eigenvalues per atom                           :        -376.76287793 eV
  | Total energy (T->0) per atom                          :        -694.30595459 eV  <-- do not rely on this value for anything but (periodic) metals
  | Electronic free energy per atom                       :        -694.30595459 eV

  Self-consistency convergence accuracy:
  | Change of charge density      : 0.1040E-01
  | Change of sum of eigenvalues  : -.2965E+01 eV
  | Change of total energy        : 0.3127E-02 eV

  End self-consistency iteration #     7       :  max(cpu_time)    wall_clock(cpu1)
  | Time for this iteration                    :        0.624 s           0.624 s
  | Charge density update                      :        0.202 s           0.202 s
  | Density mixing                             :        0.007 s           0.007 s
  | Hartree multipole update                   :        0.004 s           0.004 s
  | Hartree multipole summation                :        0.119 s           0.119 s
  | Integration                                :        0.276 s           0.276 s
  | Solution of K.-S. eqns.                    :        0.016 s           0.016 s
  | Total energy evaluation                    :        0.000 s           0.000 s
------------------------------------------------------------

------------------------------------------------------------
          Begin self-consistency iteration #    8

  Date     :  20150727, Time     :  122829.598
------------------------------------------------------------
  Evaluating new KS density.
  Integration grid: deviation in total charge (<rho> - N_e) =   7.105427E-15
  Pulay mixing of updated and previous charge densities.

  Evaluating partitioned Hartree potential by multipole expansion.
  | Analytical far-field extrapolation by fixed multipoles:
  | Hartree multipole sum: apparent total charge =  -0.391845E-05
  Summing up the Hartree potential.
  Time summed over all CPUs for potential: real work        0.942 s, elapsed        0.947 s
  | RMS charge density error from multipole expansion :   0.133436E-01

  Integrating Hamiltonian matrix: batch-based integration.
  Time summed over all CPUs for integration: real work        2.137 s, elapsed        2.197 s

  Updating Kohn-Sham eigenvalues, eigenvectors, occupation numbers, and Fermi level.
  Solving generalized eigenproblem
  Updating Kohn-Sham eigenvalues and eigenfunctions.
  Solving real generalised eigenvalue problem by standard LAPACK (fast)
  Determining occupation numbers for Kohn-Sham eigenstates.
  | Chemical potential (Fermi level) in eV                 : -.40826858E+01
  | Error in electron count due to remaining E_F inaccuracy: 0.00000000E+00
  | Maximum occupation number of highest empty state:  0.00E+00

  Highest occupied state (VBM) at     -5.39648560 eV
  | Occupation number:      2.00000000

  Lowest unoccupied state (CBM) at    -1.58196353 eV
  | Occupation number:      0.00000000

  Overall HOMO-LUMO gap:      3.81452207 eV.

  Total energy components:
  | Sum of eigenvalues            :        -124.60148324 Ha       -3390.57886977 eV
  | XC energy correction          :         -27.89483168 Ha        -759.05699052 eV
  | XC potential correction       :          35.65439712 Ha         970.20550902 eV
  | Free-atom electrostatic energy:        -107.54787838 Ha       -2926.52667088 eV
  | Hartree energy correction     :          -5.24767751 Ha        -142.79657057 eV
  | van der Waals energy corr.    :           0.00000000 Ha           0.00000000 eV
  | Entropy correction            :           0.00000000 Ha           0.00000000 eV
  | ---------------------------
  | Total energy                  :        -229.63747371 Ha       -6248.75359273 eV
  | Total energy, T -> 0          :        -229.63747371 Ha       -6248.75359273 eV  <-- do not rely on this value for anything but (periodic) metals
  | Electronic free energy        :        -229.63747371 Ha       -6248.75359273 eV

  Derived energy quantities:
  | Kinetic energy                :         228.83790465 Ha        6226.99621173 eV
  | Electrostatic energy          :        -430.58054668 Ha      -11716.69281394 eV
  | Energy correction for multipole
  | error in Hartree potential    :          -0.00527267 Ha          -0.14347673 eV
  | Sum of eigenvalues per atom                           :        -376.73098553 eV
  | Total energy (T->0) per atom                          :        -694.30595475 eV  <-- do not rely on this value for anything but (periodic) metals
  | Electronic free energy per atom                       :        -694.30595475 eV

  Self-consistency convergence accuracy:
  | Change of charge density      : 0.1548E-02
  | Change of sum of eigenvalues  : 0.2870E+00 eV
  | Change of total energy        : -.1401E-05 eV

  End self-consistency iteration #     8       :  max(cpu_time)    wall_clock(cpu1)
  | Time for this iteration                    :        0.626 s           0.626 s
  | Charge density update                      :        0.203 s           0.203 s
  | Density mixing                             :        0.008 s           0.008 s
  | Hartree multipole update                   :        0.004 s           0.004 s
  | Hartree multipole summation                :        0.119 s           0.119 s
  | Integration                                :        0.275 s           0.275 s
  | Solution of K.-S. eqns.                    :        0.016 s           0.016 s
  | Total energy evaluation                    :        0.000 s           0.001 s
------------------------------------------------------------

------------------------------------------------------------
          Begin self-consistency iteration #    9

  Date     :  20150727, Time     :  122830.224
------------------------------------------------------------
  Evaluating new KS density.
  Integration grid: deviation in total charge (<rho> - N_e) =  -7.105427E-15
  Pulay mixing of updated and previous charge densities.

  Evaluating partitioned Hartree potential by multipole expansion.
  | Analytical far-field extrapolation by fixed multipoles:
  | Hartree multipole sum: apparent total charge =  -0.391742E-05
  Summing up the Hartree potential.
  Time summed over all CPUs for potential: real work        0.943 s, elapsed        0.950 s
  | RMS charge density error from multipole expansion :   0.133486E-01

  Integrating Hamiltonian matrix: batch-based integration.
  Time summed over all CPUs for integration: real work        2.139 s, elapsed        2.194 s

  Updating Kohn-Sham eigenvalues, eigenvectors, occupation numbers, and Fermi level.
  Solving generalized eigenproblem
  Updating Kohn-Sham eigenvalues and eigenfunctions.
  Solving real generalised eigenvalue problem by standard LAPACK (fast)
  Determining occupation numbers for Kohn-Sham eigenstates.
  | Chemical potential (Fermi level) in eV                 : -.40815913E+01
  | Error in electron count due to remaining E_F inaccuracy: 0.00000000E+00
  | Maximum occupation number of highest empty state:  0.00E+00

  Highest occupied state (VBM) at     -5.39466021 eV
  | Occupation number:      2.00000000

  Lowest unoccupied state (CBM) at    -1.58171138 eV
  | Occupation number:      0.00000000

  Overall HOMO-LUMO gap:      3.81294883 eV.

  Total energy components:
  | Sum of eigenvalues            :        -124.59960012 Ha       -3390.52762748 eV
  | XC energy correction          :         -27.89504977 Ha        -759.06292504 eV
  | XC potential correction       :          35.65467718 Ha         970.21313006 eV
  | Free-atom electrostatic energy:        -107.54787838 Ha       -2926.52667088 eV
  | Hartree energy correction     :          -5.24962254 Ha        -142.84949751 eV
  | van der Waals energy corr.    :           0.00000000 Ha           0.00000000 eV
  | Entropy correction            :           0.00000000 Ha           0.00000000 eV
  | ---------------------------
  | Total energy                  :        -229.63747364 Ha       -6248.75359086 eV
  | Total energy, T -> 0          :        -229.63747364 Ha       -6248.75359086 eV  <-- do not rely on this value for anything but (periodic) metals
  | Electronic free energy        :        -229.63747364 Ha       -6248.75359086 eV

  Derived energy quantities:
  | Kinetic energy                :         228.84029790 Ha        6227.06133518 eV
  | Electrostatic energy          :        -430.58272176 Ha      -11716.75200100 eV
  | Energy correction for multipole
  | error in Hartree potential    :          -0.00527180 Ha          -0.14345292 eV
  | Sum of eigenvalues per atom                           :        -376.72529194 eV
  | Total energy (T->0) per atom                          :        -694.30595454 eV  <-- do not rely on this value for anything but (periodic) metals
  | Electronic free energy per atom                       :        -694.30595454 eV

  Self-consistency convergence accuracy:
  | Change of charge density      : 0.7564E-03
  | Change of sum of eigenvalues  : 0.5124E-01 eV
  | Change of total energy        : 0.1862E-05 eV

  End self-consistency iteration #     9       :  max(cpu_time)    wall_clock(cpu1)
  | Time for this iteration                    :        0.627 s           0.627 s
  | Charge density update                      :        0.203 s           0.203 s
  | Density mixing                             :        0.008 s           0.009 s
  | Hartree multipole update                   :        0.004 s           0.004 s
  | Hartree multipole summation                :        0.119 s           0.119 s
  | Integration                                :        0.276 s           0.275 s
  | Solution of K.-S. eqns.                    :        0.016 s           0.017 s
  | Total energy evaluation                    :        0.000 s           0.000 s
------------------------------------------------------------

------------------------------------------------------------
          Begin self-consistency iteration #   10

  Date     :  20150727, Time     :  122830.851
------------------------------------------------------------
  Evaluating new KS density.
  Integration grid: deviation in total charge (<rho> - N_e) =   2.486900E-14
  Pulay mixing of updated and previous charge densities.

  Evaluating partitioned Hartree potential by multipole expansion.
  | Analytical far-field extrapolation by fixed multipoles:
  | Hartree multipole sum: apparent total charge =  -0.390871E-05
  Summing up the Hartree potential.
  Time summed over all CPUs for potential: real work        0.942 s, elapsed        0.947 s
  | RMS charge density error from multipole expansion :   0.133445E-01

  Integrating Hamiltonian matrix: batch-based integration.
  Time summed over all CPUs for integration: real work        2.136 s, elapsed        2.201 s

  Updating Kohn-Sham eigenvalues, eigenvectors, occupation numbers, and Fermi level.
  Solving generalized eigenproblem
  Updating Kohn-Sham eigenvalues and eigenfunctions.
  Solving real generalised eigenvalue problem by standard LAPACK (fast)
  Determining occupation numbers for Kohn-Sham eigenstates.
  | Chemical potential (Fermi level) in eV                 : -.40836975E+01
  | Error in electron count due to remaining E_F inaccuracy: 0.00000000E+00
  | Maximum occupation number of highest empty state:  0.00E+00

  Highest occupied state (VBM) at     -5.40096860 eV
  | Occupation number:      2.00000000

  Lowest unoccupied state (CBM) at    -1.58298096 eV
  | Occupation number:      0.00000000

  Overall HOMO-LUMO gap:      3.81798764 eV.

  Total energy components:
  | Sum of eigenvalues            :        -124.60451121 Ha       -3390.66126495 eV
  | XC energy correction          :         -27.89441791 Ha        -759.04573104 eV
  | XC potential correction       :          35.65383510 Ha         970.19021582 eV
  | Free-atom electrostatic energy:        -107.54787838 Ha       -2926.52667088 eV
  | Hartree energy correction     :          -5.24450019 Ha        -142.71011129 eV
  | van der Waals energy corr.    :           0.00000000 Ha           0.00000000 eV
  | Entropy correction            :           0.00000000 Ha           0.00000000 eV
  | ---------------------------
  | Total energy                  :        -229.63747259 Ha       -6248.75356235 eV
  | Total energy, T -> 0          :        -229.63747259 Ha       -6248.75356235 eV  <-- do not rely on this value for anything but (periodic) metals
  | Electronic free energy        :        -229.63747259 Ha       -6248.75356235 eV

  Derived energy quantities:
  | Kinetic energy                :         228.84199045 Ha        6227.10739191 eV
  | Electrostatic energy          :        -430.58504514 Ha      -11716.81522322 eV
  | Energy correction for multipole
  | error in Hartree potential    :          -0.00526479 Ha          -0.14326220 eV
  | Sum of eigenvalues per atom                           :        -376.74014055 eV
  | Total energy (T->0) per atom                          :        -694.30595137 eV  <-- do not rely on this value for anything but (periodic) metals
  | Electronic free energy per atom                       :        -694.30595137 eV

  Self-consistency convergence accuracy:
  | Change of charge density      : 0.6443E-03
  | Change of sum of eigenvalues  : -.1336E+00 eV
  | Change of total energy        : 0.2851E-04 eV

[...]
  |   Hirshfeld volume        :     19.73903794
  |   Hirshfeld dipole vector :      0.02854840      -0.00777093      -0.01526082
  |   Hirshfeld dipole moment :      0.03329101
  |   Hirshfeld second moments:      0.05398939       0.01998063       0.02872518
  |                                  0.01998063       0.09878471       0.01319958
  |                                  0.02872518       0.01319958       0.11517528
  ----------------------------------------------------------------------
  | Atom     5: H
  |   Hirshfeld charge        :      0.18731365
  |   Free atom volume        :     10.44207651
  |   Hirshfeld volume        :      5.56760414
  |   Hirshfeld dipole vector :      0.05955769       0.09435385       0.04703304
  |   Hirshfeld dipole moment :      0.12108623
  |   Hirshfeld second moments:      0.12523038      -0.00110808       0.00243270
  |                                 -0.00110808       0.13065324      -0.00182013
  |                                  0.00243270      -0.00182013       0.15058457
  ----------------------------------------------------------------------
  | Atom     6: H
  |   Hirshfeld charge        :      0.17833913
  |   Free atom volume        :     10.44207651
  |   Hirshfeld volume        :      5.48962044
  |   Hirshfeld dipole vector :     -0.01866174       0.00946314      -0.12076673
  |   Hirshfeld dipole moment :      0.12256596
  |   Hirshfeld second moments:      0.13122412       0.01077916       0.00790978
  |                                  0.01077916       0.14551439       0.00502135
  |                                  0.00790978       0.00502135       0.13278296
  ----------------------------------------------------------------------
  | Atom     7: O
  |   Hirshfeld charge        :     -0.28830246
  |   Free atom volume        :     23.95238533
  |   Hirshfeld volume        :     22.33338227
  |   Hirshfeld dipole vector :     -0.02723752       0.02113453       0.03824182
  |   Hirshfeld dipole moment :      0.05148774
  |   Hirshfeld second moments:     -0.01337012      -0.05314674       0.03134771
  |                                 -0.05314674      -0.01549540      -0.02550503
  |                                  0.03134771      -0.02550503       0.03712171
  ----------------------------------------------------------------------
  | Atom     8: H
  |   Hirshfeld charge        :      0.14483621
  |   Free atom volume        :     10.44207651
  |   Hirshfeld volume        :      6.33917202
  |   Hirshfeld dipole vector :      0.02056874      -0.01570634       0.12352578
  |   Hirshfeld dipole moment :      0.12620769
  |   Hirshfeld second moments:      0.11395022      -0.01957599       0.00563688
  |                                 -0.01957599       0.11358990      -0.00443036
  |                                  0.00563688      -0.00443036       0.10733884
  ----------------------------------------------------------------------
  | Atom     9: H
  |   Hirshfeld charge        :      0.14309942
  |   Free atom volume        :     10.44207651
  |   Hirshfeld volume        :      6.44071309
  |   Hirshfeld dipole vector :     -0.08788091       0.08463598      -0.02391181
  |   Hirshfeld dipole moment :      0.12433052
  |   Hirshfeld second moments:      0.09932343      -0.00650578       0.00500818
  |                                 -0.00650578       0.09900657      -0.00484694
  |                                  0.00500818      -0.00484694       0.13019067
  ----------------------------------------------------------------------


  Total energy components:
  | Sum of eigenvalues            :        -124.60440159 Ha       -3390.65828218 eV
  | XC energy correction          :         -27.89442836 Ha        -759.04601552 eV
  | XC potential correction       :          35.65384759 Ha         970.19055575 eV
  | Free-atom electrostatic energy:        -107.54787838 Ha       -2926.52667088 eV
  | Hartree energy correction     :          -5.24461178 Ha        -142.71314773 eV
  | van der Waals energy corr.    :          -0.00056588 Ha          -0.01539850 eV
  | Entropy correction            :           0.00000000 Ha           0.00000000 eV
  | ---------------------------
  | Total energy                  :        -229.63803841 Ha       -6248.76895905 eV
  | Total energy, T -> 0          :        -229.63803841 Ha       -6248.76895905 eV  <-- do not rely on this value for anything but (periodic) metals
  | Electronic free energy        :        -229.63803841 Ha       -6248.76895905 eV

  Derived energy quantities:
  | Kinetic energy                :         228.84213216 Ha        6227.11124794 eV
  | Electrostatic energy          :        -430.58517632 Ha      -11716.81879298 eV
  | Energy correction for multipole
  | error in Hartree potential    :          -0.00526592 Ha          -0.14329289 eV
  | Sum of eigenvalues per atom                           :        -376.73980913 eV
  | Total energy (T->0) per atom                          :        -694.30766212 eV  <-- do not rely on this value for anything but (periodic) metals
  | Electronic free energy per atom                       :        -694.30766212 eV

  atomic forces [eV/Ang]:
  -----------------------
  atom #    1
   Hellmann-Feynman + Multipole  : -.705509E+01 -.110511E+02 0.320444E+01
   Pulay + GGA                   : 0.776500E+01 0.136464E+02 -.411269E+01
   Van der Waals               : 0.127951E-02 -.167617E-02 0.336645E-02
   ----------------------------------------------------------------
   Total forces(   1)            : 0.711182E+00 0.259371E+01 -.904889E+00
  atom #    2
   Hellmann-Feynman + Multipole  : 0.185444E+01 -.299714E+01 0.129110E+01
   Pulay + GGA                   : -.498104E-02 0.612381E-01 -.335018E-01
   Van der Waals               : 0.346897E-03 -.143058E-03 0.160010E-02
   ----------------------------------------------------------------
   Total forces(   2)            : 0.184981E+01 -.293604E+01 0.125920E+01
  atom #    3
   Hellmann-Feynman + Multipole  : -.220643E+01 -.536431E+00 -.938092E-01
   Pulay + GGA                   : 0.127480E+00 0.599676E-01 -.765000E-03
   Van der Waals               : 0.249657E-03 0.930288E-03 0.140258E-02
   ----------------------------------------------------------------
   Total forces(   3)            : -.207870E+01 -.475533E+00 -.931716E-01
  atom #    4
   Hellmann-Feynman + Multipole  : -.622532E+01 -.895060E+01 0.923921E+01
   Pulay + GGA                   : 0.644533E+01 0.993222E+01 -.665252E+01
   Van der Waals               : -.270818E-02 0.319438E-02 -.440055E-04
   ----------------------------------------------------------------
   Total forces(   4)            : 0.217299E+00 0.984812E+00 0.258665E+01
  atom #    5
   Hellmann-Feynman + Multipole  : -.464701E+00 -.746642E+00 -.446971E+00
   Pulay + GGA                   : 0.542399E-01 0.119806E+00 0.355442E-01
   Van der Waals               : 0.694926E-03 0.539978E-03 0.106113E-02
   ----------------------------------------------------------------
   Total forces(   5)            : -.409766E+00 -.626297E+00 -.410365E+00
  atom #    6
   Hellmann-Feynman + Multipole  : -.256237E+00 0.401758E+00 -.232320E+01
   Pulay + GGA                   : -.366831E-01 0.408254E-01 -.126580E+00
   Van der Waals               : 0.635319E-03 -.439164E-03 0.435837E-03
   ----------------------------------------------------------------
   Total forces(   6)            : -.292284E+00 0.442145E+00 -.244934E+01
  atom #    7
   Hellmann-Feynman + Multipole  : 0.679739E+01 -.835500E+01 -.110831E+02
   Pulay + GGA                   : -.813040E+01 0.989057E+01 0.126036E+02
   Van der Waals               : -.466569E-03 -.158280E-02 -.523642E-02
   ----------------------------------------------------------------
   Total forces(   7)            : -.133347E+01 0.153398E+01 0.151529E+01
  atom #    8
   Hellmann-Feynman + Multipole  : -.493060E+00 0.326304E+00 -.229298E+01
   Pulay + GGA                   : 0.190024E-01 0.149722E-01 0.146528E+00
   Van der Waals               : -.174459E-04 -.167904E-03 -.526787E-03
   ----------------------------------------------------------------
   Total forces(   8)            : -.474075E+00 0.341108E+00 -.214698E+01
  atom #    9
   Hellmann-Feynman + Multipole  : 0.191696E+01 -.196792E+01 0.679458E+00
   Pulay + GGA                   : -.991415E-01 0.111910E+00 -.195782E-01
   Van der Waals               : -.141187E-04 -.655542E-03 -.205889E-02
   ----------------------------------------------------------------
   Total forces(   9)            : 0.181781E+01 -.185666E+01 0.657821E+00
  Timings for vdw_correction_hirshfeld (Tkatchenko-Scheffler 2009):
  | CPU time:        1.666 s, Wall clock time:        1.666 s.
  Removing unitary transformations (pure translations, rotations) from forces on atoms.
  Atomic forces before filtering:
  | Net force on center of mass :  0.780164E-02 0.121861E-02 0.142135E-01 eV/A
  | Net torque on center of mass:  -.617844E-02 -.154546E-01 0.377832E-02 eV
  Atomic forces after filtering:
  | Net force on center of mass :  0.000000E+00 -.356812E-15 -.267609E-15 eV/A
  | Net torque on center of mass:  -.226580E-14 -.660859E-15 0.755268E-15 eV
 
  Energy and forces in a compact form:
  | Total energy uncorrected      :         -0.624876895905210E+04 eV
  | Total energy corrected        :         -0.624876895905210E+04 eV  <-- do not rely on this value for anything but (periodic) metals
  | Electronic free energy        :         -0.624876895905210E+04 eV
  Total atomic forces (unitary forces cleaned) [eV/Ang]:
  |   1          0.709778112148088E+00          0.259359619237741E+01         -0.906685628373544E+00
  |   2          0.184842782145693E+01         -0.293604729539724E+01          0.125762346617391E+01
  |   3         -0.208004895221493E+01         -0.475794115974746E+00         -0.952403067166454E-01
  |   4          0.215976470332727E+00          0.984947465454330E+00          0.258538046322069E+01
  |   5         -0.410864707100515E+00         -0.626256758782878E+00         -0.411713940419614E+00
  |   6         -0.293855376269794E+00          0.442368485073707E+00         -0.245055934814356E+01
  |   7         -0.133348276844040E+01          0.153355838830592E+01          0.151356586150911E+01
  |   8         -0.473794618601386E+00          0.340590785619605E+00         -0.214874167507654E+01
  |   9          0.181786401868928E+01         -0.185696314667610E+01          0.656371107826194E+00
 
  ------------------------------------ 
  Start decomposition of the XC Energy 
  ------------------------------------ 
  Hartree-Fock part   :          0.000000000 Ha              0.000000000 eV
  ------------------------------------ 
  X Energy            :        -26.919057205 Ha           -732.504815981 eV
  C Energy GGA        :         -0.975371155 Ha            -26.541199535 eV
  Total XC Energy     :        -27.894428360 Ha           -759.046015516 eV
  LDA X and C from self-consistent density 
  X Energy LDA        :        -24.243767914 Ha           -659.706490440 eV
  C Energy LDA        :         -1.975261053 Ha            -53.749588000 eV
  ------------------------------------ 
  End decomposition of the XC Energy 
  ------------------------------------ 
  Performing Hirshfeld analysis of fragment charges and moments.
  ----------------------------------------------------------------------
  | Atom     1: O
  |   Hirshfeld charge        :     -0.36813584
  |   Free atom volume        :     23.95238533
  |   Hirshfeld volume        :     24.11793236
  |   Hirshfeld dipole vector :      0.02415167       0.06362024      -0.00996215
  |   Hirshfeld dipole moment :      0.06877559
  |   Hirshfeld second moments:      0.02094212      -0.01791349       0.02542537
  |                                 -0.01791349      -0.06137691      -0.02222657
  |                                  0.02542537      -0.02222657      -0.10444893
  ----------------------------------------------------------------------
  | Atom     2: H
  |   Hirshfeld charge        :      0.06974506
  |   Free atom volume        :     10.44207651
  |   Hirshfeld volume        :      8.24477847
  |   Hirshfeld dipole vector :     -0.02313802       0.03893701      -0.01635323
  |   Hirshfeld dipole moment :      0.04815482
  |   Hirshfeld second moments:      0.07727121       0.03108314      -0.00073640
  |                                  0.03108314       0.03084759       0.01488123
  |                                 -0.00073640       0.01488123       0.06196384
  ----------------------------------------------------------------------
  | Atom     3: H
  |   Hirshfeld charge        :      0.10373212
  |   Free atom volume        :     10.44207651
  |   Hirshfeld volume        :      7.44291372
  |   Hirshfeld dipole vector :      0.11875044       0.02939264       0.00915835
  |   Hirshfeld dipole moment :      0.12267628
  |   Hirshfeld second moments:      0.09505569      -0.01227107       0.00579958
  |                                 -0.01227107       0.09071299      -0.01163755
  |                                  0.00579958      -0.01163755       0.06842564
  ----------------------------------------------------------------------
  | Atom     4: O
  |   Hirshfeld charge        :     -0.17063457
  |   Free atom volume        :     23.95238533
  |   Hirshfeld volume        :     19.73903794
  |   Hirshfeld dipole vector :      0.02854840      -0.00777093      -0.01526082
  |   Hirshfeld dipole moment :      0.03329101
  |   Hirshfeld second moments:      0.05398939       0.01998063       0.02872518
  |                                  0.01998063       0.09878471       0.01319958
  |                                  0.02872518       0.01319958       0.11517528
  ----------------------------------------------------------------------
  | Atom     5: H
  |   Hirshfeld charge        :      0.18731365
  |   Free atom volume        :     10.44207651
  |   Hirshfeld volume        :      5.56760414
  |   Hirshfeld dipole vector :      0.05955769       0.09435385       0.04703304
  |   Hirshfeld dipole moment :      0.12108623
  |   Hirshfeld second moments:      0.12523038      -0.00110808       0.00243270
  |                                 -0.00110808       0.13065324      -0.00182013
  |                                  0.00243270      -0.00182013       0.15058457
  ----------------------------------------------------------------------
  | Atom     6: H
  |   Hirshfeld charge        :      0.17833913
  |   Free atom volume        :     10.44207651
  |   Hirshfeld volume        :      5.48962044
  |   Hirshfeld dipole vector :     -0.01866174       0.00946314      -0.12076673
  |   Hirshfeld dipole moment :      0.12256596
  |   Hirshfeld second moments:      0.13122412       0.01077916       0.00790978
  |                                  0.01077916       0.14551439       0.00502135
  |                                  0.00790978       0.00502135       0.13278296
  ----------------------------------------------------------------------
  | Atom     7: O
  |   Hirshfeld charge        :     -0.28830246
  |   Free atom volume        :     23.95238533
  |   Hirshfeld volume        :     22.33338227
  |   Hirshfeld dipole vector :     -0.02723752       0.02113453       0.03824182
  |   Hirshfeld dipole moment :      0.05148774
  |   Hirshfeld second moments:     -0.01337012      -0.05314674       0.03134771
  |                                 -0.05314674      -0.01549540      -0.02550503
  |                                  0.03134771      -0.02550503       0.03712171
  ----------------------------------------------------------------------
  | Atom     8: H
  |   Hirshfeld charge        :      0.14483621
  |   Free atom volume        :     10.44207651
  |   Hirshfeld volume        :      6.33917202
  |   Hirshfeld dipole vector :      0.02056874      -0.01570634       0.12352578
  |   Hirshfeld dipole moment :      0.12620769
  |   Hirshfeld second moments:      0.11395022      -0.01957599       0.00563688
  |                                 -0.01957599       0.11358990      -0.00443036
  |                                  0.00563688      -0.00443036       0.10733884
  ----------------------------------------------------------------------
  | Atom     9: H
  |   Hirshfeld charge        :      0.14309942
  |   Free atom volume        :     10.44207651
  |   Hirshfeld volume        :      6.44071309
  |   Hirshfeld dipole vector :     -0.08788091       0.08463598      -0.02391181
  |   Hirshfeld dipole moment :      0.12433052
  |   Hirshfeld second moments:      0.09932343      -0.00650578       0.00500818
  |                                 -0.00650578       0.09900657      -0.00484694
  |                                  0.00500818      -0.00484694       0.13019067
  ----------------------------------------------------------------------


------------------------------------------------------------------------------
  Final output of selected total energy values:

  The following output summarizes some interesting total energy values
  at the end of a run (AFTER all relaxation, molecular dynamics, etc.).

  | Total energy of the DFT / Hartree-Fock s.c.f. calculation      :          -6248.768959052 eV
  | Final zero-broadening corrected energy (caution - metals only) :          -6248.768959052 eV
  | For reference only, the value of 1 Hartree used in FHI-aims is :             27.211384500 eV

  Before relying on these values, please be sure to understand exactly which
  total energy value is referred to by a given number. Different objects may
  all carry the same name 'total energy'. Definitions:

  Total energy of the DFT / Hartree-Fock s.c.f. calculation:
  | Note that this energy does not include ANY quantities calculated after the
  | s.c.f. cycle, in particular not ANY RPA, MP2, etc. many-body perturbation terms.

  Final zero-broadening corrected energy:
  | For metallic systems only, a broadening of the occupation numbers at the Fermi
  | level can be extrapolated back to zero broadening by an electron-gas inspired
  | formula. For all systems that are not real metals, this value can be
  | meaningless and should be avoided.

------------------------------------------------------------------------------

------------------------------------------------------------
          Leaving FHI-aims.
          Date     :  20150727, Time     :  122835.284

          Computational steps:
          | Number of self-consistency cycles          :           14

          Detailed time accounting                     :  max(cpu_time)    wall_clock(cpu1)
          | Total time                                 :       11.394 s          11.411 s
          | Preparation time                           :        0.172 s           0.616 s
          | Grid partitioning                          :        0.094 s           0.087 s
          | Preloading free-atom quantities on grid    :        0.013 s           0.013 s
          | Free-atom superposition energy             :        0.030 s           0.029 s
          | Total time for integrations                :        4.281 s           4.280 s
          | Total time for solution of K.-S. equations :        0.290 s           0.293 s
          | Total time for density & force components  :        3.683 s           3.680 s
          | Total time for mixing                      :        0.100 s           0.103 s
          | Total time for Hartree multipole update    :        0.054 s           0.051 s
          | Total time for Hartree multipole sum       :        2.058 s           2.059 s
          | Total time for total energy evaluation     :        0.007 s           0.003 s
          | Total time for scaled ZORA corrections     :        0.000 s           0.000 s
          | Total time for TS (2009) vdW correction    :        0.020 s           0.021 s

          Have a nice day.
------------------------------------------------------------
