  MPI-parallelism will be employed.
------------------------------------------------------------
          Invoking FHI-aims ...
          Version 081213
          Compiled on 2013/08/29 at 17:41:06 on host generoso.

          When using FHI-aims, please cite the following reference:

          Volker Blum, Ralf Gehrke, Felix Hanke, Paula Havu,
          Ville Havu, Xinguo Ren, Karsten Reuter, and Matthias Scheffler,
          'Ab Initio Molecular Simulations with Numeric Atom-Centered Orbitals: FHI-aims',
          Computer Physics Communications 180, 2175-2196 (2009)

          For any questions about FHI-aims, please visit the aimsclub website
          with its forums and wiki. Contributions to both the forums and the
          wiki are warmly encouraged - they are for you, and everyone is welcome there.

------------------------------------------------------------

  Date     :  20150727, Time     :  114553.392
  Time zero on CPU 1             :   0.429920000000000E-01  s.
  Internal wall clock time zero  :           207229553.392  s.

  Using        8 parallel tasks.
  Task        0 on host gen60 reporting.
  Task        1 on host gen60 reporting.
  Task        2 on host gen60 reporting.
  Task        3 on host gen60 reporting.
  Task        4 on host gen60 reporting.
  Task        5 on host gen60 reporting.
  Task        6 on host gen60 reporting.
  Task        7 on host gen60 reporting.

  Performing system and environment tests:
  | Environment variable OMP_NUM_THREADS correctly set to 1.
  | Checking for scalapack...
  | No scalapack compiled in.

  Obtaining array dimensions for all initial allocations:
  
  -----------------------------------------------------------------------
  Parsing control.in (first pass over file, find array dimensions only).
  The contents of control.in will be repeated verbatim below
  unless switched off by setting 'verbatim_writeout .false.' .
  in the first line of control.in .
  -----------------------------------------------------------------------
  
  #########################################################################################
  #
  #  Volker Blum, FHI 2008 : Test run input file control.in
  #
  #########################################################################################
  #
  #  Physical model
  #
    xc                 rpbe
    spin               none
    relativistic       atomic_zora scalar
    charge             0.
   vdw_correction_hirshfeld
  #
  #  SCF convergence
  #
    occupation_type    gaussian 0.01
    mixer              pulay
      n_max_pulay        10
      charge_mix_param   0.1
    sc_accuracy_rho    5E-5
    sc_accuracy_eev    5E-3
    sc_accuracy_etot   5E-6
    sc_iter_limit      3000
  #
  #  Eigenvalue solver
  #
    KS_method          lapack
      empty_states       8
      basis_threshold    0.e-5
  #
  #  Efficiency
  #
  #   all previous settings are now default, except stratmann still
  #   undecided. Continue to handle stratmann with care, if at all.
  #
  #  partition_type stratmann
    partition_type rho_r2
  #  hartree_partition_type stratmann
  #
  #  Oprions for large clusters (100's of atoms: memory saving / better scaling)
  #
  # for periodic systems:
  #
    density_update_method orbital
    packed_matrix_format none
  #  k_grid 6 6 6
  #  output k_eigenvalue 1
  #  distributed_spline_storage .true.
  #
  #  Relaxation
  #
  #  relax_geometry   bfgs 5.e-3
    sc_accuracy_forces 5.E-4
    final_forces_cleaned .true.
  #
  #  Output options
  #
  #  output mulliken
    output Hirshfeld
  #  output dipole
  
  #harmonic_length_scale 0.001
  
  ################################################################################
  #
  #  FHI-aims code project
  #  VB, Fritz-Haber Institut, 2007
  #
  #  Suggested "safe" defaults for H atom (to be pasted into control.in file)
  #  Basis constructed for a non-relativistic H2 molecule using the
  #  PW-LDA functional.
  #
  ################################################################################
    species        H
  #     global species definitions
      nucleus             1
      cut_pot             4.0  2.0  1.0
      cut_free_atom       finite 8.0
      logarithmic         0.00010000 100.00  1.0123
      basis_dep_cutoff    1d-4  # 1d-4 is safe default - please check 5d-4 if you wish!
      radial_base         24 7.0
      radial_multiplier   2
      angular_grids       specified
        division   0.2783  110
        division   0.3822  194
        division   0.5626  302
  #      division   0.5922  434
  #      division   0.6227  590
  #      division   0.7206  770
        outer_grid  302
      l_hartree           4
  ################################################################################
  #
  #  Definition of "minimal" basis
  #
  ################################################################################
  #     valence basis states
      valence      1  s   1.
  #     ion occupancy
      ion_occ      1  s   0.5
  ################################################################################
  #
  #  Suggested additional basis functions. For production calculations,
  #  uncomment them one after another (the most important basis functions are
  #  listed first).
  #
  ################################################################################
  #  "First tier" - improvements: -1014.90 meV to -62.69 meV
       hydro 2 s 2.1
       hydro 2 p 3.5
  #  "Second tier" - improvements: -12.89 meV to -1.83 meV
       hydro 1 s 0.85
       hydro 2 p 3.7
       hydro 2 s 1.2
       hydro 3 d 7
  #  "Third tier" - improvements: -0.25 meV to -0.12 meV
  #     hydro 4 f 11.2
  #     hydro 3 p 4.8
  #     hydro 4 d 9
  #     hydro 3 s 3.2
  
  ################################################################################
  #
  #  FHI-aims code project
  #  VB, Fritz-Haber Institut, 2007
  #
  #  Suggested "safe" defaults for O atom (to be pasted into control.in file)
  #  All values have been tested for a non-relativistic, non-spinpolarized O2
  #  molecule using the PW-LDA functional. Validity for PBE is expected.
  #
  #  Constructed for dimers: 1.0 A, 1.208 A, 1.5 A, 2.0 A, 3.0 A
  #
  ################################################################################
    species        O
  #     global species definitions
      nucleus             8
      mass                15.9994
      l_hartree           4
      cut_pot             4.0  2.0  1.0
      cut_free_atom       finite 8.0
      basis_dep_cutoff    1d-4  # 1d-4 is safe default - please check 5d-4 if you wish!
      logarithmic         0.00010000 100.00  1.0123
      radial_base         36 7.0
      radial_multiplier   2
       angular_grids specified
        division   0.4087  110
        division   0.5181  194
        division   0.6184  302
  #      division   0.7315  434
  #      division   0.7934  590
  #      division   0.9656  770
  #      division   1.4041  974
  #      outer_grid 974
        outer_grid 302
  ################################################################################
  #
  #  Definition of "minimal" basis
  #
  ################################################################################
  #     valence basis states
      valence      2  s   2.
      valence      2  p   4.
  #     ion occupancy
      ion_occ      2  s   1.
      ion_occ      2  p   3.
  ################################################################################
  #
  #  Suggested additional basis functions. For production calculations,
  #  uncomment them one after another (the most important basis functions are
  #  listed first).
  #
  ################################################################################
  #  "First tier" - improvements: -699.05 meV to -159.38 meV
       hydro 2 p 1.8
       hydro 3 d 7.6
       hydro 3 s 6.4
  #  "Second tier" - improvements: -49.91 meV to -5.39 meV
       hydro 4 f 11.6
       hydro 3 p 6.2
       hydro 3 d 5.6
       hydro 5 g 17.6
       hydro 1 s 0.75
  #  "Third tier" - improvements: -2.83 meV to -0.50 meV
  #     ionic 2 p auto
  #     hydro 4 f 10.8
  #     hydro 4 d 4.7
  #     hydro 2 s 6.8
  #  "Fourth tier" - improvements: -0.40 meV to -0.12 meV
  #     hydro 3 p 5
  #     hydro 3 s 3.3
  #     hydro 5 g 15.6
  #     hydro 4 f 17.6
  #     hydro 4 d 14
  # Further basis functions - -0.08 meV and below
  #     hydro 3 s 2.1
  #     hydro 4 d 11.6
  #     hydro 3 p 16
  #     hydro 2 s 17.2
  
  
  -----------------------------------------------------------------------
  Completed first pass over input file control.in .
  -----------------------------------------------------------------------
  
  
  -----------------------------------------------------------------------
  Parsing geometry.in (first pass over file, find array dimensions only).
  The contents of geometry.in will be repeated verbatim below
  unless switched off by setting 'verbatim_writeout .false.' .
  in the first line of geometry.in .
  -----------------------------------------------------------------------
  
  atom      -4.053030000      0.065001000     -1.525160000  O
  atom      -4.566710000      0.974813000     -1.912820000  H
  atom      -3.067820000      0.330172000     -1.477310000  H
  atom      -4.581760000     -0.256435000      0.939478000  O
  atom      -4.349860000      0.471090000      1.504340000  H
  atom      -5.393870000     -0.726611000      1.228070000  H
  atom      -5.293160000      2.192130000     -2.328800000  O
  atom      -4.829300000      2.988660000     -1.973850000  H
  atom      -5.428570000      2.328640000     -3.235170000  H
  atom      -3.818880000      2.024990000      2.187990000  O
  atom      -3.690880000      1.961360000      3.202150000  H
  atom      -4.546490000      2.751300000      2.045370000  H
  atom      -1.975360000      2.858040000      0.453140000  O
  atom      -1.223550000      3.375850000      0.786238000  H
  atom      -2.537520000      2.567960000      1.156120000  H
  atom      -4.066610000      4.258280000     -0.900064000  O
  atom      -3.224110000      3.876870000     -0.569443000  H
  atom      -3.737450000      5.116530000     -1.322720000  H
  atom      -5.628340000      3.730740000      1.385610000  O
  atom      -6.090650000      4.418470000      1.860350000  H
  atom      -5.158540000      4.200260000      0.615875000  H
  
  -----------------------------------------------------------------------
  Completed first pass over input file geometry.in .
  -----------------------------------------------------------------------
  
 
  Basic array size parameters: 
  | Number of species                 :        2
  | Number of atoms                   :       21
  | Max. basis fn. angular momentum   :        4
  | Max. atomic/ionic basis occupied n:        2
  | Max. number of basis fn. types    :        2
  | Max. radial fns per species/type  :        8
  | Max. logarithmic grid size        :     1301
  | Max. radial integration grid size :       73
  | Max. angular integration grid size:      302
  | Max. angular grid division number :        8
  | Radial grid for Hartree potential :     1301
  | Number of spin channels           :        1

------------------------------------------------------------
          Reading file control.in.
------------------------------------------------------------
  XC: Using RPBE gradient-corrected functionals.
  Spin treatment: No spin polarisation.
  Scalar relativistic treatment of kinetic energy: on-site free-atom approximation to ZORA.
  Charge =   0.000000E+00: Neutral system requested explicitly.
  Using non-empirical van der Waals correction (Hirshfeld partitioning):
  Occupation type: Gaussian broadening, width =   0.100000E-01 eV.
  Using pulay charge density mixing.
  Pulay mixing - number of memorized iterations:   10
  Charge density mixing - mixing parameter:     0.1000
  Convergence accuracy of self-consistent charge density: 0.5000E-04
  Convergence accuracy of sum of eigenvalues: 0.5000E-02
  Convergence accuracy of total energy: 0.5000E-05
  Maximum number of s.-c. iterations  :  3000
  Kohn-Sham eigenvalues and eigenfunctions calculated by lapack diagonalisation (D&C).
  Number of empty states per atom:        8
  Threshold for basis singularities: 0.0000E+00
  Partition function in integrals calculations: rho / r^2
 Using packed matrix format           0
  Convergence accuracy of forces: 0.5000E-03
  Cleaning forces before final output.
  Hirshfeld charge analysis will be performed.
 
  Reading configuration options for species H                   .
  | Found nuclear charge :   1.0000
  | Found cutoff potl. onset [A], width [A], scale factor :    4.00000    2.00000    1.00000
  | Found cutoff specification for free atom: Cutoff potential begins at    8.00000 A.
  | Found logarithmic grid data [bohr] : 0.1000E-03 0.1000E+03 0.1012E+01
  | Threshold for basis-dependent cutoff potential is   0.100000E-03
  | Found data for basic radial integration grid :    24 points, outermost radius =    7.000 A
  | Found multiplier for basic radial grid :   2
  | Found angular grid specification: user-specified.
  | Specified grid contains     4 separate shells.
  | Check grid settings after all constraints further below.
  | Found l_max for Hartree potential  :   4
  | Found free-atom valence shell :  1 s   1.000
  | No ionic wave fns used. Skipping ion_occ.
  | Found hydrogenic basis function :  2 s   2.100
  | Found hydrogenic basis function :  2 p   3.500
  | Found hydrogenic basis function :  1 s   0.850
  | Found hydrogenic basis function :  2 p   3.700
  | Found hydrogenic basis function :  2 s   1.200
  | Found hydrogenic basis function :  3 d   7.000
  Species H                   : Missing cutoff potential type.
  Defaulting to exp(1/x)/(1-x)^2 type cutoff potential.
  Species H : On-site basis accuracy parameter (for Gram-Schmidt orthonormalisation) not specified.
  Using default value basis_acc =  0.1000000E-03.
  Species H                   : Using default innermost maximum threshold i_radial=  2 for radial functions.
  Species H                   : Basic radial grid will be enhanced according to radial_multiplier =   2, to contain    49 grid points.
 
  Reading configuration options for species O                   .
  | Found nuclear charge :   8.0000
  | Found atomic mass :    15.9994000000000      amu
  | Found l_max for Hartree potential  :   4
  | Found cutoff potl. onset [A], width [A], scale factor :    4.00000    2.00000    1.00000
  | Found cutoff specification for free atom: Cutoff potential begins at    8.00000 A.
  | Threshold for basis-dependent cutoff potential is   0.100000E-03
  | Found logarithmic grid data [bohr] : 0.1000E-03 0.1000E+03 0.1012E+01
  | Found data for basic radial integration grid :    36 points, outermost radius =    7.000 A
  | Found multiplier for basic radial grid :   2
  | Found angular grid specification: user-specified.
  | Specified grid contains     4 separate shells.
  | Check grid settings after all constraints further below.
  | Found free-atom valence shell :  2 s   2.000
  | Found free-atom valence shell :  2 p   4.000
  | No ionic wave fns used. Skipping ion_occ.
  | No ionic wave fns used. Skipping ion_occ.
  | Found hydrogenic basis function :  2 p   1.800
  | Found hydrogenic basis function :  3 d   7.600
  | Found hydrogenic basis function :  3 s   6.400
  | Found hydrogenic basis function :  4 f  11.600
  | Found hydrogenic basis function :  3 p   6.200
  | Found hydrogenic basis function :  3 d   5.600
  | Found hydrogenic basis function :  5 g  17.600
  | Found hydrogenic basis function :  1 s   0.750
  Species O                   : Missing cutoff potential type.
  Defaulting to exp(1/x)/(1-x)^2 type cutoff potential.
  Species O : On-site basis accuracy parameter (for Gram-Schmidt orthonormalisation) not specified.
  Using default value basis_acc =  0.1000000E-03.
  Species O                   : Using default innermost maximum threshold i_radial=  2 for radial functions.
  Species O                   : Basic radial grid will be enhanced according to radial_multiplier =   2, to contain    73 grid points.
 
  Finished reading input file 'control.in'. Consistency checks are next.
 
  Target number of points in a grid batch is not set. Defaulting to  100
  Method for grid partitioning is not set. Defaulting to parallel hash+maxmin partitioning.
  Batch size limit is not set. Defaulting to    200
  By default, will store active basis functions for each batch.
  If in need of memory, prune_basis_once .false. can be used to disable this option.
  communication_type for Hartree potential was not specified.
  Defaulting to calc_hartree .
  Pulay mixer: Number of initial linear mixing iterations not set.
  Defaulting to    0 iterations.
  Work space size for distributed Hartree potential not set.
  Defaulting to   0.200000E+03 MB.
  Algorithm-dependent basis array size parameters:
  | n_max_pulay                         :       10
  Geometry relaxation not requested: no relaxation will be performed.
  Handling of forces: Unphysical translation and rotation will be removed from forces.
  No accuracy limit for integral partition fn. given. Defaulting to 0.1000E-14.
  No threshold value for u(r) in integrations given. Defaulting to 0.1000E-05.
  No accuracy for occupation numbers given. Defaulting to 0.1000E-07.
  No threshold value for occupation numbers given. Defaulting to 0.0000E+00.
  No accuracy for fermi level given. Defaulting to 0.1000E-19.
  Maximum # of iterations to find E_F not set. Defaulting to  200.
  Will not use alltoall communication since running on < 1024 CPUs.
  Partitioning for Hartree potential was not defined. Using partition_type for integrals.
  | Reporting present value of keyword multip_moments_threshold  :       0.10000000E-09
  | This value may affect high angular momentum components of the Hartree potential in periodic systems.
  No q(lm)/r^(l+1) cutoff set for long-range Hartree potential.
  | Using default value of  0.100000E-09 .
  | Verify using the multipole_threshold keyword.
  Defaulting to new monopole extrapolation.
  Density update method: Loop over occupied states selected for charge density update.
------------------------------------------------------------


------------------------------------------------------------
          Reading geometry description geometry.in.
------------------------------------------------------------
  Input structure read successfully.
  The structure contains       21 atoms,  and a total of         70.000 electrons.

  Input geometry:
  | No unit cell requested.
  | Atomic structure:
  |       Atom                x [A]            y [A]            z [A]
  |    1: Species O             -4.053030         0.065001        -1.525160
  |    2: Species H             -4.566710         0.974813        -1.912820
  |    3: Species H             -3.067820         0.330172        -1.477310
  |    4: Species O             -4.581760        -0.256435         0.939478
  |    5: Species H             -4.349860         0.471090         1.504340
  |    6: Species H             -5.393870        -0.726611         1.228070
  |    7: Species O             -5.293160         2.192130        -2.328800
  |    8: Species H             -4.829300         2.988660        -1.973850
  |    9: Species H             -5.428570         2.328640        -3.235170
  |   10: Species O             -3.818880         2.024990         2.187990
  |   11: Species H             -3.690880         1.961360         3.202150
  |   12: Species H             -4.546490         2.751300         2.045370
  |   13: Species O             -1.975360         2.858040         0.453140
  |   14: Species H             -1.223550         3.375850         0.786238
  |   15: Species H             -2.537520         2.567960         1.156120
  |   16: Species O             -4.066610         4.258280        -0.900064
  |   17: Species H             -3.224110         3.876870        -0.569443
  |   18: Species H             -3.737450         5.116530        -1.322720
  |   19: Species O             -5.628340         3.730740         1.385610
  |   20: Species H             -6.090650         4.418470         1.860350
  |   21: Species H             -5.158540         4.200260         0.615875
  |

  | The smallest distance between any two atoms is         0.92654057 AA.
  |
  | The first atom of this pair is atom number                      7 .
  | The second atom of this pair is atom number                     9 .

  Structure-dependent array size parameters: 
  | Maximum number of distinct radial functions  :       18
  | Maximum number of basis functions            :      483
  | Number of Kohn-Sham states (occupied + empty):      119
------------------------------------------------------------

------------------------------------------------------------
          Preparing all fixed parts of the calculation.
------------------------------------------------------------
  Determining machine precision:
    2.225073858507201E-308
  Setting up grids for atomic and cluster calculations.

  Creating wave function, potential, and density for free atoms.

  Species: H

  List of occupied orbitals and eigenvalues:
    n    l              occ      energy [Ha]    energy [eV]
    1    0           1.0000        -0.241408        -6.5691


  Species: O

  List of occupied orbitals and eigenvalues:
    n    l              occ      energy [Ha]    energy [eV]
    1    0           2.0000       -18.944147      -515.4965
    2    0           2.0000        -0.883529       -24.0421
    2    1           4.0000        -0.330176        -8.9845

  Creating fixed part of basis set: Ionic, confined, hydrogenic.
 
  H                    hydrogenic:
 
  List of hydrogenic basis orbitals: 
    n    l      effective z      eigenvalue [eV]  inner max. [A]     outer max. [A]     outer radius [A]   
    2    0         2.100000       -14.9965           0.193241           1.317192           5.372934
    2    1         3.500000       -41.6672           0.602363           0.602363           4.056010
    1    0         0.850000        -9.8292           0.624864           0.624864           5.372934
    2    1         3.700000       -46.5653           0.573616           0.573616           3.909951
    2    0         1.200000        -4.5995           0.334977           2.228160           5.505921
    3    2         7.000000       -74.0753           0.680692           0.680692           3.769152
 
 
  O                    hydrogenic:
 
  List of hydrogenic basis orbitals: 
    n    l      effective z      eigenvalue [eV]  inner max. [A]     outer max. [A]     outer radius [A]   
    2    1         1.800000       -11.0118           1.178546           1.178546           5.432516
    3    2         7.600000       -87.3182           0.624117           0.624117           3.541422
    3    0         6.400000       -61.9209           0.061166           1.081887           4.306510
    4    3        11.600000      -114.4238           0.731621           0.731621           3.584982
    3    1         6.200000       -58.1113           0.255677           1.030255           4.306510
    3    2         5.600000       -47.4081           0.847222           0.847222           4.413102
    5    4        17.600000      -168.5799           0.749730           0.749730           3.372413
    1    0         0.750000        -7.6499           0.705275           0.705275           5.366508
 

  Adding cutoff potential to free-atom effective potential.
  Creating atomic-like basis functions for current effective potential.

  Species H                   :

  List of atomic basis orbitals and eigenvalues:
    n    l      energy [Ha]    energy [eV]    outer radius [A]
    1    0        -0.241374        -6.5681       5.372934


  Species O                   :

  List of atomic basis orbitals and eigenvalues:
    n    l      energy [Ha]    energy [eV]    outer radius [A]
    1    0       -18.944147      -515.4965       1.415745
    2    0        -0.883529       -24.0421       5.048305
    2    1        -0.330173        -8.9845       5.301302

  Assembling full basis from fixed parts.
  | Species H :   atomic orbital   1 s accepted.
  | Species H :    hydro orbital   2 s accepted.
  | Species H :    hydro orbital   1 s accepted.
  | Species H :    hydro orbital   2 s accepted.
  | Species H :    hydro orbital   2 p accepted.
  | Species H :    hydro orbital   2 p accepted.
  | Species H :    hydro orbital   3 d accepted.
  | Species O :   atomic orbital   1 s accepted.
  | Species O :    hydro orbital   3 s accepted.
  | Species O :   atomic orbital   2 s accepted.
  | Species O :    hydro orbital   1 s accepted.
  | Species O :    hydro orbital   3 p accepted.
  | Species O :   atomic orbital   2 p accepted.
  | Species O :    hydro orbital   2 p accepted.
  | Species O :    hydro orbital   3 d accepted.
  | Species O :    hydro orbital   3 d accepted.
  | Species O :    hydro orbital   4 f accepted.
  | Species O :    hydro orbital   5 g accepted.
 
  Basis size parameters after reduction:
  | Total number of radial functions:       18
  | Total number of basis functions :      483
 
  Testing on-site integration grid accuracy.
  |  Species  Function  <phi|h_atom|phi> (log., in eV)  <phi|h_atom|phi> (rad., in eV)
           1        1                 -6.5683835025                 -6.5684759159
           1        2                 13.3711789951                 13.3708738703
           1        3                 23.6590910787                 23.6532055418
           1        4                 16.2963827186                 16.1870710655 ***
           1        5                 28.7627214838                 28.7627215090
           1        6                 59.5965249172                 59.5965950857
           1        7                 60.2220506392                 60.2220503827
           2        8               -515.4964576505               -515.4964530710
           2        9                 15.3030791347                 15.3030722972
           2       10                -21.7296094581                -21.7296135470
           2       11                 14.2969371730                 14.2969701621
           2       12                 21.0679693190                 21.0679697493
           2       13                 -2.3833606469                 -2.3833613176
           2       14                 13.7067136422                 13.7066766629
           2       15                 45.8013116808                 45.8013116965
           2       16                 52.2309815402                 52.2309831494
           2       17                 85.4120732416                 85.4120732763
           2       18                142.1019167745                142.1019167817
 * Note: Onsite integrals marked "***" above are less accurate than
 * onsite_accuracy_threshold =    0.03000 eV. Usually, this is harmless.
 * When in doubt, tighten the "radial" and/or "radial_multiplier" flags to check.

  Preparing densities etc. for the partition functions (integrals / Hartree potential).

  Preparations completed.
  max(cpu_time)          :      0.174 s.
  Wall clock time (cpu1) :      0.470 s.
------------------------------------------------------------

------------------------------------------------------------
          Begin self-consistency loop: Initialization.

          Date     :  20150727, Time     :  114553.888
------------------------------------------------------------

  Initializing index lists of integration centers etc. from given atomic structure:
  | Number of centers in hartree potential         :        21
  | Number of centers in hartree multipole         :        21
  | Number of centers in electron density summation:        21
  | Number of centers in basis integrals           :        21
  | Number of centers in integrals                 :        21
  Partitioning the integration grid into batches with parallel hashing+maxmin method.
  | Number of batches:     2710
  | Maximal batch size:     196
  | Minimal batch size:      66
  | Average batch size:     101.621
  | Standard deviation of batch sizes:      32.692

  Integration load balanced across     8 MPI tasks.
  Work distribution over tasks is as follows:
  Task     0 has      34523 integration points.
  Task     1 has      34414 integration points.
  Task     2 has      34443 integration points.
  Task     3 has      34421 integration points.
  Task     4 has      34383 integration points.
  Task     5 has      34400 integration points.
  Task     6 has      34411 integration points.
  Task     7 has      34399 integration points.
  Initializing partition tables, free-atom densities, potentials, etc. across the integration grid (initialize_grid_storage).
  | Net number of integration points:   275394
  | of which are non-zero points    :   274830
  Obtaining max. number of non-zero basis functions in each batch (get_n_compute_maxes).
  | Maximal number of non-zero basis functions:      478 in task     0
  | Maximal number of non-zero basis functions:      478 in task     1
  | Maximal number of non-zero basis functions:      478 in task     2
  | Maximal number of non-zero basis functions:      478 in task     3
  | Maximal number of non-zero basis functions:      478 in task     4
  | Maximal number of non-zero basis functions:      478 in task     5
  | Maximal number of non-zero basis functions:      479 in task     6
  | Maximal number of non-zero basis functions:      478 in task     7
  Integrating Hamiltonian matrix: batch-based integration.
  Time summed over all CPUs for integration: real work       16.154 s, elapsed       16.459 s
  Integrating overlap matrix.
  Time summed over all CPUs for integration: real work        8.915 s, elapsed        9.055 s

  Updating Kohn-Sham eigenvalues, eigenvectors, occupation numbers, and Fermi level.
  Solving generalized eigenproblem
  Updating Kohn-Sham eigenvalues and eigenfunctions.
  Transforming overlap matrix and checking for singularities.
  Overlap matrix is nonsingular:
  | Lowest eigenvalue:  0.265343E-03
  Solving real generalised eigenvalue problem by standard LAPACK (fast)
  Determining occupation numbers for Kohn-Sham eigenstates.
  | Chemical potential (Fermi level) in eV                 : -.32779478E+01
  | Error in electron count due to remaining E_F inaccuracy: 0.00000000E+00
  | Maximum occupation number of highest empty state:  0.00E+00

  Writing Kohn-Sham eigenvalues.

  State    Occupation    Eigenvalue [Ha]    Eigenvalue [eV]
      1       2.00000         -19.064909         -518.78257
      2       2.00000         -19.056851         -518.56331
      3       2.00000         -19.052096         -518.43390
      4       2.00000         -19.050670         -518.39510
      5       2.00000         -19.045475         -518.25374
      6       2.00000         -19.036182         -518.00087
      7       2.00000         -19.019673         -517.55162
      8       2.00000          -1.122237          -30.53762
      9       2.00000          -1.110155          -30.20885
     10       2.00000          -1.101220          -29.96573
     11       2.00000          -1.099379          -29.91561
     12       2.00000          -1.089082          -29.63543
     13       2.00000          -1.068050          -29.06313
     14       2.00000          -1.043479          -28.39450
     15       2.00000          -0.654700          -17.81529
     16       2.00000          -0.653380          -17.77938
     17       2.00000          -0.648538          -17.64762
     18       2.00000          -0.632501          -17.21124
     19       2.00000          -0.611106          -16.62905
     20       2.00000          -0.606370          -16.50017
     21       2.00000          -0.597239          -16.25169
     22       2.00000          -0.532019          -14.47698
     23       2.00000          -0.526755          -14.33373
     24       2.00000          -0.512962          -13.95839
     25       2.00000          -0.507607          -13.81270
     26       2.00000          -0.506756          -13.78952
     27       2.00000          -0.488649          -13.29680
     28       2.00000          -0.479920          -13.05930
     29       2.00000          -0.445066          -12.11086
     30       2.00000          -0.441718          -12.01976
     31       2.00000          -0.440877          -11.99689
     32       2.00000          -0.438736          -11.93862
     33       2.00000          -0.437652          -11.90911
     34       2.00000          -0.430538          -11.71552
     35       2.00000          -0.402529          -10.95337
     36       0.00000          -0.097798           -2.66122
     37       0.00000          -0.068240           -1.85689
     38       0.00000          -0.061070           -1.66181
     39       0.00000          -0.051110           -1.39076
     40       0.00000          -0.037905           -1.03145
     41       0.00000          -0.034799           -0.94693
     42       0.00000          -0.023166           -0.63037
     43       0.00000           0.020967            0.57054
     44       0.00000           0.032744            0.89102
     45       0.00000           0.036556            0.99475
     46       0.00000           0.044569            1.21278
     47       0.00000           0.045569            1.24001
     48       0.00000           0.055467            1.50934
     49       0.00000           0.060903            1.65724
     50       0.00000           0.069883            1.90163
     51       0.00000           0.083235            2.26494
     52       0.00000           0.089385            2.43228
     53       0.00000           0.090578            2.46474
     54       0.00000           0.097528            2.65388
     55       0.00000           0.106030            2.88522
     56       0.00000           0.107155            2.91584
     57       0.00000           0.111328            3.02938
     58       0.00000           0.119532            3.25263
     59       0.00000           0.123368            3.35700
     60       0.00000           0.128848            3.50613
     61       0.00000           0.133870            3.64278
     62       0.00000           0.135928            3.69879
     63       0.00000           0.141723            3.85648
     64       0.00000           0.148631            4.04445
     65       0.00000           0.151586            4.12486
     66       0.00000           0.164243            4.46927
     67       0.00000           0.172807            4.70231
     68       0.00000           0.185122            5.03742
     69       0.00000           0.196420            5.34487
     70       0.00000           0.214537            5.83785
     71       0.00000           0.234016            6.36791
     72       0.00000           0.235465            6.40733
     73       0.00000           0.241126            6.56138
     74       0.00000           0.243391            6.62299
     75       0.00000           0.260557            7.09012
     76       0.00000           0.279255            7.59891
     77       0.00000           0.288105            7.83973
     78       0.00000           0.294487            8.01340
     79       0.00000           0.308391            8.39174
     80       0.00000           0.316185            8.60383
     81       0.00000           0.320267            8.71491
     82       0.00000           0.322495            8.77553
     83       0.00000           0.337935            9.19568
     84       0.00000           0.348990            9.49651
     85       0.00000           0.360805            9.81799
     86       0.00000           0.369976           10.06756
     87       0.00000           0.375027           10.20499
     88       0.00000           0.386037           10.50459
     89       0.00000           0.397053           10.80435
     90       0.00000           0.403643           10.98369
     91       0.00000           0.409972           11.15589
     92       0.00000           0.421715           11.47545
     93       0.00000           0.438443           11.93065
     94       0.00000           0.443513           12.06860
     95       0.00000           0.446616           12.15303
     96       0.00000           0.460831           12.53985
     97       0.00000           0.472080           12.84596
     98       0.00000           0.488633           13.29638
     99       0.00000           0.504286           13.72232
    100       0.00000           0.505366           13.75171
    101       0.00000           0.521302           14.18536
    102       0.00000           0.527861           14.36383
    103       0.00000           0.541126           14.72480
    104       0.00000           0.558992           15.21094
    105       0.00000           0.562939           15.31834
    106       0.00000           0.575572           15.66211
    107       0.00000           0.590782           16.07598
    108       0.00000           0.613813           16.70269
    109       0.00000           0.638040           17.36194
    110       0.00000           0.665629           18.11270
    111       0.00000           0.674327           18.34938
    112       0.00000           0.695850           18.93505
    113       0.00000           0.711266           19.35454
    114       0.00000           0.718180           19.54266
    115       0.00000           0.747788           20.34836
    116       0.00000           0.758809           20.64824
    117       0.00000           0.774974           21.08812
    118       0.00000           0.786805           21.41005
    119       0.00000           0.797936           21.71294

  Highest occupied state (VBM) at    -10.95336806 eV
  | Occupation number:      2.00000000

  Lowest unoccupied state (CBM) at    -2.66122392 eV
  | Occupation number:      0.00000000

  Overall HOMO-LUMO gap:      8.29214414 eV.
  Calculating total energy contributions from superposition of free atom densities.

  Total energy components:
  | Sum of eigenvalues            :        -303.91015022 Ha       -8269.81595113 eV
  | XC energy correction          :         -63.85792652 Ha       -1737.66259185 eV
  | XC potential correction       :          81.61224412 Ha        2220.78215463 eV
  | Free-atom electrostatic energy:        -250.16480137 Ha       -6807.33059849 eV
  | Hartree energy correction     :           0.00000000 Ha           0.00000000 eV
  | van der Waals energy corr.    :           0.00000000 Ha           0.00000000 eV
  | Entropy correction            :           0.00000000 Ha           0.00000000 eV
  | ---------------------------
  | Total energy                  :        -536.32063399 Ha      -14594.02698684 eV
  | Total energy, T -> 0          :        -536.32063399 Ha      -14594.02698684 eV  <-- do not rely on this value for anything but (periodic) metals
  | Electronic free energy        :        -536.32063399 Ha      -14594.02698684 eV

  Derived energy quantities:
  | Kinetic energy                :         530.93107571 Ha       14447.36964404 eV
  | Electrostatic energy          :       -1003.39378318 Ha      -27303.73403903 eV
  | Energy correction for multipole
  | error in Hartree potential    :           0.00000000 Ha           0.00000000 eV
  | Sum of eigenvalues per atom                           :        -393.80075958 eV
  | Total energy (T->0) per atom                          :        -694.95366604 eV  <-- do not rely on this value for anything but (periodic) metals
  | Electronic free energy per atom                       :        -694.95366604 eV
  Initialize hartree_potential_storage
  Max. number of atoms included in rho_multipole:           21

  End scf initialization - timings             :  max(cpu_time)    wall_clock(cpu1)
  | Time for scf. initialization               :        4.236 s           4.235 s
  | Boundary condition initialization          :        0.000 s           0.000 s
  | Integration                                :        3.198 s           3.197 s
  | Solution of K.-S. eqns.                    :        0.436 s           0.436 s
  | Grid partitioning                          :        0.209 s           0.209 s
  | Preloading free-atom quantities on grid    :        0.013 s           0.013 s
  | Free-atom superposition energy             :        0.117 s           0.117 s
  | Total energy evaluation                    :        0.000 s           0.000 s
------------------------------------------------------------

------------------------------------------------------------
          Begin self-consistency iteration #    1

  Date     :  20150727, Time     :  114558.123
------------------------------------------------------------
  Evaluating new KS density.
  Integration grid: deviation in total charge (<rho> - N_e) =   1.421085E-14
  Pulay mixing of updated and previous charge densities.

  Evaluating partitioned Hartree potential by multipole expansion.
  | Analytical far-field extrapolation by fixed multipoles:
  | Hartree multipole sum: apparent total charge =  -0.240935E-05
  Summing up the Hartree potential.
  Time summed over all CPUs for potential: real work        4.985 s, elapsed        4.999 s
  | RMS charge density error from multipole expansion :   0.197563E-02

  Integrating Hamiltonian matrix: batch-based integration.
  Time summed over all CPUs for integration: real work       16.155 s, elapsed       16.648 s

  Updating Kohn-Sham eigenvalues, eigenvectors, occupation numbers, and Fermi level.
  Solving generalized eigenproblem
  Updating Kohn-Sham eigenvalues and eigenfunctions.
  Solving real generalised eigenvalue problem by standard LAPACK (fast)
  Determining occupation numbers for Kohn-Sham eigenstates.
  | Chemical potential (Fermi level) in eV                 : -.28558559E+01
  | Error in electron count due to remaining E_F inaccuracy: 0.00000000E+00
  | Maximum occupation number of highest empty state:  0.00E+00

  Writing Kohn-Sham eigenvalues.

  State    Occupation    Eigenvalue [Ha]    Eigenvalue [eV]
      1       2.00000         -18.991094         -516.77396
      2       2.00000         -18.981836         -516.52205
      3       2.00000         -18.980591         -516.48816
      4       2.00000         -18.977709         -516.40974
      5       2.00000         -18.967429         -516.12999
      6       2.00000         -18.957249         -515.85300
      7       2.00000         -18.925428         -514.98710
      8       2.00000          -1.085426          -29.53596
      9       2.00000          -1.072513          -29.18458
     10       2.00000          -1.065825          -29.00258
     11       2.00000          -1.058591          -28.80573
     12       2.00000          -1.048935          -28.54299
     13       2.00000          -1.031853          -28.07816
     14       2.00000          -0.989663          -26.93011
     15       2.00000          -0.621482          -16.91138
     16       2.00000          -0.620153          -16.87523
     17       2.00000          -0.603955          -16.43444
     18       2.00000          -0.602635          -16.39853
     19       2.00000          -0.585352          -15.92825
     20       2.00000          -0.577076          -15.70304
     21       2.00000          -0.556172          -15.13420
     22       2.00000          -0.498837          -13.57404
     23       2.00000          -0.487419          -13.26335
     24       2.00000          -0.476724          -12.97231
     25       2.00000          -0.469752          -12.78261
     26       2.00000          -0.460500          -12.53083
     27       2.00000          -0.448079          -12.19286
     28       2.00000          -0.435127          -11.84040
     29       2.00000          -0.409269          -11.13678
     30       2.00000          -0.404092          -10.99590
     31       2.00000          -0.402893          -10.96327
     32       2.00000          -0.395593          -10.76464
     33       2.00000          -0.390831          -10.63506
     34       2.00000          -0.384504          -10.46288
     35       2.00000          -0.346042           -9.41628
     36       0.00000          -0.088478           -2.40762
     37       0.00000          -0.060107           -1.63559
     38       0.00000          -0.048817           -1.32837
     39       0.00000          -0.043688           -1.18880
     40       0.00000          -0.027520           -0.74886
     41       0.00000          -0.026250           -0.71429
     42       0.00000          -0.013095           -0.35632
     43       0.00000           0.031794            0.86516
     44       0.00000           0.039942            1.08688
     45       0.00000           0.045930            1.24981
     46       0.00000           0.056001            1.52386
     47       0.00000           0.057451            1.56333
     48       0.00000           0.064267            1.74878
     49       0.00000           0.067993            1.85018
     50       0.00000           0.083126            2.26198
     51       0.00000           0.096285            2.62004
     52       0.00000           0.099748            2.71429
     53       0.00000           0.101131            2.75191
     54       0.00000           0.109687            2.98473
     55       0.00000           0.114785            3.12346
     56       0.00000           0.123482            3.36012
     57       0.00000           0.126251            3.43547
     58       0.00000           0.131145            3.56864
     59       0.00000           0.136704            3.71989
     60       0.00000           0.142984            3.89081
     61       0.00000           0.143831            3.91384
     62       0.00000           0.154157            4.19481
     63       0.00000           0.156369            4.25500
     64       0.00000           0.160310            4.36226
     65       0.00000           0.164263            4.46983
     66       0.00000           0.175820            4.78430
     67       0.00000           0.186963            5.08752
     68       0.00000           0.197308            5.36902
     69       0.00000           0.210562            5.72969
     70       0.00000           0.227963            6.20318
     71       0.00000           0.244548            6.65449
     72       0.00000           0.247547            6.73609
     73       0.00000           0.252062            6.85894
     74       0.00000           0.256795            6.98774
     75       0.00000           0.272635            7.41878
     76       0.00000           0.290909            7.91603
     77       0.00000           0.296778            8.07574
     78       0.00000           0.303683            8.26365
     79       0.00000           0.319089            8.68284
     80       0.00000           0.328657            8.94320
     81       0.00000           0.330498            8.99331
     82       0.00000           0.334022            9.08921
     83       0.00000           0.348208            9.47521
     84       0.00000           0.358263            9.74883
     85       0.00000           0.370186           10.07328
     86       0.00000           0.381700           10.38660
     87       0.00000           0.383533           10.43645
     88       0.00000           0.395963           10.77470
     89       0.00000           0.411336           11.19302
     90       0.00000           0.414618           11.28233
     91       0.00000           0.418164           11.37882
     92       0.00000           0.435480           11.85002
     93       0.00000           0.450811           12.26719
     94       0.00000           0.453884           12.35080
     95       0.00000           0.457914           12.46048
     96       0.00000           0.473553           12.88603
     97       0.00000           0.483515           13.15711
     98       0.00000           0.502146           13.66410
     99       0.00000           0.517197           14.07365
    100       0.00000           0.519414           14.13397
    101       0.00000           0.533028           14.50443
    102       0.00000           0.539382           14.67734
    103       0.00000           0.555697           15.12128
    104       0.00000           0.575085           15.64886
    105       0.00000           0.577654           15.71877
    106       0.00000           0.592428           16.12078
    107       0.00000           0.606620           16.50696
    108       0.00000           0.626538           17.04897
    109       0.00000           0.653044           17.77024
    110       0.00000           0.679456           18.48894
    111       0.00000           0.686946           18.69276
    112       0.00000           0.709810           19.31492
    113       0.00000           0.725284           19.73599
    114       0.00000           0.731538           19.90615
    115       0.00000           0.765095           20.81930
    116       0.00000           0.772716           21.02667
    117       0.00000           0.790423           21.50850
    118       0.00000           0.798573           21.73028
    119       0.00000           0.810621           22.05812

  Highest occupied state (VBM) at     -9.41628347 eV
  | Occupation number:      2.00000000

  Lowest unoccupied state (CBM) at    -2.40761740 eV
  | Occupation number:      0.00000000

  Overall HOMO-LUMO gap:      7.00866607 eV.

  Total energy components:
  | Sum of eigenvalues            :        -300.62126249 Ha       -8180.32076253 eV
  | XC energy correction          :         -64.19195832 Ha       -1746.75205977 eV
  | XC potential correction       :          82.04840037 Ha        2232.65057007 eV
  | Free-atom electrostatic energy:        -250.16480137 Ha       -6807.33059849 eV
  | Hartree energy correction     :          -3.19272591 Ha         -86.87849237 eV
  | van der Waals energy corr.    :           0.00000000 Ha           0.00000000 eV
  | Entropy correction            :           0.00000000 Ha           0.00000000 eV
  | ---------------------------
  | Total energy                  :        -536.12234773 Ha      -14588.63134310 eV
  | Total energy, T -> 0          :        -536.12234773 Ha      -14588.63134310 eV  <-- do not rely on this value for anything but (periodic) metals
  | Electronic free energy        :        -536.12234773 Ha      -14588.63134310 eV

  Derived energy quantities:
  | Kinetic energy                :         532.92665352 Ha       14501.67207918 eV
  | Electrostatic energy          :       -1004.85704292 Ha      -27343.55136251 eV
  | Energy correction for multipole
  | error in Hartree potential    :           0.00022042 Ha           0.00599787 eV
  | Sum of eigenvalues per atom                           :        -389.53908393 eV
  | Total energy (T->0) per atom                          :        -694.69673062 eV  <-- do not rely on this value for anything but (periodic) metals
  | Electronic free energy per atom                       :        -694.69673062 eV

  Self-consistency convergence accuracy:
  | Change of charge density      : 0.7805E+00
  | Change of sum of eigenvalues  : 0.8950E+02 eV
  | Change of total energy        : 0.5396E+01 eV

  End self-consistency iteration #     1       :  max(cpu_time)    wall_clock(cpu1)
  | Time for this iteration                    :        4.206 s           4.207 s
  | Charge density update                      :        1.364 s           1.364 s
  | Density mixing                             :        0.004 s           0.005 s
  | Hartree multipole update                   :        0.007 s           0.007 s
  | Hartree multipole summation                :        0.626 s           0.626 s
  | Integration                                :        2.085 s           2.084 s
  | Solution of K.-S. eqns.                    :        0.120 s           0.120 s
  | Total energy evaluation                    :        0.001 s           0.000 s
------------------------------------------------------------

------------------------------------------------------------
          Begin self-consistency iteration #    2

  Date     :  20150727, Time     :  114602.330
------------------------------------------------------------
  Evaluating new KS density.
  Integration grid: deviation in total charge (<rho> - N_e) =   2.842171E-14
  Pulay mixing of updated and previous charge densities.

  Evaluating partitioned Hartree potential by multipole expansion.
  | Analytical far-field extrapolation by fixed multipoles:
  | Hartree multipole sum: apparent total charge =  -0.686861E-05
  Summing up the Hartree potential.
  Time summed over all CPUs for potential: real work        4.985 s, elapsed        4.998 s
  | RMS charge density error from multipole expansion :   0.801006E-02

  Integrating Hamiltonian matrix: batch-based integration.
  Time summed over all CPUs for integration: real work       16.106 s, elapsed       16.402 s

  Updating Kohn-Sham eigenvalues, eigenvectors, occupation numbers, and Fermi level.
  Solving generalized eigenproblem
  Updating Kohn-Sham eigenvalues and eigenfunctions.
  Solving real generalised eigenvalue problem by standard LAPACK (fast)
  Determining occupation numbers for Kohn-Sham eigenstates.
  | Chemical potential (Fermi level) in eV                 : -.35211449E+01
  | Error in electron count due to remaining E_F inaccuracy: 0.00000000E+00
  | Maximum occupation number of highest empty state:  0.00E+00

  Highest occupied state (VBM) at     -5.64011099 eV
  | Occupation number:      2.00000000

  Lowest unoccupied state (CBM) at    -1.91560467 eV
  | Occupation number:      0.00000000

  Overall HOMO-LUMO gap:      3.72450632 eV.

  Total energy components:
  | Sum of eigenvalues            :        -292.62535658 Ha       -7962.74109225 eV
  | XC energy correction          :         -65.03815533 Ha       -1769.77825191 eV
  | XC potential correction       :          83.15203926 Ha        2262.68211230 eV
  | Free-atom electrostatic energy:        -250.16480137 Ha       -6807.33059849 eV
  | Hartree energy correction     :         -11.21162780 Ha        -305.08391494 eV
  | van der Waals energy corr.    :           0.00000000 Ha           0.00000000 eV
  | Entropy correction            :           0.00000000 Ha           0.00000000 eV
  | ---------------------------
  | Total energy                  :        -535.88790182 Ha      -14582.25174529 eV
  | Total energy, T -> 0          :        -535.88790182 Ha      -14582.25174529 eV  <-- do not rely on this value for anything but (periodic) metals
  | Electronic free energy        :        -535.88790182 Ha      -14582.25174529 eV

  Derived energy quantities:
  | Kinetic energy                :         537.05404256 Ha       14613.98404935 eV
  | Electrostatic energy          :       -1007.90378905 Ha      -27426.45754273 eV
  | Energy correction for multipole
  | error in Hartree potential    :          -0.00040615 Ha          -0.01105187 eV
  | Sum of eigenvalues per atom                           :        -379.17814725 eV
  | Total energy (T->0) per atom                          :        -694.39294025 eV  <-- do not rely on this value for anything but (periodic) metals
  | Electronic free energy per atom                       :        -694.39294025 eV

  Self-consistency convergence accuracy:
  | Change of charge density      : 0.5920E+00
  | Change of sum of eigenvalues  : 0.2176E+03 eV
  | Change of total energy        : 0.6380E+01 eV

  End self-consistency iteration #     2       :  max(cpu_time)    wall_clock(cpu1)
  | Time for this iteration                    :        4.171 s           4.172 s
  | Charge density update                      :        1.358 s           1.358 s
  | Density mixing                             :        0.008 s           0.008 s
  | Hartree multipole update                   :        0.007 s           0.007 s
  | Hartree multipole summation                :        0.625 s           0.625 s
  | Integration                                :        2.054 s           2.054 s
  | Solution of K.-S. eqns.                    :        0.119 s           0.119 s
  | Total energy evaluation                    :        0.000 s           0.000 s
------------------------------------------------------------

------------------------------------------------------------
          Begin self-consistency iteration #    3

  Date     :  20150727, Time     :  114606.502
------------------------------------------------------------
  Evaluating new KS density.
  Integration grid: deviation in total charge (<rho> - N_e) =   0.000000E+00
  Pulay mixing of updated and previous charge densities.

  Evaluating partitioned Hartree potential by multipole expansion.
  | Analytical far-field extrapolation by fixed multipoles:
  | Hartree multipole sum: apparent total charge =  -0.590407E-05
  Summing up the Hartree potential.
  Time summed over all CPUs for potential: real work        4.985 s, elapsed        4.998 s
  | RMS charge density error from multipole expansion :   0.159584E-01

  Integrating Hamiltonian matrix: batch-based integration.
  Time summed over all CPUs for integration: real work       16.113 s, elapsed       16.425 s

  Updating Kohn-Sham eigenvalues, eigenvectors, occupation numbers, and Fermi level.
  Solving generalized eigenproblem
  Updating Kohn-Sham eigenvalues and eigenfunctions.
  Solving real generalised eigenvalue problem by standard LAPACK (fast)
  Determining occupation numbers for Kohn-Sham eigenstates.
  | Chemical potential (Fermi level) in eV                 : -.36600984E+01
  | Error in electron count due to remaining E_F inaccuracy: 0.00000000E+00
  | Maximum occupation number of highest empty state:  0.00E+00

  Highest occupied state (VBM) at     -5.35053187 eV
  | Occupation number:      2.00000000

  Lowest unoccupied state (CBM) at    -1.86728834 eV
  | Occupation number:      0.00000000

  Overall HOMO-LUMO gap:      3.48324353 eV.

  Total energy components:
  | Sum of eigenvalues            :        -292.73655341 Ha       -7965.76691194 eV
  | XC energy correction          :         -65.02198916 Ha       -1769.33834803 eV
  | XC potential correction       :          83.12263711 Ha        2261.88203908 eV
  | Free-atom electrostatic energy:        -250.16480137 Ha       -6807.33059849 eV
  | Hartree energy correction     :         -11.07977854 Ha        -301.49611393 eV
  | van der Waals energy corr.    :           0.00000000 Ha           0.00000000 eV
  | Entropy correction            :           0.00000000 Ha           0.00000000 eV
  | ---------------------------
  | Total energy                  :        -535.88048537 Ha      -14582.04993332 eV
  | Total energy, T -> 0          :        -535.88048537 Ha      -14582.04993332 eV  <-- do not rely on this value for anything but (periodic) metals
  | Electronic free energy        :        -535.88048537 Ha      -14582.04993332 eV

  Derived energy quantities:
  | Kinetic energy                :         534.31562560 Ha       14539.46793264 eV
  | Electrostatic energy          :       -1005.17412181 Ha      -27352.17951793 eV
  | Energy correction for multipole
  | error in Hartree potential    :          -0.00679113 Ha          -0.18479607 eV
  | Sum of eigenvalues per atom                           :        -379.32223390 eV
  | Total energy (T->0) per atom                          :        -694.38333016 eV  <-- do not rely on this value for anything but (periodic) metals
  | Electronic free energy per atom                       :        -694.38333016 eV

  Self-consistency convergence accuracy:
  | Change of charge density      : 0.2892E+00
  | Change of sum of eigenvalues  : -.3026E+01 eV
  | Change of total energy        : 0.2018E+00 eV

  End self-consistency iteration #     3       :  max(cpu_time)    wall_clock(cpu1)
  | Time for this iteration                    :        4.172 s           4.171 s
  | Charge density update                      :        1.353 s           1.353 s
  | Density mixing                             :        0.009 s           0.010 s
  | Hartree multipole update                   :        0.007 s           0.006 s
  | Hartree multipole summation                :        0.626 s           0.625 s
  | Integration                                :        2.057 s           2.057 s
  | Solution of K.-S. eqns.                    :        0.119 s           0.119 s
  | Total energy evaluation                    :        0.001 s           0.000 s
------------------------------------------------------------

------------------------------------------------------------
          Begin self-consistency iteration #    4

  Date     :  20150727, Time     :  114610.674
------------------------------------------------------------
  Evaluating new KS density.
  Integration grid: deviation in total charge (<rho> - N_e) =   4.263256E-14
  Pulay mixing of updated and previous charge densities.

  Evaluating partitioned Hartree potential by multipole expansion.
  | Analytical far-field extrapolation by fixed multipoles:
  | Hartree multipole sum: apparent total charge =  -0.679999E-05
  Summing up the Hartree potential.
  Time summed over all CPUs for potential: real work        4.983 s, elapsed        4.997 s
  | RMS charge density error from multipole expansion :   0.204712E-01

  Integrating Hamiltonian matrix: batch-based integration.
  Time summed over all CPUs for integration: real work       16.105 s, elapsed       16.409 s

  Updating Kohn-Sham eigenvalues, eigenvectors, occupation numbers, and Fermi level.
  Solving generalized eigenproblem
  Updating Kohn-Sham eigenvalues and eigenfunctions.
  Solving real generalised eigenvalue problem by standard LAPACK (fast)
  Determining occupation numbers for Kohn-Sham eigenstates.
  | Chemical potential (Fermi level) in eV                 : -.35053779E+01
  | Error in electron count due to remaining E_F inaccuracy: 0.00000000E+00
  | Maximum occupation number of highest empty state:  0.00E+00

  Highest occupied state (VBM) at     -4.12666648 eV
  | Occupation number:      2.00000000

  Lowest unoccupied state (CBM) at    -1.73265645 eV
  | Occupation number:      0.00000000

  Overall HOMO-LUMO gap:      2.39401002 eV.

  Total energy components:
  | Sum of eigenvalues            :        -290.49837873 Ha       -7904.86308038 eV
  | XC energy correction          :         -65.28295785 Ha       -1776.43966727 eV
  | XC potential correction       :          83.46100582 Ha        2271.08952007 eV
  | Free-atom electrostatic energy:        -250.16480137 Ha       -6807.33059849 eV
  | Hartree energy correction     :         -13.38166576 Ha        -364.13365234 eV
  | van der Waals energy corr.    :           0.00000000 Ha           0.00000000 eV
  | Entropy correction            :           0.00000000 Ha           0.00000000 eV
  | ---------------------------
  | Total energy                  :        -535.86679790 Ha      -14581.67747841 eV
  | Total energy, T -> 0          :        -535.86679790 Ha      -14581.67747841 eV  <-- do not rely on this value for anything but (periodic) metals
  | Electronic free energy        :        -535.86679790 Ha      -14581.67747841 eV

  Derived energy quantities:
  | Kinetic energy                :         534.50351718 Ha       14544.58072268 eV
  | Electrostatic energy          :       -1005.08735724 Ha      -27349.81853382 eV
  | Energy correction for multipole
  | error in Hartree potential    :          -0.00936410 Ha          -0.25481015 eV
  | Sum of eigenvalues per atom                           :        -376.42205145 eV
  | Total energy (T->0) per atom                          :        -694.36559421 eV  <-- do not rely on this value for anything but (periodic) metals
  | Electronic free energy per atom                       :        -694.36559421 eV

  Self-consistency convergence accuracy:
  | Change of charge density      : 0.1515E+00
  | Change of sum of eigenvalues  : 0.6090E+02 eV
  | Change of total energy        : 0.3725E+00 eV

  End self-consistency iteration #     4       :  max(cpu_time)    wall_clock(cpu1)
  | Time for this iteration                    :        4.170 s           4.170 s
  | Charge density update                      :        1.352 s           1.351 s
  | Density mixing                             :        0.012 s           0.012 s
  | Hartree multipole update                   :        0.007 s           0.007 s
  | Hartree multipole summation                :        0.625 s           0.626 s
  | Integration                                :        2.055 s           2.054 s
  | Solution of K.-S. eqns.                    :        0.120 s           0.120 s
  | Total energy evaluation                    :        0.000 s           0.000 s
------------------------------------------------------------

------------------------------------------------------------
          Begin self-consistency iteration #    5

  Date     :  20150727, Time     :  114614.845
------------------------------------------------------------
  Evaluating new KS density.
  Integration grid: deviation in total charge (<rho> - N_e) =   0.000000E+00
  Pulay mixing of updated and previous charge densities.

  Evaluating partitioned Hartree potential by multipole expansion.
  | Analytical far-field extrapolation by fixed multipoles:
  | Hartree multipole sum: apparent total charge =  -0.672967E-05
  Summing up the Hartree potential.
  Time summed over all CPUs for potential: real work        4.983 s, elapsed        4.997 s
  | RMS charge density error from multipole expansion :   0.212247E-01

  Integrating Hamiltonian matrix: batch-based integration.
  Time summed over all CPUs for integration: real work       16.106 s, elapsed       16.394 s

  Updating Kohn-Sham eigenvalues, eigenvectors, occupation numbers, and Fermi level.
  Solving generalized eigenproblem
  Updating Kohn-Sham eigenvalues and eigenfunctions.
  Solving real generalised eigenvalue problem by standard LAPACK (fast)
  Determining occupation numbers for Kohn-Sham eigenstates.
  | Chemical potential (Fermi level) in eV                 : -.34714365E+01
  | Error in electron count due to remaining E_F inaccuracy: 0.00000000E+00
  | Maximum occupation number of highest empty state:  0.00E+00

  Highest occupied state (VBM) at     -3.89158328 eV
  | Occupation number:      2.00000000

  Lowest unoccupied state (CBM) at    -1.71600135 eV
  | Occupation number:      0.00000000

  Overall HOMO-LUMO gap:      2.17558194 eV.

  Total energy components:
  | Sum of eigenvalues            :        -290.31752892 Ha       -7899.94190644 eV
  | XC energy correction          :         -65.30981418 Ha       -1777.17046525 eV
  | XC potential correction       :          83.49529552 Ha        2272.02259042 eV
  | Free-atom electrostatic energy:        -250.16480137 Ha       -6807.33059849 eV
  | Hartree energy correction     :         -13.56972032 Ha        -369.25087720 eV
  | van der Waals energy corr.    :           0.00000000 Ha           0.00000000 eV
  | Entropy correction            :           0.00000000 Ha           0.00000000 eV
  | ---------------------------
  | Total energy                  :        -535.86656926 Ha      -14581.67125695 eV
  | Total energy, T -> 0          :        -535.86656926 Ha      -14581.67125695 eV  <-- do not rely on this value for anything but (periodic) metals
  | Electronic free energy        :        -535.86656926 Ha      -14581.67125695 eV

  Derived energy quantities:
  | Kinetic energy                :         534.54584430 Ha       14545.73250208 eV
  | Electrostatic energy          :       -1005.10259938 Ha      -27350.23329378 eV
  | Energy correction for multipole
  | error in Hartree potential    :          -0.00989295 Ha          -0.26920079 eV
  | Sum of eigenvalues per atom                           :        -376.18770983 eV
  | Total energy (T->0) per atom                          :        -694.36529795 eV  <-- do not rely on this value for anything but (periodic) metals
  | Electronic free energy per atom                       :        -694.36529795 eV

  Self-consistency convergence accuracy:
  | Change of charge density      : 0.3543E-01
  | Change of sum of eigenvalues  : 0.4921E+01 eV
  | Change of total energy        : 0.6221E-02 eV

  End self-consistency iteration #     5       :  max(cpu_time)    wall_clock(cpu1)
  | Time for this iteration                    :        4.172 s           4.171 s
  | Charge density update                      :        1.354 s           1.353 s
  | Density mixing                             :        0.014 s           0.014 s
  | Hartree multipole update                   :        0.007 s           0.006 s
  | Hartree multipole summation                :        0.625 s           0.625 s
  | Integration                                :        2.053 s           2.053 s
  | Solution of K.-S. eqns.                    :        0.119 s           0.119 s
  | Total energy evaluation                    :        0.000 s           0.000 s
------------------------------------------------------------

------------------------------------------------------------
          Begin self-consistency iteration #    6

  Date     :  20150727, Time     :  114619.017
------------------------------------------------------------
  Evaluating new KS density.
  Integration grid: deviation in total charge (<rho> - N_e) =   0.000000E+00
  Pulay mixing of updated and previous charge densities.

  Evaluating partitioned Hartree potential by multipole expansion.
  | Analytical far-field extrapolation by fixed multipoles:
  | Hartree multipole sum: apparent total charge =  -0.669486E-05
  Summing up the Hartree potential.
  Time summed over all CPUs for potential: real work        4.983 s, elapsed        4.998 s
  | RMS charge density error from multipole expansion :   0.214449E-01

  Integrating Hamiltonian matrix: batch-based integration.
  Time summed over all CPUs for integration: real work       16.104 s, elapsed       16.406 s

  Updating Kohn-Sham eigenvalues, eigenvectors, occupation numbers, and Fermi level.
  Solving generalized eigenproblem
  Updating Kohn-Sham eigenvalues and eigenfunctions.
  Solving real generalised eigenvalue problem by standard LAPACK (fast)
  Determining occupation numbers for Kohn-Sham eigenstates.
  | Chemical potential (Fermi level) in eV                 : -.34655935E+01
  | Error in electron count due to remaining E_F inaccuracy: 0.00000000E+00
  | Maximum occupation number of highest empty state:  0.00E+00

  Highest occupied state (VBM) at     -3.87917372 eV
  | Occupation number:      2.00000000

  Lowest unoccupied state (CBM) at    -1.71146042 eV
  | Occupation number:      0.00000000

  Overall HOMO-LUMO gap:      2.16771330 eV.

  Total energy components:
  | Sum of eigenvalues            :        -290.29148631 Ha       -7899.23325105 eV
  | XC energy correction          :         -65.31456842 Ha       -1777.29983477 eV
  | XC potential correction       :          83.50123832 Ha        2272.18430210 eV
  | Free-atom electrostatic energy:        -250.16480137 Ha       -6807.33059849 eV
  | Hartree energy correction     :         -13.59699321 Ha        -369.99301029 eV
  | van der Waals energy corr.    :           0.00000000 Ha           0.00000000 eV
  | Entropy correction            :           0.00000000 Ha           0.00000000 eV
  | ---------------------------
  | Total energy                  :        -535.86661100 Ha      -14581.67239250 eV
  | Total energy, T -> 0          :        -535.86661100 Ha      -14581.67239250 eV  <-- do not rely on this value for anything but (periodic) metals
  | Electronic free energy        :        -535.86661100 Ha      -14581.67239250 eV

  Derived energy quantities:
  | Kinetic energy                :         534.54433009 Ha       14545.69129831 eV
  | Electrostatic energy          :       -1005.09637266 Ha      -27350.06385604 eV
  | Energy correction for multipole
  | error in Hartree potential    :          -0.01005686 Ha          -0.27366117 eV
  | Sum of eigenvalues per atom                           :        -376.15396434 eV
  | Total energy (T->0) per atom                          :        -694.36535202 eV  <-- do not rely on this value for anything but (periodic) metals
  | Electronic free energy per atom                       :        -694.36535202 eV

  Self-consistency convergence accuracy:
  | Change of charge density      : 0.1226E-01
  | Change of sum of eigenvalues  : 0.7087E+00 eV
  | Change of total energy        : -.1136E-02 eV

  End self-consistency iteration #     6       :  max(cpu_time)    wall_clock(cpu1)
  | Time for this iteration                    :        4.176 s           4.176 s
  | Charge density update                      :        1.354 s           1.353 s
  | Density mixing                             :        0.015 s           0.016 s
  | Hartree multipole update                   :        0.007 s           0.007 s
  | Hartree multipole summation                :        0.626 s           0.625 s
  | Integration                                :        2.055 s           2.055 s
  | Solution of K.-S. eqns.                    :        0.119 s           0.119 s
  | Total energy evaluation                    :        0.001 s           0.000 s
------------------------------------------------------------

------------------------------------------------------------
          Begin self-consistency iteration #    7

  Date     :  20150727, Time     :  114623.193
------------------------------------------------------------
  Evaluating new KS density.
  Integration grid: deviation in total charge (<rho> - N_e) =   7.105427E-14
  Pulay mixing of updated and previous charge densities.

  Evaluating partitioned Hartree potential by multipole expansion.
  | Analytical far-field extrapolation by fixed multipoles:
  | Hartree multipole sum: apparent total charge =  -0.643593E-05
  Summing up the Hartree potential.
  Time summed over all CPUs for potential: real work        4.983 s, elapsed        4.998 s
  | RMS charge density error from multipole expansion :   0.214868E-01

  Integrating Hamiltonian matrix: batch-based integration.
  Time summed over all CPUs for integration: real work       16.112 s, elapsed       16.394 s

  Updating Kohn-Sham eigenvalues, eigenvectors, occupation numbers, and Fermi level.
  Solving generalized eigenproblem
  Updating Kohn-Sham eigenvalues and eigenfunctions.
  Solving real generalised eigenvalue problem by standard LAPACK (fast)
  Determining occupation numbers for Kohn-Sham eigenstates.
  | Chemical potential (Fermi level) in eV                 : -.35082176E+01
  | Error in electron count due to remaining E_F inaccuracy: 0.00000000E+00
  | Maximum occupation number of highest empty state:  0.00E+00

  Highest occupied state (VBM) at     -4.02366634 eV
  | Occupation number:      2.00000000

  Lowest unoccupied state (CBM) at    -1.71955363 eV
  | Occupation number:      0.00000000

  Overall HOMO-LUMO gap:      2.30411271 eV.

  Total energy components:
  | Sum of eigenvalues            :        -290.46787849 Ha       -7904.03312660 eV
  | XC energy correction          :         -65.29866301 Ha       -1776.86702659 eV
  | XC potential correction       :          83.47984695 Ha        2271.60221330 eV
  | Free-atom electrostatic energy:        -250.16480137 Ha       -6807.33059849 eV
  | Hartree energy correction     :         -13.41501283 Ha        -365.04107232 eV
  | van der Waals energy corr.    :           0.00000000 Ha           0.00000000 eV
  | Entropy correction            :           0.00000000 Ha           0.00000000 eV
  | ---------------------------
  | Total energy                  :        -535.86650877 Ha      -14581.66961069 eV
  | Total energy, T -> 0          :        -535.86650877 Ha      -14581.66961069 eV  <-- do not rely on this value for anything but (periodic) metals
  | Electronic free energy        :        -535.86650877 Ha      -14581.66961069 eV

  Derived energy quantities:
  | Kinetic energy                :         534.61083356 Ha       14547.50094987 eV
  | Electrostatic energy          :       -1005.17867931 Ha      -27352.30353397 eV
  | Energy correction for multipole
  | error in Hartree potential    :          -0.01016412 Ha          -0.27657981 eV
  | Sum of eigenvalues per atom                           :        -376.38252984 eV
  | Total energy (T->0) per atom                          :        -694.36521956 eV  <-- do not rely on this value for anything but (periodic) metals
  | Electronic free energy per atom                       :        -694.36521956 eV

  Self-consistency convergence accuracy:
  | Change of charge density      : 0.1109E-01
  | Change of sum of eigenvalues  : -.4800E+01 eV
  | Change of total energy        : 0.2782E-02 eV

  End self-consistency iteration #     7       :  max(cpu_time)    wall_clock(cpu1)
  | Time for this iteration                    :        4.176 s           4.176 s
  | Charge density update                      :        1.353 s           1.353 s
  | Density mixing                             :        0.018 s           0.018 s
  | Hartree multipole update                   :        0.007 s           0.006 s
  | Hartree multipole summation                :        0.626 s           0.626 s
  | Integration                                :        2.053 s           2.053 s
  | Solution of K.-S. eqns.                    :        0.119 s           0.119 s
  | Total energy evaluation                    :        0.001 s           0.000 s
------------------------------------------------------------

------------------------------------------------------------
          Begin self-consistency iteration #    8

  Date     :  20150727, Time     :  114627.369
------------------------------------------------------------
  Evaluating new KS density.
  Integration grid: deviation in total charge (<rho> - N_e) =   4.263256E-14
  Pulay mixing of updated and previous charge densities.

  Evaluating partitioned Hartree potential by multipole expansion.
  | Analytical far-field extrapolation by fixed multipoles:
  | Hartree multipole sum: apparent total charge =  -0.643285E-05
  Summing up the Hartree potential.
  Time summed over all CPUs for potential: real work        4.988 s, elapsed        5.018 s
  | RMS charge density error from multipole expansion :   0.215498E-01

  Integrating Hamiltonian matrix: batch-based integration.
  Time summed over all CPUs for integration: real work       16.109 s, elapsed       16.416 s

  Updating Kohn-Sham eigenvalues, eigenvectors, occupation numbers, and Fermi level.
  Solving generalized eigenproblem
  Updating Kohn-Sham eigenvalues and eigenfunctions.
  Solving real generalised eigenvalue problem by standard LAPACK (fast)
  Determining occupation numbers for Kohn-Sham eigenstates.
  | Chemical potential (Fermi level) in eV                 : -.35047504E+01
  | Error in electron count due to remaining E_F inaccuracy: 0.00000000E+00
  | Maximum occupation number of highest empty state:  0.00E+00

  Highest occupied state (VBM) at     -3.99970428 eV
  | Occupation number:      2.00000000

  Lowest unoccupied state (CBM) at    -1.71938713 eV
  | Occupation number:      0.00000000

  Overall HOMO-LUMO gap:      2.28031714 eV.

  Total energy components:
  | Sum of eigenvalues            :        -290.44854730 Ha       -7903.50709792 eV
  | XC energy correction          :         -65.30072917 Ha       -1776.92324950 eV
  | XC potential correction       :          83.48249099 Ha        2271.67416141 eV
  | Free-atom electrostatic energy:        -250.16480137 Ha       -6807.33059849 eV
  | Hartree energy correction     :         -13.43492229 Ha        -365.58283620 eV
  | van der Waals energy corr.    :           0.00000000 Ha           0.00000000 eV
[...]
  Timings for vdw_correction_hirshfeld (Tkatchenko-Scheffler 2009):
  | CPU time:       11.307 s, Wall clock time:       11.308 s.
  Removing unitary transformations (pure translations, rotations) from forces on atoms.
  Atomic forces before filtering:
  | Net force on center of mass :  0.131133E-01 0.233052E-03 0.308933E-02 eV/A
  | Net torque on center of mass:  -.119429E-01 -.228738E-02 -.497783E-02 eV
  Atomic forces after filtering:
  | Net force on center of mass :  -.446015E-15 0.802828E-15 0.000000E+00 eV/A
  | Net torque on center of mass:  -.198258E-14 -.330430E-14 -.226580E-14 eV
 
  Energy and forces in a compact form:
  | Total energy uncorrected      :         -0.145818147213822E+05 eV
  | Total energy corrected        :         -0.145818147213822E+05 eV  <-- do not rely on this value for anything but (periodic) metals
  | Electronic free energy        :         -0.145818147213822E+05 eV
  Total atomic forces (unitary forces cleaned) [eV/Ang]:
  |   1          0.935624840286480E+00          0.266082238185133E+01         -0.176484209309909E+01
  |   2          0.182993206532861E+01         -0.286453070142764E+01          0.118592740924750E+01
  |   3         -0.207375027259496E+01         -0.466193481602608E+00         -0.106984926403041E+00
  |   4         -0.701668315698593E+00         -0.201027921807447E+01         -0.482820822970011E+00
  |   5         -0.288020476863330E+00          0.745394573497442E+00          0.100148587450574E+01
  |   6          0.630805956551066E+00          0.730582166588958E+00          0.197528956229837E+00
  |   7         -0.102855711202590E+00          0.579427294324051E+00          0.213300783585269E+01
  |   8         -0.198909097512520E+00         -0.226754297377489E+00         -0.100702698581729E+00
  |   9         -0.294070296061883E+00          0.328797664818474E+00         -0.237250909373403E+01
  |  10         -0.369647093319842E+00          0.918879969197809E+00          0.257050396780882E+01
  |  11         -0.272089644262357E+00          0.177072350952128E+00         -0.220673049469212E+01
  |  12          0.766541411452118E+00         -0.998173398589971E+00          0.192185629051934E+00
  |  13          0.143314490634951E+01          0.107582912184759E+01         -0.235969572638928E+01
  |  14         -0.346953681536692E+00         -0.285117468829569E+00          0.259143480135793E+00
  |  15         -0.910365550112907E+00         -0.616960935854308E+00          0.180340448018211E+01
  |  16          0.644915141409165E+00          0.199532101277704E+01         -0.897997779054075E+00
  |  17          0.356539268017759E+00         -0.597414475547170E+00          0.401280298836515E+00
  |  18         -0.787095118365980E+00         -0.136233042909899E+01          0.629594831490822E+00
  |  19          0.725729122062216E+00          0.449509928259491E+00         -0.134271936129416E+01
  |  20         -0.364219955124503E+00          0.499697677961332E+00          0.418021007667528E+00
  |  21         -0.613587498800777E+00         -0.733579735673436E+00          0.842919225208235E+00
 
  ------------------------------------ 
  Start decomposition of the XC Energy 
  ------------------------------------ 
  Hartree-Fock part   :          0.000000000 Ha              0.000000000 eV
  ------------------------------------ 
  X Energy            :        -62.995718483 Ha          -1714.200717490 eV
  C Energy GGA        :         -2.304316166 Ha            -62.703633208 eV
  Total XC Energy     :        -65.300034649 Ha          -1776.904350698 eV
  LDA X and C from self-consistent density 
  X Energy LDA        :        -56.805991178 Ha          -1545.769667844 eV
  C Energy LDA        :         -4.626839135 Ha           -125.902698714 eV
  ------------------------------------ 
  End decomposition of the XC Energy 
  ------------------------------------ 
  Performing Hirshfeld analysis of fragment charges and moments.
  ----------------------------------------------------------------------
  | Atom     1: O
  |   Hirshfeld charge        :     -0.35280065
  |   Free atom volume        :     23.95238533
  |   Hirshfeld volume        :     23.83909890
  |   Hirshfeld dipole vector :      0.01046416       0.06018415       0.03293069
  |   Hirshfeld dipole moment :      0.06939785
  |   Hirshfeld second moments:      0.02384193      -0.01212450       0.01677420
  |                                 -0.01212450      -0.05595848      -0.03106723
  |                                  0.01677420      -0.03106723      -0.08236907
  ----------------------------------------------------------------------
  | Atom     2: H
  |   Hirshfeld charge        :      0.06420560
  |   Free atom volume        :     10.44207651
  |   Hirshfeld volume        :      8.51882407
  |   Hirshfeld dipole vector :     -0.02452507       0.03723705      -0.00568687
  |   Hirshfeld dipole moment :      0.04494906
  |   Hirshfeld second moments:      0.06859884       0.03103075       0.00138850
  |                                  0.03103075       0.02450118       0.00747847
  |                                  0.00138850       0.00747847       0.06066862
  ----------------------------------------------------------------------
  | Atom     3: H
  |   Hirshfeld charge        :      0.09124506
  |   Free atom volume        :     10.44207651
  |   Hirshfeld volume        :      7.99521151
  |   Hirshfeld dipole vector :      0.10464331       0.02618900       0.02043068
  |   Hirshfeld dipole moment :      0.10978843
  |   Hirshfeld second moments:      0.08384518      -0.01615427      -0.00271286
  |                                 -0.01615427       0.07465560      -0.01445471
  |                                 -0.00271286      -0.01445471       0.05991084
  ----------------------------------------------------------------------
  | Atom     4: O
  |   Hirshfeld charge        :     -0.31085717
  |   Free atom volume        :     23.95238533
  |   Hirshfeld volume        :     22.46184656
  |   Hirshfeld dipole vector :     -0.03059884       0.02633659       0.01295473
  |   Hirshfeld dipole moment :      0.04239965
  |   Hirshfeld second moments:      0.01583961       0.05522692      -0.01088914
  |                                  0.05522692       0.00917532       0.01742431
  |                                 -0.01088914       0.01742431      -0.01324548
  ----------------------------------------------------------------------
  | Atom     5: H
  |   Hirshfeld charge        :      0.07163209
  |   Free atom volume        :     10.44207651
  |   Hirshfeld volume        :      8.10004710
  |   Hirshfeld dipole vector :      0.01419062       0.04374432       0.02963748
  |   Hirshfeld dipole moment :      0.05471124
  |   Hirshfeld second moments:      0.08310119       0.00126512      -0.01228628
  |                                  0.00126512       0.03540870      -0.01884892
  |                                 -0.01228628      -0.01884892       0.06919130
  ----------------------------------------------------------------------
  | Atom     6: H
  |   Hirshfeld charge        :      0.12126672
  |   Free atom volume        :     10.44207651
  |   Hirshfeld volume        :      6.97172049
  |   Hirshfeld dipole vector :     -0.10193634      -0.05955858       0.01898688
  |   Hirshfeld dipole moment :      0.11957735
  |   Hirshfeld second moments:      0.09058229       0.01415317      -0.00014970
  |                                  0.01415317       0.10506505       0.01232795
  |                                 -0.00014970       0.01232795       0.09525667
  ----------------------------------------------------------------------
  | Atom     7: O
  |   Hirshfeld charge        :     -0.20011609
  |   Free atom volume        :     23.95238533
  |   Hirshfeld volume        :     20.47007270
  |   Hirshfeld dipole vector :      0.03116103      -0.01168311      -0.01285269
  |   Hirshfeld dipole moment :      0.03567487
  |   Hirshfeld second moments:      0.03509367       0.01242530       0.02669375
  |                                  0.01242530       0.07570957       0.00472712
  |                                  0.02669375       0.00472712       0.10032890
  ----------------------------------------------------------------------
  | Atom     8: H
  |   Hirshfeld charge        :      0.11705145
  |   Free atom volume        :     10.44207651
  |   Hirshfeld volume        :      7.27541202
  |   Hirshfeld dipole vector :      0.02864743       0.03932760       0.01040977
  |   Hirshfeld dipole moment :      0.04975639
  |   Hirshfeld second moments:      0.08271702      -0.02071229      -0.00731204
  |                                 -0.02071229       0.07163543      -0.02716511
  |                                 -0.00731204      -0.02716511       0.10405736
  ----------------------------------------------------------------------
  | Atom     9: H
  |   Hirshfeld charge        :      0.15991389
  |   Free atom volume        :     10.44207651
  |   Hirshfeld volume        :      6.00588693
  |   Hirshfeld dipole vector :     -0.01795925       0.00916742      -0.11867382
  |   Hirshfeld dipole moment :      0.12037464
  |   Hirshfeld second moments:      0.11812672       0.00950312       0.00828406
  |                                  0.00950312       0.13198330       0.00218007
  |                                  0.00828406       0.00218007       0.12293260
  ----------------------------------------------------------------------
  | Atom    10: O
  |   Hirshfeld charge        :     -0.19334439
  |   Free atom volume        :     23.95238533
  |   Hirshfeld volume        :     20.33663474
  |   Hirshfeld dipole vector :     -0.00464555      -0.00986272      -0.01457349
  |   Hirshfeld dipole moment :      0.01820002
  |   Hirshfeld second moments:      0.06034074      -0.01294450       0.00601168
  |                                 -0.01294450       0.05669971      -0.00694111
  |                                  0.00601168      -0.00694111       0.09900222
  ----------------------------------------------------------------------
  | Atom    11: H
  |   Hirshfeld charge        :      0.16161310
  |   Free atom volume        :     10.44207651
  |   Hirshfeld volume        :      5.86992665
  |   Hirshfeld dipole vector :      0.01715765      -0.01589328       0.11399047
  |   Hirshfeld dipole moment :      0.11636498
  |   Hirshfeld second moments:      0.13026010      -0.00774044      -0.00047199
  |                                 -0.00774044       0.12423537       0.00006132
  |                                 -0.00047199       0.00006132       0.12159656
  ----------------------------------------------------------------------
  | Atom    12: H
  |   Hirshfeld charge        :      0.10318443
  |   Free atom volume        :     10.44207651
  |   Hirshfeld volume        :      7.40679144
  |   Hirshfeld dipole vector :     -0.02534167       0.02083724       0.00301482
  |   Hirshfeld dipole moment :      0.03294662
  |   Hirshfeld second moments:      0.06462555       0.02446580      -0.01832011
  |                                  0.02446580       0.06599031       0.01333675
  |                                 -0.01832011       0.01333675       0.10839752
  ----------------------------------------------------------------------
  | Atom    13: O
  |   Hirshfeld charge        :     -0.26189263
  |   Free atom volume        :     23.95238533
  |   Hirshfeld volume        :     20.88503139
  |   Hirshfeld dipole vector :     -0.01399452       0.01381952       0.03317727
  |   Hirshfeld dipole moment :      0.03856886
  |   Hirshfeld second moments:      0.07289688       0.03571822       0.01231619
  |                                  0.03571822       0.03430580      -0.01253239
  |                                  0.01231619      -0.01253239       0.03904264
  ----------------------------------------------------------------------
  | Atom    14: H
  |   Hirshfeld charge        :      0.15232185
  |   Free atom volume        :     10.44207651
  |   Hirshfeld volume        :      5.98051316
  |   Hirshfeld dipole vector :      0.09637392       0.06486461       0.03573811
  |   Hirshfeld dipole moment :      0.12154243
  |   Hirshfeld second moments:      0.12404567       0.00594846      -0.00465995
  |                                  0.00594846       0.11297235      -0.00934005
  |                                 -0.00465995      -0.00934005       0.12682454
  ----------------------------------------------------------------------
  | Atom    15: H
  |   Hirshfeld charge        :      0.09905148
  |   Free atom volume        :     10.44207651
  |   Hirshfeld volume        :      7.48896207
  |   Hirshfeld dipole vector :     -0.02348382      -0.01736803       0.03145587
  |   Hirshfeld dipole moment :      0.04292563
  |   Hirshfeld second moments:      0.07555216      -0.00397735       0.03741389
  |                                 -0.00397735       0.08855921       0.01145365
  |                                  0.03741389       0.01145365       0.07174421
  ----------------------------------------------------------------------
  | Atom    16: O
  |   Hirshfeld charge        :     -0.18956636
  |   Free atom volume        :     23.95238533
  |   Hirshfeld volume        :     19.97648555
  |   Hirshfeld dipole vector :      0.00440392      -0.01577755      -0.00020559
  |   Hirshfeld dipole moment :      0.01638194
  |   Hirshfeld second moments:      0.07562725       0.00254682      -0.00018061
  |                                  0.00254682       0.09999405      -0.02322595
  |                                 -0.00018061      -0.02322595       0.06691322
  ----------------------------------------------------------------------
  | Atom    17: H
  |   Hirshfeld charge        :      0.12312538
  |   Free atom volume        :     10.44207651
  |   Hirshfeld volume        :      7.12107545
  |   Hirshfeld dipole vector :      0.04405456      -0.01611504       0.00367831
  |   Hirshfeld dipole moment :      0.04705347
  |   Hirshfeld second moments:      0.07591107       0.03078198      -0.02433770
  |                                  0.03078198       0.10165515       0.00638009
  |                                 -0.02433770       0.00638009       0.09179336
  ----------------------------------------------------------------------
  | Atom    18: H
  |   Hirshfeld charge        :      0.17243492
  |   Free atom volume        :     10.44207651
  |   Hirshfeld volume        :      5.53981994
  |   Hirshfeld dipole vector :      0.03534187       0.10036405      -0.05298908
  |   Hirshfeld dipole moment :      0.11886897
  |   Hirshfeld second moments:      0.14098128      -0.00537246       0.00392188
  |                                 -0.00537246       0.12980079      -0.00075154
  |                                  0.00392188      -0.00075154       0.12898354
  ----------------------------------------------------------------------
  | Atom    19: O
  |   Hirshfeld charge        :     -0.21313770
  |   Free atom volume        :     23.95238533
  |   Hirshfeld volume        :     20.48407410
  |   Hirshfeld dipole vector :      0.01964496       0.01182578       0.00849717
  |   Hirshfeld dipole moment :      0.02445353
  |   Hirshfeld second moments:      0.05027042      -0.02798313      -0.03274298
  |                                 -0.02798313       0.06714412      -0.00240961
  |                                 -0.03274298      -0.00240961       0.07734967
  ----------------------------------------------------------------------
  | Atom    20: H
  |   Hirshfeld charge        :      0.16052927
  |   Free atom volume        :     10.44207651
  |   Hirshfeld volume        :      5.73676531
  |   Hirshfeld dipole vector :     -0.06142231       0.08303678       0.06476463
  |   Hirshfeld dipole moment :      0.12191089
  |   Hirshfeld second moments:      0.12399016      -0.00155497      -0.00796998
  |                                 -0.00155497       0.12707981      -0.01120589
  |                                 -0.00796998      -0.01120589       0.13343091
  ----------------------------------------------------------------------
  | Atom    21: H
  |   Hirshfeld charge        :      0.12406166
  |   Free atom volume        :     10.44207651
  |   Hirshfeld volume        :      7.18940500
  |   Hirshfeld dipole vector :      0.01752559       0.03690419      -0.03643322
  |   Hirshfeld dipole moment :      0.05473979
  |   Hirshfeld second moments:      0.08344728      -0.01909341       0.02096517
  |                                 -0.01909341       0.11288153       0.01281694
  |                                  0.02096517       0.01281694       0.06755600
  ----------------------------------------------------------------------


------------------------------------------------------------------------------
  Final output of selected total energy values:

  The following output summarizes some interesting total energy values
  at the end of a run (AFTER all relaxation, molecular dynamics, etc.).

  | Total energy of the DFT / Hartree-Fock s.c.f. calculation      :         -14581.814721382 eV
  | Final zero-broadening corrected energy (caution - metals only) :         -14581.814721382 eV
  | For reference only, the value of 1 Hartree used in FHI-aims is :             27.211384500 eV

  Before relying on these values, please be sure to understand exactly which
  total energy value is referred to by a given number. Different objects may
  all carry the same name 'total energy'. Definitions:

  Total energy of the DFT / Hartree-Fock s.c.f. calculation:
  | Note that this energy does not include ANY quantities calculated after the
  | s.c.f. cycle, in particular not ANY RPA, MP2, etc. many-body perturbation terms.

  Final zero-broadening corrected energy:
  | For metallic systems only, a broadening of the occupation numbers at the Fermi
  | level can be extrapolated back to zero broadening by an electron-gas inspired
  | formula. For all systems that are not real metals, this value can be
  | meaningless and should be avoided.

------------------------------------------------------------------------------

------------------------------------------------------------
          Leaving FHI-aims.
          Date     :  20150727, Time     :  114713.436

          Computational steps:
          | Number of self-consistency cycles          :           16

          Detailed time accounting                     :  max(cpu_time)    wall_clock(cpu1)
          | Total time                                 :       80.009 s          80.044 s
          | Preparation time                           :        0.174 s           0.470 s
          | Grid partitioning                          :        0.209 s           0.209 s
          | Preloading free-atom quantities on grid    :        0.013 s           0.013 s
          | Free-atom superposition energy             :        0.117 s           0.117 s
          | Total time for integrations                :       36.064 s          36.064 s
          | Total time for solution of K.-S. equations :        2.347 s           2.357 s
          | Total time for density & force components  :       27.754 s          27.752 s
          | Total time for mixing                      :        0.294 s           0.296 s
          | Total time for Hartree multipole update    :        0.111 s           0.106 s
          | Total time for Hartree multipole sum       :       12.113 s          12.113 s
          | Total time for total energy evaluation     :        0.008 s           0.004 s
          | Total time for scaled ZORA corrections     :        0.000 s           0.000 s
          | Total time for TS (2009) vdW correction    :        0.097 s           0.097 s

          Have a nice day.
------------------------------------------------------------
