  MPI-parallelism will be employed.
------------------------------------------------------------
          Invoking FHI-aims ...
          Version 081213
          Compiled on 2013/08/29 at 17:41:06 on host generoso.

          When using FHI-aims, please cite the following reference:

          Volker Blum, Ralf Gehrke, Felix Hanke, Paula Havu,
          Ville Havu, Xinguo Ren, Karsten Reuter, and Matthias Scheffler,
          'Ab Initio Molecular Simulations with Numeric Atom-Centered Orbitals: FHI-aims',
          Computer Physics Communications 180, 2175-2196 (2009)

          For any questions about FHI-aims, please visit the aimsclub website
          with its forums and wiki. Contributions to both the forums and the
          wiki are warmly encouraged - they are for you, and everyone is welcome there.

------------------------------------------------------------

  Date     :  20150727, Time     :  121122.047
  Time zero on CPU 1             :   0.469920000000000E-01  s.
  Internal wall clock time zero  :           207231082.047  s.

  Using        8 parallel tasks.
  Task        0 on host gen60 reporting.
  Task        1 on host gen60 reporting.
  Task        2 on host gen60 reporting.
  Task        3 on host gen60 reporting.
  Task        4 on host gen60 reporting.
  Task        5 on host gen60 reporting.
  Task        6 on host gen60 reporting.
  Task        7 on host gen60 reporting.

  Performing system and environment tests:
  | Environment variable OMP_NUM_THREADS correctly set to 1.
  | Checking for scalapack...
  | No scalapack compiled in.

  Obtaining array dimensions for all initial allocations:
  
  -----------------------------------------------------------------------
  Parsing control.in (first pass over file, find array dimensions only).
  The contents of control.in will be repeated verbatim below
  unless switched off by setting 'verbatim_writeout .false.' .
  in the first line of control.in .
  -----------------------------------------------------------------------
  
  #########################################################################################
  #
  #  Volker Blum, FHI 2008 : Test run input file control.in
  #
  #########################################################################################
  #
  #  Physical model
  #
    xc                 rpbe
    spin               none
    relativistic       atomic_zora scalar
    charge             0.
   vdw_correction_hirshfeld
  #
  #  SCF convergence
  #
    occupation_type    gaussian 0.01
    mixer              pulay
      n_max_pulay        10
      charge_mix_param   0.1
    sc_accuracy_rho    5E-5
    sc_accuracy_eev    5E-3
    sc_accuracy_etot   5E-6
    sc_iter_limit      3000
  #
  #  Eigenvalue solver
  #
    KS_method          lapack
      empty_states       8
      basis_threshold    0.e-5
  #
  #  Efficiency
  #
  #   all previous settings are now default, except stratmann still
  #   undecided. Continue to handle stratmann with care, if at all.
  #
  #  partition_type stratmann
    partition_type rho_r2
  #  hartree_partition_type stratmann
  #
  #  Oprions for large clusters (100's of atoms: memory saving / better scaling)
  #
  # for periodic systems:
  #
    density_update_method orbital
    packed_matrix_format none
  #  k_grid 6 6 6
  #  output k_eigenvalue 1
  #  distributed_spline_storage .true.
  #
  #  Relaxation
  #
  #  relax_geometry   bfgs 5.e-3
    sc_accuracy_forces 5.E-4
    final_forces_cleaned .true.
  #
  #  Output options
  #
  #  output mulliken
    output Hirshfeld
  #  output dipole
  
  #harmonic_length_scale 0.001
  
  ################################################################################
  #
  #  FHI-aims code project
  #  VB, Fritz-Haber Institut, 2007
  #
  #  Suggested "safe" defaults for H atom (to be pasted into control.in file)
  #  Basis constructed for a non-relativistic H2 molecule using the
  #  PW-LDA functional.
  #
  ################################################################################
    species        H
  #     global species definitions
      nucleus             1
      cut_pot             4.0  2.0  1.0
      cut_free_atom       finite 8.0
      logarithmic         0.00010000 100.00  1.0123
      basis_dep_cutoff    1d-4  # 1d-4 is safe default - please check 5d-4 if you wish!
      radial_base         24 7.0
      radial_multiplier   2
      angular_grids       specified
        division   0.2783  110
        division   0.3822  194
        division   0.5626  302
  #      division   0.5922  434
  #      division   0.6227  590
  #      division   0.7206  770
        outer_grid  302
      l_hartree           4
  ################################################################################
  #
  #  Definition of "minimal" basis
  #
  ################################################################################
  #     valence basis states
      valence      1  s   1.
  #     ion occupancy
      ion_occ      1  s   0.5
  ################################################################################
  #
  #  Suggested additional basis functions. For production calculations,
  #  uncomment them one after another (the most important basis functions are
  #  listed first).
  #
  ################################################################################
  #  "First tier" - improvements: -1014.90 meV to -62.69 meV
       hydro 2 s 2.1
       hydro 2 p 3.5
  #  "Second tier" - improvements: -12.89 meV to -1.83 meV
       hydro 1 s 0.85
       hydro 2 p 3.7
       hydro 2 s 1.2
       hydro 3 d 7
  #  "Third tier" - improvements: -0.25 meV to -0.12 meV
  #     hydro 4 f 11.2
  #     hydro 3 p 4.8
  #     hydro 4 d 9
  #     hydro 3 s 3.2
  
  ################################################################################
  #
  #  FHI-aims code project
  #  VB, Fritz-Haber Institut, 2007
  #
  #  Suggested "safe" defaults for O atom (to be pasted into control.in file)
  #  All values have been tested for a non-relativistic, non-spinpolarized O2
  #  molecule using the PW-LDA functional. Validity for PBE is expected.
  #
  #  Constructed for dimers: 1.0 A, 1.208 A, 1.5 A, 2.0 A, 3.0 A
  #
  ################################################################################
    species        O
  #     global species definitions
      nucleus             8
      mass                15.9994
      l_hartree           4
      cut_pot             4.0  2.0  1.0
      cut_free_atom       finite 8.0
      basis_dep_cutoff    1d-4  # 1d-4 is safe default - please check 5d-4 if you wish!
      logarithmic         0.00010000 100.00  1.0123
      radial_base         36 7.0
      radial_multiplier   2
       angular_grids specified
        division   0.4087  110
        division   0.5181  194
        division   0.6184  302
  #      division   0.7315  434
  #      division   0.7934  590
  #      division   0.9656  770
  #      division   1.4041  974
  #      outer_grid 974
        outer_grid 302
  ################################################################################
  #
  #  Definition of "minimal" basis
  #
  ################################################################################
  #     valence basis states
      valence      2  s   2.
      valence      2  p   4.
  #     ion occupancy
      ion_occ      2  s   1.
      ion_occ      2  p   3.
  ################################################################################
  #
  #  Suggested additional basis functions. For production calculations,
  #  uncomment them one after another (the most important basis functions are
  #  listed first).
  #
  ################################################################################
  #  "First tier" - improvements: -699.05 meV to -159.38 meV
       hydro 2 p 1.8
       hydro 3 d 7.6
       hydro 3 s 6.4
  #  "Second tier" - improvements: -49.91 meV to -5.39 meV
       hydro 4 f 11.6
       hydro 3 p 6.2
       hydro 3 d 5.6
       hydro 5 g 17.6
       hydro 1 s 0.75
  #  "Third tier" - improvements: -2.83 meV to -0.50 meV
  #     ionic 2 p auto
  #     hydro 4 f 10.8
  #     hydro 4 d 4.7
  #     hydro 2 s 6.8
  #  "Fourth tier" - improvements: -0.40 meV to -0.12 meV
  #     hydro 3 p 5
  #     hydro 3 s 3.3
  #     hydro 5 g 15.6
  #     hydro 4 f 17.6
  #     hydro 4 d 14
  # Further basis functions - -0.08 meV and below
  #     hydro 3 s 2.1
  #     hydro 4 d 11.6
  #     hydro 3 p 16
  #     hydro 2 s 17.2
  
  
  -----------------------------------------------------------------------
  Completed first pass over input file control.in .
  -----------------------------------------------------------------------
  
  
  -----------------------------------------------------------------------
  Parsing geometry.in (first pass over file, find array dimensions only).
  The contents of geometry.in will be repeated verbatim below
  unless switched off by setting 'verbatim_writeout .false.' .
  in the first line of geometry.in .
  -----------------------------------------------------------------------
  
  atom      -4.053030000      0.065001000     -1.525160000  O
  atom      -4.566710000      0.974813000     -1.912820000  H
  atom      -3.067820000      0.330172000     -1.477310000  H
  atom      -4.581760000     -0.256435000      0.939478000  O
  atom      -4.349860000      0.471090000      1.504340000  H
  atom      -5.393870000     -0.726611000      1.228070000  H
  atom      -1.975360000      2.858040000      0.453140000  O
  atom      -1.223550000      3.375850000      0.786238000  H
  atom      -2.537520000      2.567960000      1.156120000  H
  atom      -4.066610000      4.258280000     -0.900064000  O
  atom      -3.224110000      3.876870000     -0.569443000  H
  atom      -3.737450000      5.116530000     -1.322720000  H
  atom      -5.628340000      3.730740000      1.385610000  O
  atom      -6.090650000      4.418470000      1.860350000  H
  atom      -5.158540000      4.200260000      0.615875000  H
  
  -----------------------------------------------------------------------
  Completed first pass over input file geometry.in .
  -----------------------------------------------------------------------
  
 
  Basic array size parameters: 
  | Number of species                 :        2
  | Number of atoms                   :       15
  | Max. basis fn. angular momentum   :        4
  | Max. atomic/ionic basis occupied n:        2
  | Max. number of basis fn. types    :        2
  | Max. radial fns per species/type  :        8
  | Max. logarithmic grid size        :     1301
  | Max. radial integration grid size :       73
  | Max. angular integration grid size:      302
  | Max. angular grid division number :        8
  | Radial grid for Hartree potential :     1301
  | Number of spin channels           :        1

------------------------------------------------------------
          Reading file control.in.
------------------------------------------------------------
  XC: Using RPBE gradient-corrected functionals.
  Spin treatment: No spin polarisation.
  Scalar relativistic treatment of kinetic energy: on-site free-atom approximation to ZORA.
  Charge =   0.000000E+00: Neutral system requested explicitly.
  Using non-empirical van der Waals correction (Hirshfeld partitioning):
  Occupation type: Gaussian broadening, width =   0.100000E-01 eV.
  Using pulay charge density mixing.
  Pulay mixing - number of memorized iterations:   10
  Charge density mixing - mixing parameter:     0.1000
  Convergence accuracy of self-consistent charge density: 0.5000E-04
  Convergence accuracy of sum of eigenvalues: 0.5000E-02
  Convergence accuracy of total energy: 0.5000E-05
  Maximum number of s.-c. iterations  :  3000
  Kohn-Sham eigenvalues and eigenfunctions calculated by lapack diagonalisation (D&C).
  Number of empty states per atom:        8
  Threshold for basis singularities: 0.0000E+00
  Partition function in integrals calculations: rho / r^2
 Using packed matrix format           0
  Convergence accuracy of forces: 0.5000E-03
  Cleaning forces before final output.
  Hirshfeld charge analysis will be performed.
 
  Reading configuration options for species H                   .
  | Found nuclear charge :   1.0000
  | Found cutoff potl. onset [A], width [A], scale factor :    4.00000    2.00000    1.00000
  | Found cutoff specification for free atom: Cutoff potential begins at    8.00000 A.
  | Found logarithmic grid data [bohr] : 0.1000E-03 0.1000E+03 0.1012E+01
  | Threshold for basis-dependent cutoff potential is   0.100000E-03
  | Found data for basic radial integration grid :    24 points, outermost radius =    7.000 A
  | Found multiplier for basic radial grid :   2
  | Found angular grid specification: user-specified.
  | Specified grid contains     4 separate shells.
  | Check grid settings after all constraints further below.
  | Found l_max for Hartree potential  :   4
  | Found free-atom valence shell :  1 s   1.000
  | No ionic wave fns used. Skipping ion_occ.
  | Found hydrogenic basis function :  2 s   2.100
  | Found hydrogenic basis function :  2 p   3.500
  | Found hydrogenic basis function :  1 s   0.850
  | Found hydrogenic basis function :  2 p   3.700
  | Found hydrogenic basis function :  2 s   1.200
  | Found hydrogenic basis function :  3 d   7.000
  Species H                   : Missing cutoff potential type.
  Defaulting to exp(1/x)/(1-x)^2 type cutoff potential.
  Species H : On-site basis accuracy parameter (for Gram-Schmidt orthonormalisation) not specified.
  Using default value basis_acc =  0.1000000E-03.
  Species H                   : Using default innermost maximum threshold i_radial=  2 for radial functions.
  Species H                   : Basic radial grid will be enhanced according to radial_multiplier =   2, to contain    49 grid points.
 
  Reading configuration options for species O                   .
  | Found nuclear charge :   8.0000
  | Found atomic mass :    15.9994000000000      amu
  | Found l_max for Hartree potential  :   4
  | Found cutoff potl. onset [A], width [A], scale factor :    4.00000    2.00000    1.00000
  | Found cutoff specification for free atom: Cutoff potential begins at    8.00000 A.
  | Threshold for basis-dependent cutoff potential is   0.100000E-03
  | Found logarithmic grid data [bohr] : 0.1000E-03 0.1000E+03 0.1012E+01
  | Found data for basic radial integration grid :    36 points, outermost radius =    7.000 A
  | Found multiplier for basic radial grid :   2
  | Found angular grid specification: user-specified.
  | Specified grid contains     4 separate shells.
  | Check grid settings after all constraints further below.
  | Found free-atom valence shell :  2 s   2.000
  | Found free-atom valence shell :  2 p   4.000
  | No ionic wave fns used. Skipping ion_occ.
  | No ionic wave fns used. Skipping ion_occ.
  | Found hydrogenic basis function :  2 p   1.800
  | Found hydrogenic basis function :  3 d   7.600
  | Found hydrogenic basis function :  3 s   6.400
  | Found hydrogenic basis function :  4 f  11.600
  | Found hydrogenic basis function :  3 p   6.200
  | Found hydrogenic basis function :  3 d   5.600
  | Found hydrogenic basis function :  5 g  17.600
  | Found hydrogenic basis function :  1 s   0.750
  Species O                   : Missing cutoff potential type.
  Defaulting to exp(1/x)/(1-x)^2 type cutoff potential.
  Species O : On-site basis accuracy parameter (for Gram-Schmidt orthonormalisation) not specified.
  Using default value basis_acc =  0.1000000E-03.
  Species O                   : Using default innermost maximum threshold i_radial=  2 for radial functions.
  Species O                   : Basic radial grid will be enhanced according to radial_multiplier =   2, to contain    73 grid points.
 
  Finished reading input file 'control.in'. Consistency checks are next.
 
  Target number of points in a grid batch is not set. Defaulting to  100
  Method for grid partitioning is not set. Defaulting to parallel hash+maxmin partitioning.
  Batch size limit is not set. Defaulting to    200
  By default, will store active basis functions for each batch.
  If in need of memory, prune_basis_once .false. can be used to disable this option.
  communication_type for Hartree potential was not specified.
  Defaulting to calc_hartree .
  Pulay mixer: Number of initial linear mixing iterations not set.
  Defaulting to    0 iterations.
  Work space size for distributed Hartree potential not set.
  Defaulting to   0.200000E+03 MB.
  Algorithm-dependent basis array size parameters:
  | n_max_pulay                         :       10
  Geometry relaxation not requested: no relaxation will be performed.
  Handling of forces: Unphysical translation and rotation will be removed from forces.
  No accuracy limit for integral partition fn. given. Defaulting to 0.1000E-14.
  No threshold value for u(r) in integrations given. Defaulting to 0.1000E-05.
  No accuracy for occupation numbers given. Defaulting to 0.1000E-07.
  No threshold value for occupation numbers given. Defaulting to 0.0000E+00.
  No accuracy for fermi level given. Defaulting to 0.1000E-19.
  Maximum # of iterations to find E_F not set. Defaulting to  200.
  Will not use alltoall communication since running on < 1024 CPUs.
  Partitioning for Hartree potential was not defined. Using partition_type for integrals.
  | Reporting present value of keyword multip_moments_threshold  :       0.10000000E-09
  | This value may affect high angular momentum components of the Hartree potential in periodic systems.
  No q(lm)/r^(l+1) cutoff set for long-range Hartree potential.
  | Using default value of  0.100000E-09 .
  | Verify using the multipole_threshold keyword.
  Defaulting to new monopole extrapolation.
  Density update method: Loop over occupied states selected for charge density update.
------------------------------------------------------------


------------------------------------------------------------
          Reading geometry description geometry.in.
------------------------------------------------------------
  Input structure read successfully.
  The structure contains       15 atoms,  and a total of         50.000 electrons.

  Input geometry:
  | No unit cell requested.
  | Atomic structure:
  |       Atom                x [A]            y [A]            z [A]
  |    1: Species O             -4.053030         0.065001        -1.525160
  |    2: Species H             -4.566710         0.974813        -1.912820
  |    3: Species H             -3.067820         0.330172        -1.477310
  |    4: Species O             -4.581760        -0.256435         0.939478
  |    5: Species H             -4.349860         0.471090         1.504340
  |    6: Species H             -5.393870        -0.726611         1.228070
  |    7: Species O             -1.975360         2.858040         0.453140
  |    8: Species H             -1.223550         3.375850         0.786238
  |    9: Species H             -2.537520         2.567960         1.156120
  |   10: Species O             -4.066610         4.258280        -0.900064
  |   11: Species H             -3.224110         3.876870        -0.569443
  |   12: Species H             -3.737450         5.116530        -1.322720
  |   13: Species O             -5.628340         3.730740         1.385610
  |   14: Species H             -6.090650         4.418470         1.860350
  |   15: Species H             -5.158540         4.200260         0.615875
  |

  | The smallest distance between any two atoms is         0.94570141 AA.
  |
  | The first atom of this pair is atom number                      7 .
  | The second atom of this pair is atom number                     9 .

  Structure-dependent array size parameters: 
  | Maximum number of distinct radial functions  :       18
  | Maximum number of basis functions            :      345
  | Number of Kohn-Sham states (occupied + empty):       85
------------------------------------------------------------

------------------------------------------------------------
          Preparing all fixed parts of the calculation.
------------------------------------------------------------
  Determining machine precision:
    2.225073858507201E-308
  Setting up grids for atomic and cluster calculations.

  Creating wave function, potential, and density for free atoms.

  Species: H

  List of occupied orbitals and eigenvalues:
    n    l              occ      energy [Ha]    energy [eV]
    1    0           1.0000        -0.241408        -6.5691


  Species: O

  List of occupied orbitals and eigenvalues:
    n    l              occ      energy [Ha]    energy [eV]
    1    0           2.0000       -18.944147      -515.4965
    2    0           2.0000        -0.883529       -24.0421
    2    1           4.0000        -0.330176        -8.9845

  Creating fixed part of basis set: Ionic, confined, hydrogenic.
 
  H                    hydrogenic:
 
  List of hydrogenic basis orbitals: 
    n    l      effective z      eigenvalue [eV]  inner max. [A]     outer max. [A]     outer radius [A]   
    2    0         2.100000       -14.9965           0.193241           1.317192           5.372934
    2    1         3.500000       -41.6672           0.602363           0.602363           4.056010
    1    0         0.850000        -9.8292           0.624864           0.624864           5.372934
    2    1         3.700000       -46.5653           0.573616           0.573616           3.909951
    2    0         1.200000        -4.5995           0.334977           2.228160           5.505921
    3    2         7.000000       -74.0753           0.680692           0.680692           3.769152
 
 
  O                    hydrogenic:
 
  List of hydrogenic basis orbitals: 
    n    l      effective z      eigenvalue [eV]  inner max. [A]     outer max. [A]     outer radius [A]   
    2    1         1.800000       -11.0118           1.178546           1.178546           5.432516
    3    2         7.600000       -87.3182           0.624117           0.624117           3.541422
    3    0         6.400000       -61.9209           0.061166           1.081887           4.306510
    4    3        11.600000      -114.4238           0.731621           0.731621           3.584982
    3    1         6.200000       -58.1113           0.255677           1.030255           4.306510
    3    2         5.600000       -47.4081           0.847222           0.847222           4.413102
    5    4        17.600000      -168.5799           0.749730           0.749730           3.372413
    1    0         0.750000        -7.6499           0.705275           0.705275           5.366508
 

  Adding cutoff potential to free-atom effective potential.
  Creating atomic-like basis functions for current effective potential.

  Species H                   :

  List of atomic basis orbitals and eigenvalues:
    n    l      energy [Ha]    energy [eV]    outer radius [A]
    1    0        -0.241374        -6.5681       5.372934


  Species O                   :

  List of atomic basis orbitals and eigenvalues:
    n    l      energy [Ha]    energy [eV]    outer radius [A]
    1    0       -18.944147      -515.4965       1.415745
    2    0        -0.883529       -24.0421       5.048305
    2    1        -0.330173        -8.9845       5.301302

  Assembling full basis from fixed parts.
  | Species H :   atomic orbital   1 s accepted.
  | Species H :    hydro orbital   2 s accepted.
  | Species H :    hydro orbital   1 s accepted.
  | Species H :    hydro orbital   2 s accepted.
  | Species H :    hydro orbital   2 p accepted.
  | Species H :    hydro orbital   2 p accepted.
  | Species H :    hydro orbital   3 d accepted.
  | Species O :   atomic orbital   1 s accepted.
  | Species O :    hydro orbital   3 s accepted.
  | Species O :   atomic orbital   2 s accepted.
  | Species O :    hydro orbital   1 s accepted.
  | Species O :    hydro orbital   3 p accepted.
  | Species O :   atomic orbital   2 p accepted.
  | Species O :    hydro orbital   2 p accepted.
  | Species O :    hydro orbital   3 d accepted.
  | Species O :    hydro orbital   3 d accepted.
  | Species O :    hydro orbital   4 f accepted.
  | Species O :    hydro orbital   5 g accepted.
 
  Basis size parameters after reduction:
  | Total number of radial functions:       18
  | Total number of basis functions :      345
 
  Testing on-site integration grid accuracy.
  |  Species  Function  <phi|h_atom|phi> (log., in eV)  <phi|h_atom|phi> (rad., in eV)
           1        1                 -6.5683835025                 -6.5684759159
           1        2                 13.3711789951                 13.3708738703
           1        3                 23.6590910787                 23.6532055418
           1        4                 16.2963827186                 16.1870710655 ***
           1        5                 28.7627214838                 28.7627215090
           1        6                 59.5965249172                 59.5965950857
           1        7                 60.2220506392                 60.2220503827
           2        8               -515.4964576505               -515.4964530710
           2        9                 15.3030791347                 15.3030722972
           2       10                -21.7296094581                -21.7296135470
           2       11                 14.2969371730                 14.2969701621
           2       12                 21.0679693190                 21.0679697493
           2       13                 -2.3833606469                 -2.3833613176
           2       14                 13.7067136422                 13.7066766629
           2       15                 45.8013116808                 45.8013116965
           2       16                 52.2309815402                 52.2309831494
           2       17                 85.4120732416                 85.4120732763
           2       18                142.1019167745                142.1019167817
 * Note: Onsite integrals marked "***" above are less accurate than
 * onsite_accuracy_threshold =    0.03000 eV. Usually, this is harmless.
 * When in doubt, tighten the "radial" and/or "radial_multiplier" flags to check.

  Preparing densities etc. for the partition functions (integrals / Hartree potential).

  Preparations completed.
  max(cpu_time)          :      0.172 s.
  Wall clock time (cpu1) :      0.496 s.
------------------------------------------------------------

------------------------------------------------------------
          Begin self-consistency loop: Initialization.

          Date     :  20150727, Time     :  121122.599
------------------------------------------------------------

  Initializing index lists of integration centers etc. from given atomic structure:
  | Number of centers in hartree potential         :        15
  | Number of centers in hartree multipole         :        15
  | Number of centers in electron density summation:        15
  | Number of centers in basis integrals           :        15
  | Number of centers in integrals                 :        15
  Partitioning the integration grid into batches with parallel hashing+maxmin method.
  | Number of batches:     1961
  | Maximal batch size:     200
  | Minimal batch size:      49
  | Average batch size:     100.311
  | Standard deviation of batch sizes:      31.316

  Integration load balanced across     8 MPI tasks.
  Work distribution over tasks is as follows:
  Task     0 has      24572 integration points.
  Task     1 has      24582 integration points.
  Task     2 has      24612 integration points.
  Task     3 has      24572 integration points.
  Task     4 has      24612 integration points.
  Task     5 has      24649 integration points.
  Task     6 has      24532 integration points.
  Task     7 has      24579 integration points.
  Initializing partition tables, free-atom densities, potentials, etc. across the integration grid (initialize_grid_storage).
  | Net number of integration points:   196710
  | of which are non-zero points    :   196148
  Obtaining max. number of non-zero basis functions in each batch (get_n_compute_maxes).
  | Maximal number of non-zero basis functions:      342 in task     0
  | Maximal number of non-zero basis functions:      341 in task     1
  | Maximal number of non-zero basis functions:      342 in task     2
  | Maximal number of non-zero basis functions:      342 in task     3
  | Maximal number of non-zero basis functions:      341 in task     4
  | Maximal number of non-zero basis functions:      341 in task     5
  | Maximal number of non-zero basis functions:      341 in task     6
  | Maximal number of non-zero basis functions:      342 in task     7
  Integrating Hamiltonian matrix: batch-based integration.
  Time summed over all CPUs for integration: real work        6.961 s, elapsed        7.171 s
  Integrating overlap matrix.
  Time summed over all CPUs for integration: real work        3.754 s, elapsed        3.855 s

  Updating Kohn-Sham eigenvalues, eigenvectors, occupation numbers, and Fermi level.
  Solving generalized eigenproblem
  Updating Kohn-Sham eigenvalues and eigenfunctions.
  Transforming overlap matrix and checking for singularities.
  Overlap matrix is nonsingular:
  | Lowest eigenvalue:  0.356580E-03
  Solving real generalised eigenvalue problem by standard LAPACK (fast)
  Determining occupation numbers for Kohn-Sham eigenstates.
  | Chemical potential (Fermi level) in eV                 : -.55130854E+01
  | Error in electron count due to remaining E_F inaccuracy: 0.00000000E+00
  | Maximum occupation number of highest empty state:  0.00E+00

  Writing Kohn-Sham eigenvalues.

  State    Occupation    Eigenvalue [Ha]    Eigenvalue [eV]
      1       2.00000         -19.056663         -518.55819
      2       2.00000         -19.051949         -518.42991
      3       2.00000         -19.044635         -518.23089
      4       2.00000         -19.042609         -518.17577
      5       2.00000         -19.019443         -517.54537
      6       2.00000          -1.107483          -30.13614
      7       2.00000          -1.098550          -29.89306
      8       2.00000          -1.092013          -29.71519
      9       2.00000          -1.083936          -29.49540
     10       2.00000          -1.043125          -28.38489
     11       2.00000          -0.649451          -17.67245
     12       2.00000          -0.644404          -17.53511
     13       2.00000          -0.623336          -16.96182
     14       2.00000          -0.607667          -16.53547
     15       2.00000          -0.569984          -15.51007
     16       2.00000          -0.518564          -14.11083
     17       2.00000          -0.505356          -13.75144
     18       2.00000          -0.504570          -13.73005
     19       2.00000          -0.496810          -13.51888
     20       2.00000          -0.474624          -12.91517
     21       2.00000          -0.443775          -12.07573
     22       2.00000          -0.438922          -11.94368
     23       2.00000          -0.432838          -11.77812
     24       2.00000          -0.429378          -11.68398
     25       2.00000          -0.402363          -10.94887
     26       0.00000          -0.101135           -2.75204
     27       0.00000          -0.071973           -1.95848
     28       0.00000          -0.063743           -1.73454
     29       0.00000          -0.051769           -1.40871
     30       0.00000          -0.036655           -0.99742
     31       0.00000          -0.018013           -0.49016
     32       0.00000          -0.010637           -0.28945
     33       0.00000           0.030496            0.82984
     34       0.00000           0.041580            1.13144
     35       0.00000           0.046777            1.27286
     36       0.00000           0.068536            1.86495
     37       0.00000           0.071905            1.95663
     38       0.00000           0.082921            2.25638
     39       0.00000           0.091323            2.48502
     40       0.00000           0.096425            2.62386
     41       0.00000           0.101151            2.75245
     42       0.00000           0.107311            2.92008
     43       0.00000           0.115050            3.13066
     44       0.00000           0.118822            3.23331
     45       0.00000           0.133702            3.63821
     46       0.00000           0.139793            3.80397
     47       0.00000           0.143719            3.91080
     48       0.00000           0.158963            4.32559
     49       0.00000           0.164523            4.47690
     50       0.00000           0.170735            4.64593
     51       0.00000           0.180851            4.92120
     52       0.00000           0.212759            5.78946
     53       0.00000           0.229475            6.24434
     54       0.00000           0.252232            6.86357
     55       0.00000           0.254605            6.92816
     56       0.00000           0.263057            7.15814
     57       0.00000           0.273683            7.44729
     58       0.00000           0.281698            7.66539
     59       0.00000           0.300105            8.16627
     60       0.00000           0.315487            8.58484
     61       0.00000           0.322700            8.78112
     62       0.00000           0.350469            9.53674
     63       0.00000           0.359487            9.78215
     64       0.00000           0.366122            9.96268
     65       0.00000           0.382778           10.41591
     66       0.00000           0.396156           10.77996
     67       0.00000           0.397580           10.81872
     68       0.00000           0.412550           11.22607
     69       0.00000           0.419565           11.41695
     70       0.00000           0.424400           11.54850
     71       0.00000           0.444224           12.08795
     72       0.00000           0.450814           12.26727
     73       0.00000           0.479580           13.05004
     74       0.00000           0.482219           13.12184
     75       0.00000           0.488906           13.30380
     76       0.00000           0.522229           14.21057
     77       0.00000           0.547835           14.90734
     78       0.00000           0.551714           15.01290
     79       0.00000           0.560313           15.24688
     80       0.00000           0.572319           15.57360
     81       0.00000           0.593566           16.15176
     82       0.00000           0.624633           16.99713
     83       0.00000           0.626236           17.04074
     84       0.00000           0.646864           17.60207
     85       0.00000           0.670747           18.25195

  Highest occupied state (VBM) at    -10.94886711 eV
  | Occupation number:      2.00000000

  Lowest unoccupied state (CBM) at    -2.75203539 eV
  | Occupation number:      0.00000000

  Overall HOMO-LUMO gap:      8.19683171 eV.
  Calculating total energy contributions from superposition of free atom densities.

  Total energy components:
  | Sum of eigenvalues            :        -216.76489686 Ha       -5898.47295446 eV
  | XC energy correction          :         -45.52079884 Ha       -1238.68395996 eV
  | XC potential correction       :          58.15594474 Ha        1582.50377335 eV
  | Free-atom electrostatic energy:        -178.95593828 Ha       -4869.63884519 eV
  | Hartree energy correction     :           0.00000000 Ha           0.00000000 eV
  | van der Waals energy corr.    :           0.00000000 Ha           0.00000000 eV
  | Entropy correction            :           0.00000000 Ha           0.00000000 eV
  | ---------------------------
  | Total energy                  :        -383.08568924 Ha      -10424.29198626 eV
  | Total energy, T -> 0          :        -383.08568924 Ha      -10424.29198626 eV  <-- do not rely on this value for anything but (periodic) metals
  | Electronic free energy        :        -383.08568924 Ha      -10424.29198626 eV

  Derived energy quantities:
  | Kinetic energy                :         379.04298867 Ha       10314.28450672 eV
  | Electrostatic energy          :        -716.60787907 Ha      -19499.89253302 eV
  | Energy correction for multipole
  | error in Hartree potential    :           0.00000000 Ha           0.00000000 eV
  | Sum of eigenvalues per atom                           :        -393.23153030 eV
  | Total energy (T->0) per atom                          :        -694.95279908 eV  <-- do not rely on this value for anything but (periodic) metals
  | Electronic free energy per atom                       :        -694.95279908 eV
  Initialize hartree_potential_storage
  Max. number of atoms included in rho_multipole:           15

  End scf initialization - timings             :  max(cpu_time)    wall_clock(cpu1)
  | Time for scf. initialization               :        1.932 s           1.931 s
  | Boundary condition initialization          :        0.000 s           0.000 s
  | Integration                                :        1.382 s           1.382 s
  | Solution of K.-S. eqns.                    :        0.198 s           0.198 s
  | Grid partitioning                          :        0.137 s           0.137 s
  | Preloading free-atom quantities on grid    :        0.013 s           0.014 s
  | Free-atom superposition energy             :        0.065 s           0.065 s
  | Total energy evaluation                    :        0.001 s           0.000 s
------------------------------------------------------------

------------------------------------------------------------
          Begin self-consistency iteration #    1

  Date     :  20150727, Time     :  121124.530
------------------------------------------------------------
  Evaluating new KS density.
  Integration grid: deviation in total charge (<rho> - N_e) =   7.105427E-15
  Pulay mixing of updated and previous charge densities.

  Evaluating partitioned Hartree potential by multipole expansion.
  | Analytical far-field extrapolation by fixed multipoles:
  | Hartree multipole sum: apparent total charge =  -0.128642E-05
  Summing up the Hartree potential.
  Time summed over all CPUs for potential: real work        2.567 s, elapsed        2.584 s
  | RMS charge density error from multipole expansion :   0.163020E-02

  Integrating Hamiltonian matrix: batch-based integration.
  Time summed over all CPUs for integration: real work        6.967 s, elapsed        7.189 s

  Updating Kohn-Sham eigenvalues, eigenvectors, occupation numbers, and Fermi level.
  Solving generalized eigenproblem
  Updating Kohn-Sham eigenvalues and eigenfunctions.
  Solving real generalised eigenvalue problem by standard LAPACK (fast)
  Determining occupation numbers for Kohn-Sham eigenstates.
  | Chemical potential (Fermi level) in eV                 : -.51071239E+01
  | Error in electron count due to remaining E_F inaccuracy: 0.00000000E+00
  | Maximum occupation number of highest empty state:  0.00E+00

  Writing Kohn-Sham eigenvalues.

  State    Occupation    Eigenvalue [Ha]    Eigenvalue [eV]
      1       2.00000         -18.984039         -516.58199
      2       2.00000         -18.970639         -516.21735
      3       2.00000         -18.965951         -516.08979
      4       2.00000         -18.963071         -516.01142
      5       2.00000         -18.939902         -515.38096
      6       2.00000          -1.073482          -29.21092
      7       2.00000          -1.054010          -28.68108
      8       2.00000          -1.053769          -28.67451
      9       2.00000          -1.045288          -28.44374
     10       2.00000          -1.000263          -27.21855
     11       2.00000          -0.620464          -16.88369
     12       2.00000          -0.605975          -16.48941
     13       2.00000          -0.588351          -16.00984
     14       2.00000          -0.576632          -15.69094
     15       2.00000          -0.534204          -14.53644
     16       2.00000          -0.483533          -13.15761
     17       2.00000          -0.468288          -12.74276
     18       2.00000          -0.460574          -12.53284
     19       2.00000          -0.457253          -12.44248
     20       2.00000          -0.431531          -11.74256
     21       2.00000          -0.407904          -11.09962
     22       2.00000          -0.395086          -10.75084
     23       2.00000          -0.392621          -10.68376
     24       2.00000          -0.386791          -10.52511
     25       2.00000          -0.356118           -9.69047
     26       0.00000          -0.091241           -2.48278
     27       0.00000          -0.061220           -1.66588
     28       0.00000          -0.054558           -1.48460
     29       0.00000          -0.044378           -1.20758
     30       0.00000          -0.028693           -0.78079
     31       0.00000          -0.005794           -0.15766
     32       0.00000          -0.002830           -0.07702
     33       0.00000           0.041789            1.13715
     34       0.00000           0.049619            1.35021
     35       0.00000           0.055739            1.51672
     36       0.00000           0.078208            2.12815
     37       0.00000           0.081559            2.21933
     38       0.00000           0.091985            2.50304
     39       0.00000           0.100726            2.74090
     40       0.00000           0.104519            2.84412
     41       0.00000           0.113257            3.08187
     42       0.00000           0.117009            3.18398
     43       0.00000           0.122799            3.34153
     44       0.00000           0.128943            3.50872
     45       0.00000           0.143987            3.91809
     46       0.00000           0.147833            4.02275
     47       0.00000           0.152722            4.15578
     48       0.00000           0.170394            4.63665
     49       0.00000           0.174276            4.74230
     50       0.00000           0.178974            4.87014
     51       0.00000           0.189944            5.16865
     52       0.00000           0.222713            6.06034
     53       0.00000           0.239947            6.52930
     54       0.00000           0.263053            7.15804
     55       0.00000           0.264377            7.19405
     56       0.00000           0.272902            7.42604
     57       0.00000           0.283103            7.70362
     58       0.00000           0.291710            7.93784
     59       0.00000           0.308891            8.40535
     60       0.00000           0.323991            8.81626
     61       0.00000           0.334373            9.09876
     62       0.00000           0.359479            9.78192
     63       0.00000           0.366413            9.97061
     64       0.00000           0.375436           10.21614
     65       0.00000           0.392141           10.67070
     66       0.00000           0.405973           11.04710
     67       0.00000           0.407488           11.08832
     68       0.00000           0.422523           11.49745
     69       0.00000           0.431107           11.73101
     70       0.00000           0.433625           11.79952
     71       0.00000           0.454297           12.36205
     72       0.00000           0.462398           12.58248
     73       0.00000           0.491049           13.36213
     74       0.00000           0.493714           13.43463
     75       0.00000           0.500237           13.61214
     76       0.00000           0.534442           14.54290
     77       0.00000           0.561579           15.28133
     78       0.00000           0.564248           15.35397
     79       0.00000           0.573147           15.59612
     80       0.00000           0.584266           15.89869
     81       0.00000           0.606253           16.49698
     82       0.00000           0.635682           17.29778
     83       0.00000           0.642006           17.46986
     84       0.00000           0.658309           17.91351
     85       0.00000           0.682993           18.58517

  Highest occupied state (VBM) at     -9.69047031 eV
  | Occupation number:      2.00000000

  Lowest unoccupied state (CBM) at    -2.48278361 eV
  | Occupation number:      0.00000000

  Overall HOMO-LUMO gap:      7.20768670 eV.

  Total energy components:
  | Sum of eigenvalues            :        -214.43147723 Ha       -5834.97737587 eV
  | XC energy correction          :         -45.76889236 Ha       -1245.43492827 eV
  | XC potential correction       :          58.48086920 Ha        1591.34541756 eV
  | Free-atom electrostatic energy:        -178.95593828 Ha       -4869.63884519 eV
  | Hartree energy correction     :          -2.25922602 Ha         -61.47666802 eV
  | van der Waals energy corr.    :           0.00000000 Ha           0.00000000 eV
  | Entropy correction            :           0.00000000 Ha           0.00000000 eV
  | ---------------------------
  | Total energy                  :        -382.93466471 Ha      -10420.18239980 eV
  | Total energy, T -> 0          :        -382.93466471 Ha      -10420.18239980 eV  <-- do not rely on this value for anything but (periodic) metals
  | Electronic free energy        :        -382.93466471 Ha      -10420.18239980 eV

  Derived energy quantities:
  | Kinetic energy                :         380.51505951 Ha       10354.34159231 eV
  | Electrostatic energy          :        -717.68083185 Ha      -19529.08906384 eV
  | Energy correction for multipole
  | error in Hartree potential    :          -0.00001049 Ha          -0.00028542 eV
  | Sum of eigenvalues per atom                           :        -388.99849172 eV
  | Total energy (T->0) per atom                          :        -694.67882665 eV  <-- do not rely on this value for anything but (periodic) metals
  | Electronic free energy per atom                       :        -694.67882665 eV

  Self-consistency convergence accuracy:
  | Change of charge density      : 0.6770E+00
  | Change of sum of eigenvalues  : 0.6350E+02 eV
  | Change of total energy        : 0.4110E+01 eV

  End self-consistency iteration #     1       :  max(cpu_time)    wall_clock(cpu1)
  | Time for this iteration                    :        1.920 s           1.920 s
  | Charge density update                      :        0.632 s           0.633 s
  | Density mixing                             :        0.004 s           0.003 s
  | Hartree multipole update                   :        0.005 s           0.005 s
  | Hartree multipole summation                :        0.323 s           0.324 s
  | Integration                                :        0.901 s           0.900 s
  | Solution of K.-S. eqns.                    :        0.054 s           0.054 s
  | Total energy evaluation                    :        0.000 s           0.001 s
------------------------------------------------------------

------------------------------------------------------------
          Begin self-consistency iteration #    2

  Date     :  20150727, Time     :  121126.450
------------------------------------------------------------
  Evaluating new KS density.
  Integration grid: deviation in total charge (<rho> - N_e) =  -3.552714E-14
  Pulay mixing of updated and previous charge densities.

  Evaluating partitioned Hartree potential by multipole expansion.
  | Analytical far-field extrapolation by fixed multipoles:
  | Hartree multipole sum: apparent total charge =  -0.298732E-05
  Summing up the Hartree potential.
  Time summed over all CPUs for potential: real work        2.566 s, elapsed        2.583 s
  | RMS charge density error from multipole expansion :   0.647771E-02

  Integrating Hamiltonian matrix: batch-based integration.
  Time summed over all CPUs for integration: real work        6.951 s, elapsed        7.120 s

  Updating Kohn-Sham eigenvalues, eigenvectors, occupation numbers, and Fermi level.
  Solving generalized eigenproblem
  Updating Kohn-Sham eigenvalues and eigenfunctions.
  Solving real generalised eigenvalue problem by standard LAPACK (fast)
  Determining occupation numbers for Kohn-Sham eigenstates.
  | Chemical potential (Fermi level) in eV                 : -.40886162E+01
  | Error in electron count due to remaining E_F inaccuracy: 0.00000000E+00
  | Maximum occupation number of highest empty state:  0.00E+00

  Highest occupied state (VBM) at     -6.77216292 eV
  | Occupation number:      2.00000000

  Lowest unoccupied state (CBM) at    -1.90643718 eV
  | Occupation number:      0.00000000

  Overall HOMO-LUMO gap:      4.86572574 eV.

  Total energy components:
  | Sum of eigenvalues            :        -209.01543500 Ha       -5687.59936816 eV
  | XC energy correction          :         -46.37086477 Ha       -1261.81543085 eV
  | XC potential correction       :          59.26867272 Ha        1612.78264222 eV
  | Free-atom electrostatic energy:        -178.95593828 Ha       -4869.63884519 eV
  | Hartree energy correction     :          -7.69037665 Ha        -209.26579596 eV
  | van der Waals energy corr.    :           0.00000000 Ha           0.00000000 eV
  | Entropy correction            :           0.00000000 Ha           0.00000000 eV
  | ---------------------------
  | Total energy                  :        -382.76394198 Ha      -10415.53679794 eV
  | Total energy, T -> 0          :        -382.76394198 Ha      -10415.53679794 eV  <-- do not rely on this value for anything but (periodic) metals
  | Electronic free energy        :        -382.76394198 Ha      -10415.53679794 eV

  Derived energy quantities:
  | Kinetic energy                :         383.41919291 Ha       10433.36708294 eV
  | Electrostatic energy          :        -719.81227012 Ha      -19587.08845003 eV
  | Energy correction for multipole
  | error in Hartree potential    :          -0.00076321 Ha          -0.02076797 eV
  | Sum of eigenvalues per atom                           :        -379.17329121 eV
  | Total energy (T->0) per atom                          :        -694.36911986 eV  <-- do not rely on this value for anything but (periodic) metals
  | Electronic free energy per atom                       :        -694.36911986 eV

  Self-consistency convergence accuracy:
  | Change of charge density      : 0.5113E+00
  | Change of sum of eigenvalues  : 0.1474E+03 eV
  | Change of total energy        : 0.4646E+01 eV

  End self-consistency iteration #     2       :  max(cpu_time)    wall_clock(cpu1)
  | Time for this iteration                    :        1.909 s           1.909 s
  | Charge density update                      :        0.629 s           0.629 s
  | Density mixing                             :        0.005 s           0.005 s
  | Hartree multipole update                   :        0.005 s           0.005 s
  | Hartree multipole summation                :        0.324 s           0.324 s
  | Integration                                :        0.892 s           0.891 s
  | Solution of K.-S. eqns.                    :        0.053 s           0.053 s
  | Total energy evaluation                    :        0.000 s           0.000 s
------------------------------------------------------------

------------------------------------------------------------
          Begin self-consistency iteration #    3

  Date     :  20150727, Time     :  121128.359
------------------------------------------------------------
  Evaluating new KS density.
  Integration grid: deviation in total charge (<rho> - N_e) =   3.552714E-14
  Pulay mixing of updated and previous charge densities.

  Evaluating partitioned Hartree potential by multipole expansion.
  | Analytical far-field extrapolation by fixed multipoles:
  | Hartree multipole sum: apparent total charge =  -0.425562E-06
  Summing up the Hartree potential.
  Time summed over all CPUs for potential: real work        2.566 s, elapsed        2.583 s
  | RMS charge density error from multipole expansion :   0.133167E-01

  Integrating Hamiltonian matrix: batch-based integration.
  Time summed over all CPUs for integration: real work        6.948 s, elapsed        7.126 s

  Updating Kohn-Sham eigenvalues, eigenvectors, occupation numbers, and Fermi level.
  Solving generalized eigenproblem
  Updating Kohn-Sham eigenvalues and eigenfunctions.
  Solving real generalised eigenvalue problem by standard LAPACK (fast)
  Determining occupation numbers for Kohn-Sham eigenstates.
  | Chemical potential (Fermi level) in eV                 : -.38121830E+01
  | Error in electron count due to remaining E_F inaccuracy: 0.00000000E+00
  | Maximum occupation number of highest empty state:  0.00E+00

  Highest occupied state (VBM) at     -6.83117952 eV
  | Occupation number:      2.00000000

  Lowest unoccupied state (CBM) at    -1.79054467 eV
  | Occupation number:      0.00000000

  Overall HOMO-LUMO gap:      5.04063485 eV.

  Total energy components:
  | Sum of eigenvalues            :        -209.25978155 Ha       -5694.24837607 eV
  | XC energy correction          :         -46.34438936 Ha       -1261.09499828 eV
  | XC potential correction       :          59.22924446 Ha        1611.70974475 eV
  | Free-atom electrostatic energy:        -178.95593828 Ha       -4869.63884519 eV
  | Hartree energy correction     :          -7.42889488 Ha        -202.15051489 eV
  | van der Waals energy corr.    :           0.00000000 Ha           0.00000000 eV
  | Entropy correction            :           0.00000000 Ha           0.00000000 eV
  | ---------------------------
  | Total energy                  :        -382.75975960 Ha      -10415.42298968 eV
  | Total energy, T -> 0          :        -382.75975960 Ha      -10415.42298968 eV  <-- do not rely on this value for anything but (periodic) metals
  | Electronic free energy        :        -382.75975960 Ha      -10415.42298968 eV

  Derived energy quantities:
  | Kinetic energy                :         381.31196625 Ha       10376.02652797 eV
  | Electrostatic energy          :        -717.72733649 Ha      -19530.35451937 eV
  | Energy correction for multipole
  | error in Hartree potential    :          -0.00485967 Ha          -0.13223840 eV
  | Sum of eigenvalues per atom                           :        -379.61655840 eV
  | Total energy (T->0) per atom                          :        -694.36153265 eV  <-- do not rely on this value for anything but (periodic) metals
  | Electronic free energy per atom                       :        -694.36153265 eV

  Self-consistency convergence accuracy:
  | Change of charge density      : 0.2588E+00
  | Change of sum of eigenvalues  : -.6649E+01 eV
  | Change of total energy        : 0.1138E+00 eV

  End self-consistency iteration #     3       :  max(cpu_time)    wall_clock(cpu1)
  | Time for this iteration                    :        1.908 s           1.907 s
  | Charge density update                      :        0.625 s           0.625 s
  | Density mixing                             :        0.007 s           0.007 s
  | Hartree multipole update                   :        0.005 s           0.005 s
  | Hartree multipole summation                :        0.324 s           0.324 s
  | Integration                                :        0.892 s           0.892 s
  | Solution of K.-S. eqns.                    :        0.054 s           0.054 s
  | Total energy evaluation                    :        0.001 s           0.000 s
------------------------------------------------------------

------------------------------------------------------------
          Begin self-consistency iteration #    4

  Date     :  20150727, Time     :  121130.266
------------------------------------------------------------
  Evaluating new KS density.
  Integration grid: deviation in total charge (<rho> - N_e) =   7.105427E-14
  Pulay mixing of updated and previous charge densities.

  Evaluating partitioned Hartree potential by multipole expansion.
  | Analytical far-field extrapolation by fixed multipoles:
  | Hartree multipole sum: apparent total charge =  -0.137814E-06
  Summing up the Hartree potential.
  Time summed over all CPUs for potential: real work        2.565 s, elapsed        2.582 s
  | RMS charge density error from multipole expansion :   0.168608E-01

  Integrating Hamiltonian matrix: batch-based integration.
  Time summed over all CPUs for integration: real work        6.934 s, elapsed        7.109 s

  Updating Kohn-Sham eigenvalues, eigenvectors, occupation numbers, and Fermi level.
  Solving generalized eigenproblem
  Updating Kohn-Sham eigenvalues and eigenfunctions.
  Solving real generalised eigenvalue problem by standard LAPACK (fast)
  Determining occupation numbers for Kohn-Sham eigenstates.
  | Chemical potential (Fermi level) in eV                 : -.34214012E+01
  | Error in electron count due to remaining E_F inaccuracy: 0.00000000E+00
  | Maximum occupation number of highest empty state:  0.00E+00

  Highest occupied state (VBM) at     -5.87274826 eV
  | Occupation number:      2.00000000

  Lowest unoccupied state (CBM) at    -1.62296049 eV
  | Occupation number:      0.00000000

  Overall HOMO-LUMO gap:      4.24978777 eV.

  Total energy components:
  | Sum of eigenvalues            :        -207.65811533 Ha       -5650.66482081 eV
  | XC energy correction          :         -46.54122665 Ha       -1266.45121356 eV
  | XC potential correction       :          59.48632052 Ha        1618.70514005 eV
  | Free-atom electrostatic energy:        -178.95593828 Ha       -4869.63884519 eV
  | Hartree energy correction     :          -9.07843870 Ha        -247.03688611 eV
  | van der Waals energy corr.    :           0.00000000 Ha           0.00000000 eV
  | Entropy correction            :           0.00000000 Ha           0.00000000 eV
  | ---------------------------
  | Total energy                  :        -382.74739845 Ha      -10415.08662563 eV
  | Total energy, T -> 0          :        -382.74739845 Ha      -10415.08662563 eV  <-- do not rely on this value for anything but (periodic) metals
  | Electronic free energy        :        -382.74739845 Ha      -10415.08662563 eV

  Derived energy quantities:
  | Kinetic energy                :         381.55735587 Ha       10382.70391931 eV
  | Electrostatic energy          :        -717.76352767 Ha      -19531.33933137 eV
  | Energy correction for multipole
  | error in Hartree potential    :          -0.00636363 Ha          -0.17316307 eV
  | Sum of eigenvalues per atom                           :        -376.71098805 eV
  | Total energy (T->0) per atom                          :        -694.33910838 eV  <-- do not rely on this value for anything but (periodic) metals
  | Electronic free energy per atom                       :        -694.33910838 eV

  Self-consistency convergence accuracy:
  | Change of charge density      : 0.1422E+00
  | Change of sum of eigenvalues  : 0.4358E+02 eV
  | Change of total energy        : 0.3364E+00 eV

  End self-consistency iteration #     4       :  max(cpu_time)    wall_clock(cpu1)
  | Time for this iteration                    :        1.907 s           1.907 s
  | Charge density update                      :        0.625 s           0.626 s
  | Density mixing                             :        0.009 s           0.008 s
  | Hartree multipole update                   :        0.005 s           0.005 s
  | Hartree multipole summation                :        0.323 s           0.324 s
  | Integration                                :        0.891 s           0.890 s
  | Solution of K.-S. eqns.                    :        0.054 s           0.054 s
  | Total energy evaluation                    :        0.000 s           0.000 s
------------------------------------------------------------

------------------------------------------------------------
          Begin self-consistency iteration #    5

  Date     :  20150727, Time     :  121132.174
------------------------------------------------------------
  Evaluating new KS density.
  Integration grid: deviation in total charge (<rho> - N_e) =   2.842171E-14
  Pulay mixing of updated and previous charge densities.

  Evaluating partitioned Hartree potential by multipole expansion.
  | Analytical far-field extrapolation by fixed multipoles:
  | Hartree multipole sum: apparent total charge =   0.158386E-06
  Summing up the Hartree potential.
  Time summed over all CPUs for potential: real work        2.566 s, elapsed        2.582 s
  | RMS charge density error from multipole expansion :   0.176450E-01

  Integrating Hamiltonian matrix: batch-based integration.
  Time summed over all CPUs for integration: real work        6.932 s, elapsed        7.112 s

  Updating Kohn-Sham eigenvalues, eigenvectors, occupation numbers, and Fermi level.
  Solving generalized eigenproblem
  Updating Kohn-Sham eigenvalues and eigenfunctions.
  Solving real generalised eigenvalue problem by standard LAPACK (fast)
  Determining occupation numbers for Kohn-Sham eigenstates.
  | Chemical potential (Fermi level) in eV                 : -.34065511E+01
  | Error in electron count due to remaining E_F inaccuracy: 0.00000000E+00
  | Maximum occupation number of highest empty state:  0.00E+00

  Highest occupied state (VBM) at     -5.59389415 eV
  | Occupation number:      2.00000000

  Lowest unoccupied state (CBM) at    -1.61504246 eV
  | Occupation number:      0.00000000

  Overall HOMO-LUMO gap:      3.97885169 eV.

  Total energy components:
  | Sum of eigenvalues            :        -207.50145244 Ha       -5646.40180659 eV
  | XC energy correction          :         -46.56356027 Ha       -1267.05894212 eV
  | XC potential correction       :          59.51513878 Ha        1619.48932498 eV
  | Free-atom electrostatic energy:        -178.95593828 Ha       -4869.63884519 eV
  | Hartree energy correction     :          -9.24116177 Ha        -251.46480616 eV
  | van der Waals energy corr.    :           0.00000000 Ha           0.00000000 eV
  | Entropy correction            :           0.00000000 Ha           0.00000000 eV
  | ---------------------------
  | Total energy                  :        -382.74697398 Ha      -10415.07507507 eV
  | Total energy, T -> 0          :        -382.74697398 Ha      -10415.07507507 eV  <-- do not rely on this value for anything but (periodic) metals
  | Electronic free energy        :        -382.74697398 Ha      -10415.07507507 eV

  Derived energy quantities:
  | Kinetic energy                :         381.56744746 Ha       10382.97852548 eV
  | Electrostatic energy          :        -717.75086117 Ha      -19530.99465844 eV
  | Energy correction for multipole
  | error in Hartree potential    :          -0.00664100 Ha          -0.18071072 eV
  | Sum of eigenvalues per atom                           :        -376.42678711 eV
  | Total energy (T->0) per atom                          :        -694.33833834 eV  <-- do not rely on this value for anything but (periodic) metals
  | Electronic free energy per atom                       :        -694.33833834 eV

  Self-consistency convergence accuracy:
  | Change of charge density      : 0.3701E-01
  | Change of sum of eigenvalues  : 0.4263E+01 eV
  | Change of total energy        : 0.1155E-01 eV

  End self-consistency iteration #     5       :  max(cpu_time)    wall_clock(cpu1)
  | Time for this iteration                    :        1.908 s           1.907 s
  | Charge density update                      :        0.625 s           0.624 s
  | Density mixing                             :        0.009 s           0.009 s
  | Hartree multipole update                   :        0.005 s           0.005 s
  | Hartree multipole summation                :        0.324 s           0.324 s
  | Integration                                :        0.890 s           0.890 s
  | Solution of K.-S. eqns.                    :        0.054 s           0.054 s
  | Total energy evaluation                    :        0.000 s           0.000 s
------------------------------------------------------------

------------------------------------------------------------
          Begin self-consistency iteration #    6

  Date     :  20150727, Time     :  121134.081
------------------------------------------------------------
  Evaluating new KS density.
  Integration grid: deviation in total charge (<rho> - N_e) =   7.105427E-15
  Pulay mixing of updated and previous charge densities.

  Evaluating partitioned Hartree potential by multipole expansion.
  | Analytical far-field extrapolation by fixed multipoles:
  | Hartree multipole sum: apparent total charge =   0.230281E-06
  Summing up the Hartree potential.
  Time summed over all CPUs for potential: real work        2.566 s, elapsed        2.583 s
  | RMS charge density error from multipole expansion :   0.179186E-01

  Integrating Hamiltonian matrix: batch-based integration.
  Time summed over all CPUs for integration: real work        6.933 s, elapsed        7.116 s

  Updating Kohn-Sham eigenvalues, eigenvectors, occupation numbers, and Fermi level.
  Solving generalized eigenproblem
  Updating Kohn-Sham eigenvalues and eigenfunctions.
  Solving real generalised eigenvalue problem by standard LAPACK (fast)
  Determining occupation numbers for Kohn-Sham eigenstates.
  | Chemical potential (Fermi level) in eV                 : -.33856464E+01
  | Error in electron count due to remaining E_F inaccuracy: 0.00000000E+00
  | Maximum occupation number of highest empty state:  0.00E+00

  Highest occupied state (VBM) at     -5.56168306 eV
  | Occupation number:      2.00000000

  Lowest unoccupied state (CBM) at    -1.60503852 eV
  | Occupation number:      0.00000000

  Overall HOMO-LUMO gap:      3.95664453 eV.

  Total energy components:
  | Sum of eigenvalues            :        -207.42682552 Ha       -5644.37110478 eV
  | XC energy correction          :         -46.57352112 Ha       -1267.32999083 eV
  | XC potential correction       :          59.52807466 Ha        1619.84132809 eV
  | Free-atom electrostatic energy:        -178.95593828 Ha       -4869.63884519 eV
  | Hartree energy correction     :          -9.31884635 Ha        -253.57871123 eV
  | van der Waals energy corr.    :           0.00000000 Ha           0.00000000 eV
  | Entropy correction            :           0.00000000 Ha           0.00000000 eV
  | ---------------------------
  | Total energy                  :        -382.74705662 Ha      -10415.07732395 eV
  | Total energy, T -> 0          :        -382.74705662 Ha      -10415.07732395 eV  <-- do not rely on this value for anything but (periodic) metals
  | Electronic free energy        :        -382.74705662 Ha      -10415.07732395 eV

  Derived energy quantities:
  | Kinetic energy                :         381.57069009 Ha       10383.06676204 eV
  | Electrostatic energy          :        -717.74422559 Ha      -19530.81409515 eV
  | Energy correction for multipole
  | error in Hartree potential    :          -0.00674827 Ha          -0.18362972 eV
  | Sum of eigenvalues per atom                           :        -376.29140699 eV
  | Total energy (T->0) per atom                          :        -694.33848826 eV  <-- do not rely on this value for anything but (periodic) metals
  | Electronic free energy per atom                       :        -694.33848826 eV

  Self-consistency convergence accuracy:
  | Change of charge density      : 0.9253E-02
  | Change of sum of eigenvalues  : 0.2031E+01 eV
  | Change of total energy        : -.2249E-02 eV

  End self-consistency iteration #     6       :  max(cpu_time)    wall_clock(cpu1)
  | Time for this iteration                    :        1.913 s           1.913 s
  | Charge density update                      :        0.628 s           0.627 s
  | Density mixing                             :        0.011 s           0.011 s
  | Hartree multipole update                   :        0.004 s           0.005 s
  | Hartree multipole summation                :        0.324 s           0.324 s
  | Integration                                :        0.891 s           0.891 s
  | Solution of K.-S. eqns.                    :        0.053 s           0.054 s
  | Total energy evaluation                    :        0.000 s           0.001 s
------------------------------------------------------------

------------------------------------------------------------
          Begin self-consistency iteration #    7

  Date     :  20150727, Time     :  121135.994
------------------------------------------------------------
  Evaluating new KS density.
  Integration grid: deviation in total charge (<rho> - N_e) =   3.552714E-14
  Pulay mixing of updated and previous charge densities.

  Evaluating partitioned Hartree potential by multipole expansion.
  | Analytical far-field extrapolation by fixed multipoles:
  | Hartree multipole sum: apparent total charge =   0.530333E-06
  Summing up the Hartree potential.
  Time summed over all CPUs for potential: real work        2.565 s, elapsed        2.582 s
  | RMS charge density error from multipole expansion :   0.179258E-01

  Integrating Hamiltonian matrix: batch-based integration.
  Time summed over all CPUs for integration: real work        6.935 s, elapsed        7.141 s

  Updating Kohn-Sham eigenvalues, eigenvectors, occupation numbers, and Fermi level.
  Solving generalized eigenproblem
  Updating Kohn-Sham eigenvalues and eigenfunctions.
  Solving real generalised eigenvalue problem by standard LAPACK (fast)
  Determining occupation numbers for Kohn-Sham eigenstates.
  | Chemical potential (Fermi level) in eV                 : -.34338382E+01
  | Error in electron count due to remaining E_F inaccuracy: 0.00000000E+00
  | Maximum occupation number of highest empty state:  0.00E+00

  Highest occupied state (VBM) at     -5.65352868 eV
  | Occupation number:      2.00000000

  Lowest unoccupied state (CBM) at    -1.62582263 eV
  | Occupation number:      0.00000000

  Overall HOMO-LUMO gap:      4.02770605 eV.

  Total energy components:
  | Sum of eigenvalues            :        -207.57386547 Ha       -5648.37226537 eV
  | XC energy correction          :         -46.55698113 Ha       -1266.87991478 eV
  | XC potential correction       :          59.50590087 Ha        1619.23794854 eV
  | Free-atom electrostatic energy:        -178.95593828 Ha       -4869.63884519 eV
  | Hartree energy correction     :          -9.16606528 Ha        -249.42132680 eV
  | van der Waals energy corr.    :           0.00000000 Ha           0.00000000 eV
  | Entropy correction            :           0.00000000 Ha           0.00000000 eV
  | ---------------------------
  | Total energy                  :        -382.74694930 Ha      -10415.07440360 eV
  | Total energy, T -> 0          :        -382.74694930 Ha      -10415.07440360 eV  <-- do not rely on this value for anything but (periodic) metals
  | Electronic free energy        :        -382.74694930 Ha      -10415.07440360 eV

  Derived energy quantities:
  | Kinetic energy                :         381.62314256 Ha       10384.49406638 eV
  | Electrostatic energy          :        -717.81311073 Ha      -19532.68855520 eV
  | Energy correction for multipole
  | error in Hartree potential    :          -0.00659441 Ha          -0.17944310 eV
  | Sum of eigenvalues per atom                           :        -376.55815102 eV
  | Total energy (T->0) per atom                          :        -694.33829357 eV  <-- do not rely on this value for anything but (periodic) metals
  | Electronic free energy per atom                       :        -694.33829357 eV

  Self-consistency convergence accuracy:
  | Change of charge density      : 0.1044E-01
  | Change of sum of eigenvalues  : -.4001E+01 eV
  | Change of total energy        : 0.2920E-02 eV

  End self-consistency iteration #     7       :  max(cpu_time)    wall_clock(cpu1)
  | Time for this iteration                    :        1.915 s           1.914 s
  | Charge density update                      :        0.625 s           0.625 s
  | Density mixing                             :        0.013 s           0.012 s
  | Hartree multipole update                   :        0.004 s           0.005 s
  | Hartree multipole summation                :        0.324 s           0.323 s
  | Integration                                :        0.894 s           0.894 s
  | Solution of K.-S. eqns.                    :        0.054 s           0.054 s
  | Total energy evaluation                    :        0.000 s           0.000 s
------------------------------------------------------------

------------------------------------------------------------
          Begin self-consistency iteration #    8

  Date     :  20150727, Time     :  121137.908
------------------------------------------------------------
  Evaluating new KS density.
  Integration grid: deviation in total charge (<rho> - N_e) =   2.842171E-14
  Pulay mixing of updated and previous charge densities.

  Evaluating partitioned Hartree potential by multipole expansion.
  | Analytical far-field extrapolation by fixed multipoles:
  | Hartree multipole sum: apparent total charge =   0.539540E-06
  Summing up the Hartree potential.
  Time summed over all CPUs for potential: real work        2.565 s, elapsed        2.582 s
  | RMS charge density error from multipole expansion :   0.179446E-01

  Integrating Hamiltonian matrix: batch-based integration.
  Time summed over all CPUs for integration: real work        6.934 s, elapsed        7.144 s

  Updating Kohn-Sham eigenvalues, eigenvectors, occupation numbers, and Fermi level.
  Solving generalized eigenproblem
  Updating Kohn-Sham eigenvalues and eigenfunctions.
  Solving real generalised eigenvalue problem by standard LAPACK (fast)
  Determining occupation numbers for Kohn-Sham eigenstates.
  | Chemical potential (Fermi level) in eV                 : -.34327453E+01
  | Error in electron count due to remaining E_F inaccuracy: 0.00000000E+00
  | Maximum occupation number of highest empty state:  0.00E+00

  Highest occupied state (VBM) at     -5.64726398 eV
  | Occupation number:      2.00000000

  Lowest unoccupied state (CBM) at    -1.62537928 eV
  | Occupation number:      0.00000000

  Overall HOMO-LUMO gap:      4.02188469 eV.

  Total energy components:
  | Sum of eigenvalues            :        -207.56988584 Ha       -5648.26397422 eV
  | XC energy correction          :         -46.55745514 Ha       -1266.89281316 eV
  | XC potential correction       :          59.50650924 Ha        1619.25450321 eV
  | Free-atom electrostatic energy:        -178.95593828 Ha       -4869.63884519 eV
  | Hartree energy correction     :          -9.17017951 Ha        -249.53328047 eV
  | van der Waals energy corr.    :           0.00000000 Ha           0.00000000 eV
  | Entropy correction            :           0.00000000 Ha           0.00000000 eV
  | ---------------------------
  | Total energy                  :        -382.74694953 Ha      -10415.07440983 eV
  | Total energy, T -> 0          :        -382.74694953 Ha      -10415.07440983 eV  <-- do not rely on this value for anything but (periodic) metals
  | Electronic free energy        :        -382.74694953 Ha      -10415.07440983 eV

  Derived energy quantities:
  | Kinetic energy                :         381.62427819 Ha       10384.52496827 eV
  | Electrostatic energy          :        -717.81377258 Ha      -19532.70656494 eV
  | Energy correction for multipole
  | error in Hartree potential    :          -0.00659928 Ha          -0.17957553 eV
  | Sum of eigenvalues per atom                           :        -376.55093161 eV
  | Total energy (T->0) per atom                          :        -694.33829399 eV  <-- do not rely on this value for anything but (periodic) metals
  | Electronic free energy per atom                       :        -694.33829399 eV

  Self-consistency convergence accuracy:
  | Change of charge density      : 0.1238E-02
  | Change of sum of eigenvalues  : 0.1083E+00 eV
  | Change of total energy        : -.6231E-05 eV

  End self-consistency iteration #     8       :  max(cpu_time)    wall_clock(cpu1)
  | Time for this iteration                    :        1.916 s           1.916 s
  | Charge density update                      :        0.624 s           0.625 s
  | Density mixing                             :        0.014 s           0.014 s
  | Hartree multipole update                   :        0.005 s           0.004 s
  | Hartree multipole summation                :        0.324 s           0.323 s
  | Integration                                :        0.895 s           0.895 s
  | Solution of K.-S. eqns.                    :        0.054 s           0.054 s
  | Total energy evaluation                    :        0.000 s           0.000 s
------------------------------------------------------------

------------------------------------------------------------
          Begin self-consistency iteration #    9

  Date     :  20150727, Time     :  121139.824
------------------------------------------------------------
  Evaluating new KS density.
  Integration grid: deviation in total charge (<rho> - N_e) =   1.421085E-14
  Pulay mixing of updated and previous charge densities.

  Evaluating partitioned Hartree potential by multipole expansion.
  | Analytical far-field extrapolation by fixed multipoles:
  | Hartree multipole sum: apparent total charge =   0.555670E-06
  Summing up the Hartree potential.
  Time summed over all CPUs for potential: real work        2.565 s, elapsed        2.582 s
  | RMS charge density error from multipole expansion :   0.179476E-01

  Integrating Hamiltonian matrix: batch-based integration.
  Time summed over all CPUs for integration: real work        6.929 s, elapsed        7.133 s

  Updating Kohn-Sham eigenvalues, eigenvectors, occupation numbers, and Fermi level.
  Solving generalized eigenproblem
  Updating Kohn-Sham eigenvalues and eigenfunctions.
  Solving real generalised eigenvalue problem by standard LAPACK (fast)
  Determining occupation numbers for Kohn-Sham eigenstates.
  | Chemical potential (Fermi level) in eV                 : -.34327171E+01
  | Error in electron count due to remaining E_F inaccuracy: 0.00000000E+00
  | Maximum occupation number of highest empty state:  0.00E+00

  Highest occupied state (VBM) at     -5.65256563 eV
  | Occupation number:      2.00000000

  Lowest unoccupied state (CBM) at    -1.62553315 eV
  | Occupation number:      0.00000000

  Overall HOMO-LUMO gap:      4.02703247 eV.

  Total energy components:
  | Sum of eigenvalues            :        -207.57269178 Ha       -5648.34032764 eV
  | XC energy correction          :         -46.55700472 Ha       -1266.88055668 eV
  | XC potential correction       :          59.50589488 Ha        1619.23778572 eV
  | Free-atom electrostatic energy:        -178.95593828 Ha       -4869.63884519 eV
  | Hartree energy correction     :          -9.16720839 Ha        -249.45243233 eV
  | van der Waals energy corr.    :           0.00000000 Ha           0.00000000 eV
  | Entropy correction            :           0.00000000 Ha           0.00000000 eV
  | ---------------------------
  | Total energy                  :        -382.74694829 Ha      -10415.07437612 eV
  | Total energy, T -> 0          :        -382.74694829 Ha      -10415.07437612 eV  <-- do not rely on this value for anything but (periodic) metals
  | Electronic free energy        :        -382.74694829 Ha      -10415.07437612 eV

  Derived energy quantities:
  | Kinetic energy                :         381.62923588 Ha       10384.65987394 eV
  | Electrostatic energy          :        -717.81917945 Ha      -19532.85369338 eV
  | Energy correction for multipole
[...]
   ----------------------------------------------------------------
   Total forces(   4)            : -.306742E+00 -.144118E+01 -.410593E+00
  atom #    5
   Hellmann-Feynman + Multipole  : -.555591E+00 0.415636E+00 0.837935E+00
   Pulay + GGA                   : 0.513697E-01 0.884363E-01 0.115242E+00
   Van der Waals               : -.540502E-03 0.470233E-02 -.157609E-02
   ----------------------------------------------------------------
   Total forces(   5)            : -.504761E+00 0.508775E+00 0.951600E+00
  atom #    6
   Hellmann-Feynman + Multipole  : 0.704430E+00 0.884578E+00 0.257329E+00
   Pulay + GGA                   : -.113910E+00 -.652200E-01 0.611480E-01
   Van der Waals               : 0.101545E-02 0.199212E-02 -.133724E-02
   ----------------------------------------------------------------
   Total forces(   6)            : 0.591536E+00 0.821351E+00 0.317139E+00
  atom #    7
   Hellmann-Feynman + Multipole  : -.887528E+00 -.433040E+01 -.154904E+02
   Pulay + GGA                   : 0.173020E+01 0.472512E+01 0.139052E+02
   Van der Waals               : -.948809E-02 -.629897E-02 -.473483E-03
   ----------------------------------------------------------------
   Total forces(   7)            : 0.833186E+00 0.388427E+00 -.158565E+01
  atom #    8
   Hellmann-Feynman + Multipole  : -.462093E+00 -.314045E+00 0.345032E+00
   Pulay + GGA                   : 0.105293E+00 0.563738E-01 0.513868E-01
   Van der Waals               : -.243169E-02 -.185401E-03 -.581520E-03
   ----------------------------------------------------------------
   Total forces(   8)            : -.359231E+00 -.257857E+00 0.395837E+00
  atom #    9
   Hellmann-Feynman + Multipole  : -.358284E+00 -.792130E-01 0.111210E+01
   Pulay + GGA                   : -.658274E-01 -.556942E-01 0.988492E-01
   Van der Waals               : -.340477E-02 -.143810E-02 -.167812E-02
   ----------------------------------------------------------------
   Total forces(   9)            : -.427516E+00 -.136345E+00 0.120927E+01
  atom #   10
   Hellmann-Feynman + Multipole  : -.122142E+02 -.520876E+01 -.126617E+01
   Pulay + GGA                   : 0.130592E+02 0.697156E+01 0.373046E+00
   Van der Waals               : -.175749E-02 -.321273E-02 -.330103E-02
   ----------------------------------------------------------------
   Total forces(  10)            : 0.843147E+00 0.175959E+01 -.896422E+00
  atom #   11
   Hellmann-Feynman + Multipole  : -.159380E+00 -.255259E+00 0.112885E+00
   Pulay + GGA                   : 0.871211E-01 -.282517E-01 0.114162E-01
   Van der Waals               : -.138652E-02 -.361672E-02 -.439511E-02
   ----------------------------------------------------------------
   Total forces(  11)            : -.736458E-01 -.287128E+00 0.119906E+00
  atom #   12
   Hellmann-Feynman + Multipole  : -.830872E+00 -.149874E+01 0.703501E+00
   Pulay + GGA                   : 0.493623E-01 0.986171E-01 -.658160E-01
   Van der Waals               : 0.201357E-02 -.332312E-02 0.223545E-02
   ----------------------------------------------------------------
   Total forces(  12)            : -.779497E+00 -.140345E+01 0.639921E+00
  atom #   13
   Hellmann-Feynman + Multipole  : 0.775378E+00 -.153357E+02 0.130241E+01
   Pulay + GGA                   : 0.262015E+00 0.154518E+02 -.254064E+01
   Van der Waals               : 0.416141E-02 -.727013E-02 0.674442E-03
   ----------------------------------------------------------------
   Total forces(  13)            : 0.104155E+01 0.108826E+00 -.123755E+01
  atom #   14
   Hellmann-Feynman + Multipole  : -.258563E+00 0.435003E+00 0.240797E+00
   Pulay + GGA                   : -.684573E-01 0.916977E-01 0.844967E-01
   Van der Waals               : 0.357072E-02 -.130476E-02 -.335574E-02
   ----------------------------------------------------------------
   Total forces(  14)            : -.323449E+00 0.525396E+00 0.321938E+00
  atom #   15
   Hellmann-Feynman + Multipole  : -.755781E+00 -.803147E+00 0.104960E+01
   Pulay + GGA                   : 0.380887E-01 0.655955E-01 -.605106E-01
   Van der Waals               : 0.231313E-02 -.515970E-02 0.223069E-02
   ----------------------------------------------------------------
   Total forces(  15)            : -.715379E+00 -.742711E+00 0.991319E+00
  Timings for vdw_correction_hirshfeld (Tkatchenko-Scheffler 2009):
  | CPU time:        5.208 s, Wall clock time:        5.209 s.
  Removing unitary transformations (pure translations, rotations) from forces on atoms.
  Atomic forces before filtering:
  | Net force on center of mass :  0.767711E-02 0.468383E-02 -.781948E-02 eV/A
  | Net torque on center of mass:  0.892388E-02 0.188430E-02 -.165935E-01 eV
  Atomic forces after filtering:
  | Net force on center of mass :  -.892031E-16 0.892031E-15 -.178406E-15 eV/A
  | Net torque on center of mass:  0.316268E-14 -.151054E-14 -.264344E-14 eV
 
  Energy and forces in a compact form:
  | Total energy uncorrected      :         -0.104151443764108E+05 eV
  | Total energy corrected        :         -0.104151443764108E+05 eV  <-- do not rely on this value for anything but (periodic) metals
  | Electronic free energy        :         -0.104151443764108E+05 eV
  Total atomic forces (unitary forces cleaned) [eV/Ang]:
  |   1         -0.484509254353167E-01          0.377773244590283E+01         -0.213747116183977E+01
  |   2          0.228559084250552E+01         -0.338551751733398E+01          0.150413133019924E+01
  |   3         -0.204880878960346E+01         -0.232805916873480E+00         -0.188882426985913E+00
  |   4         -0.306734796252327E+00         -0.144151623091790E+01         -0.409754447335534E+00
  |   5         -0.504927354033625E+00          0.508560430880081E+00          0.952352434018059E+00
  |   6          0.591632232069284E+00          0.820880608638459E+00          0.318009046658142E+00
  |   7          0.832556503135729E+00          0.388575117024269E+00         -0.158511826315019E+01
  |   8         -0.359981653303345E+00         -0.257507035530414E+00          0.396325938338557E+00
  |   9         -0.428110243223846E+00         -0.136223737429716E+00          0.120981475836668E+01
  |  10          0.842272137332852E+00          0.175911888384080E+01         -0.896152421492857E+00
  |  11         -0.744524276269529E-01         -0.287374940608933E+00          0.120256612482161E+00
  |  12         -0.780536458760862E+00         -0.140389961042774E+01          0.640091244891057E+00
  |  13          0.104070692314888E+01          0.108327375112380E+00         -0.123727305732620E+01
  |  14         -0.324458672684054E+00          0.524861315829518E+00          0.322113393681462E+00
  |  15         -0.716297317268478E+00         -0.743211188106178E+00          0.991557019495104E+00
 
  ------------------------------------ 
  Start decomposition of the XC Energy 
  ------------------------------------ 
  Hartree-Fock part   :          0.000000000 Ha              0.000000000 eV
  ------------------------------------ 
  X Energy            :        -44.930307509 Ha          -1222.615873321 eV
  C Energy GGA        :         -1.626766957 Ha            -44.266581171 eV
  Total XC Energy     :        -46.557074466 Ha          -1266.882454492 eV
  LDA X and C from self-consistent density 
  X Energy LDA        :        -40.468404462 Ha          -1101.201313918 eV
  C Energy LDA        :         -3.295852240 Ha            -89.684702561 eV
  ------------------------------------ 
  End decomposition of the XC Energy 
  ------------------------------------ 
  Performing Hirshfeld analysis of fragment charges and moments.
  ----------------------------------------------------------------------
  | Atom     1: O
  |   Hirshfeld charge        :     -0.27789995
  |   Free atom volume        :     23.95238533
  |   Hirshfeld volume        :     22.53735538
  |   Hirshfeld dipole vector :      0.01739798       0.04066731       0.02448694
  |   Hirshfeld dipole moment :      0.05055819
  |   Hirshfeld second moments:      0.05429257      -0.01984544       0.01926033
  |                                 -0.01984544      -0.00450433      -0.03333043
  |                                  0.01926033      -0.03333043      -0.05064947
  ----------------------------------------------------------------------
  | Atom     2: H
  |   Hirshfeld charge        :      0.13985228
  |   Free atom volume        :     10.44207651
  |   Hirshfeld volume        :      7.11224697
  |   Hirshfeld dipole vector :     -0.06521311       0.08572723      -0.03235348
  |   Hirshfeld dipole moment :      0.11246625
  |   Hirshfeld second moments:      0.12093269       0.00647125       0.00610822
  |                                  0.00647125       0.07667626      -0.00664558
  |                                  0.00610822      -0.00664558       0.08854763
  ----------------------------------------------------------------------
  | Atom     3: H
  |   Hirshfeld charge        :      0.12702646
  |   Free atom volume        :     10.44207651
  |   Hirshfeld volume        :      7.17376547
  |   Hirshfeld dipole vector :      0.11170408       0.01860491       0.01477895
  |   Hirshfeld dipole moment :      0.11420316
  |   Hirshfeld second moments:      0.10061831      -0.01620622      -0.00285292
  |                                 -0.01620622       0.09863849      -0.01337090
  |                                 -0.00285292      -0.01337090       0.08234067
  ----------------------------------------------------------------------
  | Atom     4: O
  |   Hirshfeld charge        :     -0.28312401
  |   Free atom volume        :     23.95238533
  |   Hirshfeld volume        :     21.69111045
  |   Hirshfeld dipole vector :     -0.03345592       0.02177565       0.01891849
  |   Hirshfeld dipole moment :      0.04417451
  |   Hirshfeld second moments:      0.03103758       0.05721138      -0.00814149
  |                                  0.05721138       0.03503231       0.02589715
  |                                 -0.00814149       0.02589715       0.00688418
  ----------------------------------------------------------------------
  | Atom     5: H
  |   Hirshfeld charge        :      0.13009951
  |   Free atom volume        :     10.44207651
  |   Hirshfeld volume        :      7.01965349
  |   Hirshfeld dipole vector :      0.03566894       0.08857257       0.05930040
  |   Hirshfeld dipole moment :      0.11240067
  |   Hirshfeld second moments:      0.10939420       0.02038626      -0.00594058
  |                                  0.02038626       0.08522354       0.00035758
  |                                 -0.00594058       0.00035758       0.09972253
  ----------------------------------------------------------------------
  | Atom     6: H
  |   Hirshfeld charge        :      0.14676085
  |   Free atom volume        :     10.44207651
  |   Hirshfeld volume        :      6.41626339
  |   Hirshfeld dipole vector :     -0.10478158      -0.06397013       0.02185089
  |   Hirshfeld dipole moment :      0.12469490
  |   Hirshfeld second moments:      0.10444086       0.01289616       0.00059563
  |                                  0.01289616       0.11842096       0.01328219
  |                                  0.00059563       0.01328219       0.11147564
  ----------------------------------------------------------------------
  | Atom     7: O
  |   Hirshfeld charge        :     -0.23175677
  |   Free atom volume        :     23.95238533
  |   Hirshfeld volume        :     20.25864363
  |   Hirshfeld dipole vector :     -0.01570425       0.02324735       0.03069811
  |   Hirshfeld dipole moment :      0.04158650
  |   Hirshfeld second moments:      0.09001700       0.04110536      -0.00108341
  |                                  0.04110536       0.04598162      -0.01632018
  |                                 -0.00108341      -0.01632018       0.06372601
  ----------------------------------------------------------------------
  | Atom     8: H
  |   Hirshfeld charge        :      0.17067837
  |   Free atom volume        :     10.44207651
  |   Hirshfeld volume        :      5.60907407
  |   Hirshfeld dipole vector :      0.09706163       0.06915083       0.03393687
  |   Hirshfeld dipole moment :      0.12391331
  |   Hirshfeld second moments:      0.13322700       0.00655886      -0.00798566
  |                                  0.00655886       0.12129751      -0.00956598
  |                                 -0.00798566      -0.00956598       0.13934896
  ----------------------------------------------------------------------
  | Atom     9: H
  |   Hirshfeld charge        :      0.16615911
  |   Free atom volume        :     10.44207651
  |   Hirshfeld volume        :      6.39711612
  |   Hirshfeld dipole vector :     -0.06667449      -0.03967702       0.08015100
  |   Hirshfeld dipole moment :      0.11155239
  |   Hirshfeld second moments:      0.11121272       0.01321948       0.01463195
  |                                  0.01321948       0.11678865      -0.00150611
  |                                  0.01463195      -0.00150611       0.12166685
  ----------------------------------------------------------------------
  | Atom    10: O
  |   Hirshfeld charge        :     -0.24616855
  |   Free atom volume        :     23.95238533
  |   Hirshfeld volume        :     21.05510460
  |   Hirshfeld dipole vector :      0.01800788       0.01049953       0.02544152
  |   Hirshfeld dipole moment :      0.03289065
  |   Hirshfeld second moments:      0.04525915      -0.00839607      -0.00964732
  |                                 -0.00839607       0.06476824      -0.04024122
  |                                 -0.00964732      -0.04024122       0.02240980
  ----------------------------------------------------------------------
  | Atom    11: H
  |   Hirshfeld charge        :      0.10606224
  |   Free atom volume        :     10.44207651
  |   Hirshfeld volume        :      7.31789098
  |   Hirshfeld dipole vector :      0.05198736      -0.01659792       0.01097467
  |   Hirshfeld dipole moment :      0.05566525
  |   Hirshfeld second moments:      0.07217913       0.02758391      -0.02492850
  |                                  0.02758391       0.09571584       0.00254347
  |                                 -0.02492850       0.00254347       0.08128602
  ----------------------------------------------------------------------
  | Atom    12: H
  |   Hirshfeld charge        :      0.15264503
  |   Free atom volume        :     10.44207651
  |   Hirshfeld volume        :      5.95949360
  |   Hirshfeld dipole vector :      0.03524485       0.10367806      -0.04976612
  |   Hirshfeld dipole moment :      0.12028303
  |   Hirshfeld second moments:      0.13139320      -0.00882255       0.00188350
  |                                 -0.00882255       0.11679824      -0.00700594
  |                                  0.00188350      -0.00700594       0.11547465
  ----------------------------------------------------------------------
  | Atom    13: O
  |   Hirshfeld charge        :     -0.32200855
  |   Free atom volume        :     23.95238533
  |   Hirshfeld volume        :     22.40216667
  |   Hirshfeld dipole vector :     -0.00348997       0.05505024      -0.01680482
  |   Hirshfeld dipole moment :      0.05766377
  |   Hirshfeld second moments:     -0.01337673      -0.02368350      -0.05608200
  |                                 -0.02368350       0.00042105       0.00923902
  |                                 -0.05608200       0.00923902       0.01318923
  ----------------------------------------------------------------------
  | Atom    14: H
  |   Hirshfeld charge        :      0.12738511
  |   Free atom volume        :     10.44207651
  |   Hirshfeld volume        :      6.56482718
  |   Hirshfeld dipole vector :     -0.06379785       0.08799130       0.06234184
  |   Hirshfeld dipole moment :      0.12529620
  |   Hirshfeld second moments:      0.09979981       0.00066242      -0.01694961
  |                                  0.00066242       0.10445998      -0.00696914
  |                                 -0.01694961      -0.00696914       0.11287560
  ----------------------------------------------------------------------
  | Atom    15: H
  |   Hirshfeld charge        :      0.09421271
  |   Free atom volume        :     10.44207651
  |   Hirshfeld volume        :      7.81372337
  |   Hirshfeld dipole vector :      0.01884800       0.04088658      -0.03939878
  |   Hirshfeld dipole moment :      0.05982661
  |   Hirshfeld second moments:      0.06612132      -0.02037520       0.01554152
  |                                 -0.02037520       0.09558898       0.01349960
  |                                  0.01554152       0.01349960       0.04728572
  ----------------------------------------------------------------------


------------------------------------------------------------------------------
  Final output of selected total energy values:

  The following output summarizes some interesting total energy values
  at the end of a run (AFTER all relaxation, molecular dynamics, etc.).

  | Total energy of the DFT / Hartree-Fock s.c.f. calculation      :         -10415.144376411 eV
  | Final zero-broadening corrected energy (caution - metals only) :         -10415.144376411 eV
  | For reference only, the value of 1 Hartree used in FHI-aims is :             27.211384500 eV

  Before relying on these values, please be sure to understand exactly which
  total energy value is referred to by a given number. Different objects may
  all carry the same name 'total energy'. Definitions:

  Total energy of the DFT / Hartree-Fock s.c.f. calculation:
  | Note that this energy does not include ANY quantities calculated after the
  | s.c.f. cycle, in particular not ANY RPA, MP2, etc. many-body perturbation terms.

  Final zero-broadening corrected energy:
  | For metallic systems only, a broadening of the occupation numbers at the Fermi
  | level can be extrapolated back to zero broadening by an electron-gas inspired
  | formula. For all systems that are not real metals, this value can be
  | meaningless and should be avoided.

------------------------------------------------------------------------------

------------------------------------------------------------
          Leaving FHI-aims.
          Date     :  20150727, Time     :  121155.283

          Computational steps:
          | Number of self-consistency cycles          :           14

          Detailed time accounting                     :  max(cpu_time)    wall_clock(cpu1)
          | Total time                                 :       33.188 s          33.236 s
          | Preparation time                           :        0.172 s           0.496 s
          | Grid partitioning                          :        0.137 s           0.137 s
          | Preloading free-atom quantities on grid    :        0.013 s           0.014 s
          | Free-atom superposition energy             :        0.065 s           0.065 s
          | Total time for integrations                :       13.873 s          13.875 s
          | Total time for solution of K.-S. equations :        0.951 s           0.948 s
          | Total time for density & force components  :       11.516 s          11.516 s
          | Total time for mixing                      :        0.175 s           0.172 s
          | Total time for Hartree multipole update    :        0.066 s           0.069 s
          | Total time for Hartree multipole sum       :        5.601 s           5.602 s
          | Total time for total energy evaluation     :        0.004 s           0.005 s
          | Total time for scaled ZORA corrections     :        0.000 s           0.000 s
          | Total time for TS (2009) vdW correction    :        0.051 s           0.052 s

          Have a nice day.
------------------------------------------------------------
