  MPI-parallelism will be employed.
------------------------------------------------------------
          Invoking FHI-aims ...
          Version 081213
          Compiled on 2013/08/29 at 17:41:06 on host generoso.

          When using FHI-aims, please cite the following reference:

          Volker Blum, Ralf Gehrke, Felix Hanke, Paula Havu,
          Ville Havu, Xinguo Ren, Karsten Reuter, and Matthias Scheffler,
          'Ab Initio Molecular Simulations with Numeric Atom-Centered Orbitals: FHI-aims',
          Computer Physics Communications 180, 2175-2196 (2009)

          For any questions about FHI-aims, please visit the aimsclub website
          with its forums and wiki. Contributions to both the forums and the
          wiki are warmly encouraged - they are for you, and everyone is welcome there.

------------------------------------------------------------

  Date     :  20150727, Time     :  113205.748
  Time zero on CPU 1             :   0.499910000000000E-01  s.
  Internal wall clock time zero  :           207228725.748  s.

  Using        8 parallel tasks.
  Task        0 on host gen60 reporting.
  Task        1 on host gen60 reporting.
  Task        2 on host gen60 reporting.
  Task        3 on host gen60 reporting.
  Task        4 on host gen60 reporting.
  Task        5 on host gen60 reporting.
  Task        6 on host gen60 reporting.
  Task        7 on host gen60 reporting.

  Performing system and environment tests:
  | Environment variable OMP_NUM_THREADS correctly set to 1.
  | Checking for scalapack...
  | No scalapack compiled in.

  Obtaining array dimensions for all initial allocations:
  
  -----------------------------------------------------------------------
  Parsing control.in (first pass over file, find array dimensions only).
  The contents of control.in will be repeated verbatim below
  unless switched off by setting 'verbatim_writeout .false.' .
  in the first line of control.in .
  -----------------------------------------------------------------------
  
  #########################################################################################
  #
  #  Volker Blum, FHI 2008 : Test run input file control.in
  #
  #########################################################################################
  #
  #  Physical model
  #
    xc                 rpbe
    spin               none
    relativistic       atomic_zora scalar
    charge             0.
   vdw_correction_hirshfeld
  #
  #  SCF convergence
  #
    occupation_type    gaussian 0.01
    mixer              pulay
      n_max_pulay        10
      charge_mix_param   0.1
    sc_accuracy_rho    5E-5
    sc_accuracy_eev    5E-3
    sc_accuracy_etot   5E-6
    sc_iter_limit      3000
  #
  #  Eigenvalue solver
  #
    KS_method          lapack
      empty_states       8
      basis_threshold    0.e-5
  #
  #  Efficiency
  #
  #   all previous settings are now default, except stratmann still
  #   undecided. Continue to handle stratmann with care, if at all.
  #
  #  partition_type stratmann
    partition_type rho_r2
  #  hartree_partition_type stratmann
  #
  #  Oprions for large clusters (100's of atoms: memory saving / better scaling)
  #
  # for periodic systems:
  #
    density_update_method orbital
    packed_matrix_format none
  #  k_grid 6 6 6
  #  output k_eigenvalue 1
  #  distributed_spline_storage .true.
  #
  #  Relaxation
  #
  #  relax_geometry   bfgs 5.e-3
    sc_accuracy_forces 5.E-4
    final_forces_cleaned .true.
  #
  #  Output options
  #
  #  output mulliken
    output Hirshfeld
  #  output dipole
  
  #harmonic_length_scale 0.001
  
  ################################################################################
  #
  #  FHI-aims code project
  #  VB, Fritz-Haber Institut, 2007
  #
  #  Suggested "safe" defaults for H atom (to be pasted into control.in file)
  #  Basis constructed for a non-relativistic H2 molecule using the
  #  PW-LDA functional.
  #
  ################################################################################
    species        H
  #     global species definitions
      nucleus             1
      cut_pot             4.0  2.0  1.0
      cut_free_atom       finite 8.0
      logarithmic         0.00010000 100.00  1.0123
      basis_dep_cutoff    1d-4  # 1d-4 is safe default - please check 5d-4 if you wish!
      radial_base         24 7.0
      radial_multiplier   2
      angular_grids       specified
        division   0.2783  110
        division   0.3822  194
        division   0.5626  302
  #      division   0.5922  434
  #      division   0.6227  590
  #      division   0.7206  770
        outer_grid  302
      l_hartree           4
  ################################################################################
  #
  #  Definition of "minimal" basis
  #
  ################################################################################
  #     valence basis states
      valence      1  s   1.
  #     ion occupancy
      ion_occ      1  s   0.5
  ################################################################################
  #
  #  Suggested additional basis functions. For production calculations,
  #  uncomment them one after another (the most important basis functions are
  #  listed first).
  #
  ################################################################################
  #  "First tier" - improvements: -1014.90 meV to -62.69 meV
       hydro 2 s 2.1
       hydro 2 p 3.5
  #  "Second tier" - improvements: -12.89 meV to -1.83 meV
       hydro 1 s 0.85
       hydro 2 p 3.7
       hydro 2 s 1.2
       hydro 3 d 7
  #  "Third tier" - improvements: -0.25 meV to -0.12 meV
  #     hydro 4 f 11.2
  #     hydro 3 p 4.8
  #     hydro 4 d 9
  #     hydro 3 s 3.2
  
  ################################################################################
  #
  #  FHI-aims code project
  #  VB, Fritz-Haber Institut, 2007
  #
  #  Suggested "safe" defaults for O atom (to be pasted into control.in file)
  #  All values have been tested for a non-relativistic, non-spinpolarized O2
  #  molecule using the PW-LDA functional. Validity for PBE is expected.
  #
  #  Constructed for dimers: 1.0 A, 1.208 A, 1.5 A, 2.0 A, 3.0 A
  #
  ################################################################################
    species        O
  #     global species definitions
      nucleus             8
      mass                15.9994
      l_hartree           4
      cut_pot             4.0  2.0  1.0
      cut_free_atom       finite 8.0
      basis_dep_cutoff    1d-4  # 1d-4 is safe default - please check 5d-4 if you wish!
      logarithmic         0.00010000 100.00  1.0123
      radial_base         36 7.0
      radial_multiplier   2
       angular_grids specified
        division   0.4087  110
        division   0.5181  194
        division   0.6184  302
  #      division   0.7315  434
  #      division   0.7934  590
  #      division   0.9656  770
  #      division   1.4041  974
  #      outer_grid 974
        outer_grid 302
  ################################################################################
  #
  #  Definition of "minimal" basis
  #
  ################################################################################
  #     valence basis states
      valence      2  s   2.
      valence      2  p   4.
  #     ion occupancy
      ion_occ      2  s   1.
      ion_occ      2  p   3.
  ################################################################################
  #
  #  Suggested additional basis functions. For production calculations,
  #  uncomment them one after another (the most important basis functions are
  #  listed first).
  #
  ################################################################################
  #  "First tier" - improvements: -699.05 meV to -159.38 meV
       hydro 2 p 1.8
       hydro 3 d 7.6
       hydro 3 s 6.4
  #  "Second tier" - improvements: -49.91 meV to -5.39 meV
       hydro 4 f 11.6
       hydro 3 p 6.2
       hydro 3 d 5.6
       hydro 5 g 17.6
       hydro 1 s 0.75
  #  "Third tier" - improvements: -2.83 meV to -0.50 meV
  #     ionic 2 p auto
  #     hydro 4 f 10.8
  #     hydro 4 d 4.7
  #     hydro 2 s 6.8
  #  "Fourth tier" - improvements: -0.40 meV to -0.12 meV
  #     hydro 3 p 5
  #     hydro 3 s 3.3
  #     hydro 5 g 15.6
  #     hydro 4 f 17.6
  #     hydro 4 d 14
  # Further basis functions - -0.08 meV and below
  #     hydro 3 s 2.1
  #     hydro 4 d 11.6
  #     hydro 3 p 16
  #     hydro 2 s 17.2
  
  
  -----------------------------------------------------------------------
  Completed first pass over input file control.in .
  -----------------------------------------------------------------------
  
  
  -----------------------------------------------------------------------
  Parsing geometry.in (first pass over file, find array dimensions only).
  The contents of geometry.in will be repeated verbatim below
  unless switched off by setting 'verbatim_writeout .false.' .
  in the first line of geometry.in .
  -----------------------------------------------------------------------
  
  atom      -4.053030000      0.065001000     -1.525160000  O
  atom      -4.566710000      0.974813000     -1.912820000  H
  atom      -3.067820000      0.330172000     -1.477310000  H
  atom      -4.581760000     -0.256435000      0.939478000  O
  atom      -4.349860000      0.471090000      1.504340000  H
  atom      -5.393870000     -0.726611000      1.228070000  H
  atom      -5.293160000      2.192130000     -2.328800000  O
  atom      -4.829300000      2.988660000     -1.973850000  H
  atom      -5.428570000      2.328640000     -3.235170000  H
  atom      -1.645860000      0.870179000     -1.502250000  O
  atom      -1.568890000      1.501730000     -0.721051000  H
  atom      -0.824432000      0.282220000     -1.377720000  H
  atom      -3.818880000      2.024990000      2.187990000  O
  atom      -3.690880000      1.961360000      3.202150000  H
  atom      -4.546490000      2.751300000      2.045370000  H
  atom      -1.975360000      2.858040000      0.453140000  O
  atom      -1.223550000      3.375850000      0.786238000  H
  atom      -2.537520000      2.567960000      1.156120000  H
  atom      -4.066610000      4.258280000     -0.900064000  O
  atom      -3.224110000      3.876870000     -0.569443000  H
  atom      -3.737450000      5.116530000     -1.322720000  H
  
  -----------------------------------------------------------------------
  Completed first pass over input file geometry.in .
  -----------------------------------------------------------------------
  
 
  Basic array size parameters: 
  | Number of species                 :        2
  | Number of atoms                   :       21
  | Max. basis fn. angular momentum   :        4
  | Max. atomic/ionic basis occupied n:        2
  | Max. number of basis fn. types    :        2
  | Max. radial fns per species/type  :        8
  | Max. logarithmic grid size        :     1301
  | Max. radial integration grid size :       73
  | Max. angular integration grid size:      302
  | Max. angular grid division number :        8
  | Radial grid for Hartree potential :     1301
  | Number of spin channels           :        1

------------------------------------------------------------
          Reading file control.in.
------------------------------------------------------------
  XC: Using RPBE gradient-corrected functionals.
  Spin treatment: No spin polarisation.
  Scalar relativistic treatment of kinetic energy: on-site free-atom approximation to ZORA.
  Charge =   0.000000E+00: Neutral system requested explicitly.
  Using non-empirical van der Waals correction (Hirshfeld partitioning):
  Occupation type: Gaussian broadening, width =   0.100000E-01 eV.
  Using pulay charge density mixing.
  Pulay mixing - number of memorized iterations:   10
  Charge density mixing - mixing parameter:     0.1000
  Convergence accuracy of self-consistent charge density: 0.5000E-04
  Convergence accuracy of sum of eigenvalues: 0.5000E-02
  Convergence accuracy of total energy: 0.5000E-05
  Maximum number of s.-c. iterations  :  3000
  Kohn-Sham eigenvalues and eigenfunctions calculated by lapack diagonalisation (D&C).
  Number of empty states per atom:        8
  Threshold for basis singularities: 0.0000E+00
  Partition function in integrals calculations: rho / r^2
 Using packed matrix format           0
  Convergence accuracy of forces: 0.5000E-03
  Cleaning forces before final output.
  Hirshfeld charge analysis will be performed.
 
  Reading configuration options for species H                   .
  | Found nuclear charge :   1.0000
  | Found cutoff potl. onset [A], width [A], scale factor :    4.00000    2.00000    1.00000
  | Found cutoff specification for free atom: Cutoff potential begins at    8.00000 A.
  | Found logarithmic grid data [bohr] : 0.1000E-03 0.1000E+03 0.1012E+01
  | Threshold for basis-dependent cutoff potential is   0.100000E-03
  | Found data for basic radial integration grid :    24 points, outermost radius =    7.000 A
  | Found multiplier for basic radial grid :   2
  | Found angular grid specification: user-specified.
  | Specified grid contains     4 separate shells.
  | Check grid settings after all constraints further below.
  | Found l_max for Hartree potential  :   4
  | Found free-atom valence shell :  1 s   1.000
  | No ionic wave fns used. Skipping ion_occ.
  | Found hydrogenic basis function :  2 s   2.100
  | Found hydrogenic basis function :  2 p   3.500
  | Found hydrogenic basis function :  1 s   0.850
  | Found hydrogenic basis function :  2 p   3.700
  | Found hydrogenic basis function :  2 s   1.200
  | Found hydrogenic basis function :  3 d   7.000
  Species H                   : Missing cutoff potential type.
  Defaulting to exp(1/x)/(1-x)^2 type cutoff potential.
  Species H : On-site basis accuracy parameter (for Gram-Schmidt orthonormalisation) not specified.
  Using default value basis_acc =  0.1000000E-03.
  Species H                   : Using default innermost maximum threshold i_radial=  2 for radial functions.
  Species H                   : Basic radial grid will be enhanced according to radial_multiplier =   2, to contain    49 grid points.
 
  Reading configuration options for species O                   .
  | Found nuclear charge :   8.0000
  | Found atomic mass :    15.9994000000000      amu
  | Found l_max for Hartree potential  :   4
  | Found cutoff potl. onset [A], width [A], scale factor :    4.00000    2.00000    1.00000
  | Found cutoff specification for free atom: Cutoff potential begins at    8.00000 A.
  | Threshold for basis-dependent cutoff potential is   0.100000E-03
  | Found logarithmic grid data [bohr] : 0.1000E-03 0.1000E+03 0.1012E+01
  | Found data for basic radial integration grid :    36 points, outermost radius =    7.000 A
  | Found multiplier for basic radial grid :   2
  | Found angular grid specification: user-specified.
  | Specified grid contains     4 separate shells.
  | Check grid settings after all constraints further below.
  | Found free-atom valence shell :  2 s   2.000
  | Found free-atom valence shell :  2 p   4.000
  | No ionic wave fns used. Skipping ion_occ.
  | No ionic wave fns used. Skipping ion_occ.
  | Found hydrogenic basis function :  2 p   1.800
  | Found hydrogenic basis function :  3 d   7.600
  | Found hydrogenic basis function :  3 s   6.400
  | Found hydrogenic basis function :  4 f  11.600
  | Found hydrogenic basis function :  3 p   6.200
  | Found hydrogenic basis function :  3 d   5.600
  | Found hydrogenic basis function :  5 g  17.600
  | Found hydrogenic basis function :  1 s   0.750
  Species O                   : Missing cutoff potential type.
  Defaulting to exp(1/x)/(1-x)^2 type cutoff potential.
  Species O : On-site basis accuracy parameter (for Gram-Schmidt orthonormalisation) not specified.
  Using default value basis_acc =  0.1000000E-03.
  Species O                   : Using default innermost maximum threshold i_radial=  2 for radial functions.
  Species O                   : Basic radial grid will be enhanced according to radial_multiplier =   2, to contain    73 grid points.
 
  Finished reading input file 'control.in'. Consistency checks are next.
 
  Target number of points in a grid batch is not set. Defaulting to  100
  Method for grid partitioning is not set. Defaulting to parallel hash+maxmin partitioning.
  Batch size limit is not set. Defaulting to    200
  By default, will store active basis functions for each batch.
  If in need of memory, prune_basis_once .false. can be used to disable this option.
  communication_type for Hartree potential was not specified.
  Defaulting to calc_hartree .
  Pulay mixer: Number of initial linear mixing iterations not set.
  Defaulting to    0 iterations.
  Work space size for distributed Hartree potential not set.
  Defaulting to   0.200000E+03 MB.
  Algorithm-dependent basis array size parameters:
  | n_max_pulay                         :       10
  Geometry relaxation not requested: no relaxation will be performed.
  Handling of forces: Unphysical translation and rotation will be removed from forces.
  No accuracy limit for integral partition fn. given. Defaulting to 0.1000E-14.
  No threshold value for u(r) in integrations given. Defaulting to 0.1000E-05.
  No accuracy for occupation numbers given. Defaulting to 0.1000E-07.
  No threshold value for occupation numbers given. Defaulting to 0.0000E+00.
  No accuracy for fermi level given. Defaulting to 0.1000E-19.
  Maximum # of iterations to find E_F not set. Defaulting to  200.
  Will not use alltoall communication since running on < 1024 CPUs.
  Partitioning for Hartree potential was not defined. Using partition_type for integrals.
  | Reporting present value of keyword multip_moments_threshold  :       0.10000000E-09
  | This value may affect high angular momentum components of the Hartree potential in periodic systems.
  No q(lm)/r^(l+1) cutoff set for long-range Hartree potential.
  | Using default value of  0.100000E-09 .
  | Verify using the multipole_threshold keyword.
  Defaulting to new monopole extrapolation.
  Density update method: Loop over occupied states selected for charge density update.
------------------------------------------------------------


------------------------------------------------------------
          Reading geometry description geometry.in.
------------------------------------------------------------
  Input structure read successfully.
  The structure contains       21 atoms,  and a total of         70.000 electrons.

  Input geometry:
  | No unit cell requested.
  | Atomic structure:
  |       Atom                x [A]            y [A]            z [A]
  |    1: Species O             -4.053030         0.065001        -1.525160
  |    2: Species H             -4.566710         0.974813        -1.912820
  |    3: Species H             -3.067820         0.330172        -1.477310
  |    4: Species O             -4.581760        -0.256435         0.939478
  |    5: Species H             -4.349860         0.471090         1.504340
  |    6: Species H             -5.393870        -0.726611         1.228070
  |    7: Species O             -5.293160         2.192130        -2.328800
  |    8: Species H             -4.829300         2.988660        -1.973850
  |    9: Species H             -5.428570         2.328640        -3.235170
  |   10: Species O             -1.645860         0.870179        -1.502250
  |   11: Species H             -1.568890         1.501730        -0.721051
  |   12: Species H             -0.824432         0.282220        -1.377720
  |   13: Species O             -3.818880         2.024990         2.187990
  |   14: Species H             -3.690880         1.961360         3.202150
  |   15: Species H             -4.546490         2.751300         2.045370
  |   16: Species O             -1.975360         2.858040         0.453140
  |   17: Species H             -1.223550         3.375850         0.786238
  |   18: Species H             -2.537520         2.567960         1.156120
  |   19: Species O             -4.066610         4.258280        -0.900064
  |   20: Species H             -3.224110         3.876870        -0.569443
  |   21: Species H             -3.737450         5.116530        -1.322720
  |

  | The smallest distance between any two atoms is         0.92654057 AA.
  |
  | The first atom of this pair is atom number                      7 .
  | The second atom of this pair is atom number                     9 .

  Structure-dependent array size parameters: 
  | Maximum number of distinct radial functions  :       18
  | Maximum number of basis functions            :      483
  | Number of Kohn-Sham states (occupied + empty):      119
------------------------------------------------------------

------------------------------------------------------------
          Preparing all fixed parts of the calculation.
------------------------------------------------------------
  Determining machine precision:
    2.225073858507201E-308
  Setting up grids for atomic and cluster calculations.

  Creating wave function, potential, and density for free atoms.

  Species: H

  List of occupied orbitals and eigenvalues:
    n    l              occ      energy [Ha]    energy [eV]
    1    0           1.0000        -0.241408        -6.5691


  Species: O

  List of occupied orbitals and eigenvalues:
    n    l              occ      energy [Ha]    energy [eV]
    1    0           2.0000       -18.944147      -515.4965
    2    0           2.0000        -0.883529       -24.0421
    2    1           4.0000        -0.330176        -8.9845

  Creating fixed part of basis set: Ionic, confined, hydrogenic.
 
  H                    hydrogenic:
 
  List of hydrogenic basis orbitals: 
    n    l      effective z      eigenvalue [eV]  inner max. [A]     outer max. [A]     outer radius [A]   
    2    0         2.100000       -14.9965           0.193241           1.317192           5.372934
    2    1         3.500000       -41.6672           0.602363           0.602363           4.056010
    1    0         0.850000        -9.8292           0.624864           0.624864           5.372934
    2    1         3.700000       -46.5653           0.573616           0.573616           3.909951
    2    0         1.200000        -4.5995           0.334977           2.228160           5.505921
    3    2         7.000000       -74.0753           0.680692           0.680692           3.769152
 
 
  O                    hydrogenic:
 
  List of hydrogenic basis orbitals: 
    n    l      effective z      eigenvalue [eV]  inner max. [A]     outer max. [A]     outer radius [A]   
    2    1         1.800000       -11.0118           1.178546           1.178546           5.432516
    3    2         7.600000       -87.3182           0.624117           0.624117           3.541422
    3    0         6.400000       -61.9209           0.061166           1.081887           4.306510
    4    3        11.600000      -114.4238           0.731621           0.731621           3.584982
    3    1         6.200000       -58.1113           0.255677           1.030255           4.306510
    3    2         5.600000       -47.4081           0.847222           0.847222           4.413102
    5    4        17.600000      -168.5799           0.749730           0.749730           3.372413
    1    0         0.750000        -7.6499           0.705275           0.705275           5.366508
 

  Adding cutoff potential to free-atom effective potential.
  Creating atomic-like basis functions for current effective potential.

  Species H                   :

  List of atomic basis orbitals and eigenvalues:
    n    l      energy [Ha]    energy [eV]    outer radius [A]
    1    0        -0.241374        -6.5681       5.372934


  Species O                   :

  List of atomic basis orbitals and eigenvalues:
    n    l      energy [Ha]    energy [eV]    outer radius [A]
    1    0       -18.944147      -515.4965       1.415745
    2    0        -0.883529       -24.0421       5.048305
    2    1        -0.330173        -8.9845       5.301302

  Assembling full basis from fixed parts.
  | Species H :   atomic orbital   1 s accepted.
  | Species H :    hydro orbital   2 s accepted.
  | Species H :    hydro orbital   1 s accepted.
  | Species H :    hydro orbital   2 s accepted.
  | Species H :    hydro orbital   2 p accepted.
  | Species H :    hydro orbital   2 p accepted.
  | Species H :    hydro orbital   3 d accepted.
  | Species O :   atomic orbital   1 s accepted.
  | Species O :    hydro orbital   3 s accepted.
  | Species O :   atomic orbital   2 s accepted.
  | Species O :    hydro orbital   1 s accepted.
  | Species O :    hydro orbital   3 p accepted.
  | Species O :   atomic orbital   2 p accepted.
  | Species O :    hydro orbital   2 p accepted.
  | Species O :    hydro orbital   3 d accepted.
  | Species O :    hydro orbital   3 d accepted.
  | Species O :    hydro orbital   4 f accepted.
  | Species O :    hydro orbital   5 g accepted.
 
  Basis size parameters after reduction:
  | Total number of radial functions:       18
  | Total number of basis functions :      483
 
  Testing on-site integration grid accuracy.
  |  Species  Function  <phi|h_atom|phi> (log., in eV)  <phi|h_atom|phi> (rad., in eV)
           1        1                 -6.5683835025                 -6.5684759159
           1        2                 13.3711789951                 13.3708738703
           1        3                 23.6590910787                 23.6532055418
           1        4                 16.2963827186                 16.1870710655 ***
           1        5                 28.7627214838                 28.7627215090
           1        6                 59.5965249172                 59.5965950857
           1        7                 60.2220506392                 60.2220503827
           2        8               -515.4964576505               -515.4964530710
           2        9                 15.3030791347                 15.3030722972
           2       10                -21.7296094581                -21.7296135470
           2       11                 14.2969371730                 14.2969701621
           2       12                 21.0679693190                 21.0679697493
           2       13                 -2.3833606469                 -2.3833613176
           2       14                 13.7067136422                 13.7066766629
           2       15                 45.8013116808                 45.8013116965
           2       16                 52.2309815402                 52.2309831494
           2       17                 85.4120732416                 85.4120732763
           2       18                142.1019167745                142.1019167817
 * Note: Onsite integrals marked "***" above are less accurate than
 * onsite_accuracy_threshold =    0.03000 eV. Usually, this is harmless.
 * When in doubt, tighten the "radial" and/or "radial_multiplier" flags to check.

  Preparing densities etc. for the partition functions (integrals / Hartree potential).

  Preparations completed.
  max(cpu_time)          :      0.170 s.
  Wall clock time (cpu1) :      0.576 s.
------------------------------------------------------------

------------------------------------------------------------
          Begin self-consistency loop: Initialization.

          Date     :  20150727, Time     :  113206.360
------------------------------------------------------------

  Initializing index lists of integration centers etc. from given atomic structure:
  | Number of centers in hartree potential         :        21
  | Number of centers in hartree multipole         :        21
  | Number of centers in electron density summation:        21
  | Number of centers in basis integrals           :        21
  | Number of centers in integrals                 :        21
  Partitioning the integration grid into batches with parallel hashing+maxmin method.
  | Number of batches:     2696
  | Maximal batch size:     200
  | Minimal batch size:      49
  | Average batch size:     102.149
  | Standard deviation of batch sizes:      29.112

  Integration load balanced across     8 MPI tasks.
  Work distribution over tasks is as follows:
  Task     0 has      34451 integration points.
  Task     1 has      34426 integration points.
  Task     2 has      34389 integration points.
  Task     3 has      34428 integration points.
  Task     4 has      34404 integration points.
  Task     5 has      34484 integration points.
  Task     6 has      34449 integration points.
  Task     7 has      34363 integration points.
  Initializing partition tables, free-atom densities, potentials, etc. across the integration grid (initialize_grid_storage).
  | Net number of integration points:   275394
  | of which are non-zero points    :   274818
  Obtaining max. number of non-zero basis functions in each batch (get_n_compute_maxes).
  | Maximal number of non-zero basis functions:      478 in task     0
  | Maximal number of non-zero basis functions:      478 in task     1
  | Maximal number of non-zero basis functions:      477 in task     2
  | Maximal number of non-zero basis functions:      478 in task     3
  | Maximal number of non-zero basis functions:      477 in task     4
  | Maximal number of non-zero basis functions:      477 in task     5
  | Maximal number of non-zero basis functions:      477 in task     6
  | Maximal number of non-zero basis functions:      478 in task     7
  Integrating Hamiltonian matrix: batch-based integration.
  Time summed over all CPUs for integration: real work       16.065 s, elapsed       16.346 s
  Integrating overlap matrix.
  Time summed over all CPUs for integration: real work        8.864 s, elapsed        8.983 s

  Updating Kohn-Sham eigenvalues, eigenvectors, occupation numbers, and Fermi level.
  Solving generalized eigenproblem
  Updating Kohn-Sham eigenvalues and eigenfunctions.
  Transforming overlap matrix and checking for singularities.
  Overlap matrix is nonsingular:
  | Lowest eigenvalue:  0.204635E-03
  Solving real generalised eigenvalue problem by standard LAPACK (fast)
  Determining occupation numbers for Kohn-Sham eigenstates.
  | Chemical potential (Fermi level) in eV                 : -.33468022E+01
  | Error in electron count due to remaining E_F inaccuracy: 0.00000000E+00
  | Maximum occupation number of highest empty state:  0.00E+00

  Writing Kohn-Sham eigenvalues.

  State    Occupation    Eigenvalue [Ha]    Eigenvalue [eV]
      1       2.00000         -19.064900         -518.78234
      2       2.00000         -19.059581         -518.63759
      3       2.00000         -19.052100         -518.43403
      4       2.00000         -19.042990         -518.18611
      5       2.00000         -19.042537         -518.17381
      6       2.00000         -19.035977         -517.99529
      7       2.00000         -19.019936         -517.55879
      8       2.00000          -1.122204          -30.53672
      9       2.00000          -1.113565          -30.30164
     10       2.00000          -1.100346          -29.94194
     11       2.00000          -1.087389          -29.58936
     12       2.00000          -1.085979          -29.55100
     13       2.00000          -1.068965          -29.08801
     14       2.00000          -1.042392          -28.36493
     15       2.00000          -0.656935          -17.87611
     16       2.00000          -0.653308          -17.77743
     17       2.00000          -0.648534          -17.64750
     18       2.00000          -0.611381          -16.63653
     19       2.00000          -0.609195          -16.57703
     20       2.00000          -0.604548          -16.45059
     21       2.00000          -0.597489          -16.25851
     22       2.00000          -0.551839          -15.01630
     23       2.00000          -0.522613          -14.22102
     24       2.00000          -0.509157          -13.85486
     25       2.00000          -0.508301          -13.83158
     26       2.00000          -0.501412          -13.64412
     27       2.00000          -0.491908          -13.38549
     28       2.00000          -0.475979          -12.95204
     29       2.00000          -0.448617          -12.20750
     30       2.00000          -0.441788          -12.02167
     31       2.00000          -0.440340          -11.98226
     32       2.00000          -0.433480          -11.79560
     33       2.00000          -0.431997          -11.75523
     34       2.00000          -0.430140          -11.70469
     35       2.00000          -0.402730          -10.95883
     36       0.00000          -0.100092           -2.72365
     37       0.00000          -0.072860           -1.98262
     38       0.00000          -0.062903           -1.71166
     39       0.00000          -0.053794           -1.46381
     40       0.00000          -0.038617           -1.05083
     41       0.00000          -0.031398           -0.85437
     42       0.00000          -0.015503           -0.42187
     43       0.00000           0.014910            0.40572
     44       0.00000           0.027122            0.73803
     45       0.00000           0.034589            0.94121
     46       0.00000           0.043508            1.18390
     47       0.00000           0.050704            1.37972
     48       0.00000           0.056709            1.54313
     49       0.00000           0.059995            1.63254
     50       0.00000           0.073073            1.98841
     51       0.00000           0.079472            2.16253
     52       0.00000           0.089356            2.43149
     53       0.00000           0.097821            2.66185
     54       0.00000           0.099325            2.70278
     55       0.00000           0.101833            2.77102
     56       0.00000           0.108856            2.96212
     57       0.00000           0.116847            3.17957
     58       0.00000           0.121545            3.30740
     59       0.00000           0.122293            3.32776
     60       0.00000           0.126529            3.44304
     61       0.00000           0.134638            3.66368
     62       0.00000           0.141858            3.86015
     63       0.00000           0.143766            3.91208
     64       0.00000           0.146635            3.99015
     65       0.00000           0.153467            4.17605
     66       0.00000           0.161430            4.39275
     67       0.00000           0.184982            5.03361
     68       0.00000           0.187690            5.10731
     69       0.00000           0.197063            5.36235
     70       0.00000           0.213890            5.82023
     71       0.00000           0.221349            6.02322
     72       0.00000           0.235902            6.41921
     73       0.00000           0.241403            6.56892
     74       0.00000           0.247167            6.72577
     75       0.00000           0.263849            7.17969
     76       0.00000           0.277638            7.55491
     77       0.00000           0.286236            7.78889
     78       0.00000           0.290116            7.89447
     79       0.00000           0.305160            8.30383
     80       0.00000           0.310486            8.44874
     81       0.00000           0.328697            8.94429
     82       0.00000           0.332112            9.03723
     83       0.00000           0.341670            9.29732
     84       0.00000           0.356115            9.69039
     85       0.00000           0.360062            9.79778
     86       0.00000           0.364159            9.90928
     87       0.00000           0.370650           10.08590
     88       0.00000           0.388629           10.57512
     89       0.00000           0.397685           10.82155
     90       0.00000           0.401013           10.91212
     91       0.00000           0.418161           11.37875
     92       0.00000           0.420634           11.44603
     93       0.00000           0.425109           11.56781
     94       0.00000           0.440287           11.98082
     95       0.00000           0.447756           12.18406
     96       0.00000           0.461086           12.54679
     97       0.00000           0.467267           12.71498
     98       0.00000           0.474217           12.90411
     99       0.00000           0.489000           13.30637
    100       0.00000           0.508506           13.83715
    101       0.00000           0.528582           14.38346
    102       0.00000           0.537548           14.62744
    103       0.00000           0.557937           15.18223
    104       0.00000           0.561117           15.26877
    105       0.00000           0.571726           15.55745
    106       0.00000           0.587021           15.97366
    107       0.00000           0.606529           16.50448
    108       0.00000           0.619664           16.86191
    109       0.00000           0.627729           17.08137
    110       0.00000           0.663321           18.04989
    111       0.00000           0.673800           18.33504
    112       0.00000           0.695004           18.91203
    113       0.00000           0.714766           19.44978
    114       0.00000           0.729875           19.86090
    115       0.00000           0.741811           20.18570
    116       0.00000           0.751386           20.44625
    117       0.00000           0.769333           20.93461
    118       0.00000           0.787003           21.41544
    119       0.00000           0.795283           21.64074

  Highest occupied state (VBM) at    -10.95883280 eV
  | Occupation number:      2.00000000

  Lowest unoccupied state (CBM) at    -2.72364531 eV
  | Occupation number:      0.00000000

  Overall HOMO-LUMO gap:      8.23518750 eV.
  Calculating total energy contributions from superposition of free atom densities.

  Total energy components:
  | Sum of eigenvalues            :        -303.82110418 Ha       -8267.39288493 eV
  | XC energy correction          :         -63.85423583 Ha       -1737.56216301 eV
  | XC potential correction       :          81.60802443 Ha        2220.66733100 eV
  | Free-atom electrostatic energy:        -250.24644796 Ha       -6809.55231527 eV
  | Hartree energy correction     :           0.00000000 Ha           0.00000000 eV
  | van der Waals energy corr.    :           0.00000000 Ha           0.00000000 eV
  | Entropy correction            :           0.00000000 Ha           0.00000000 eV
  | ---------------------------
  | Total energy                  :        -536.31376354 Ha      -14593.84003220 eV
  | Total energy, T -> 0          :        -536.31376354 Ha      -14593.84003220 eV  <-- do not rely on this value for anything but (periodic) metals
  | Electronic free energy        :        -536.31376354 Ha      -14593.84003220 eV

  Derived energy quantities:
  | Kinetic energy                :         530.93650238 Ha       14447.51731124 eV
  | Electrostatic energy          :       -1003.39603009 Ha      -27303.79518044 eV
  | Energy correction for multipole
  | error in Hartree potential    :           0.00000000 Ha           0.00000000 eV
  | Sum of eigenvalues per atom                           :        -393.68537547 eV
  | Total energy (T->0) per atom                          :        -694.94476344 eV  <-- do not rely on this value for anything but (periodic) metals
  | Electronic free energy per atom                       :        -694.94476344 eV
  Initialize hartree_potential_storage
  Max. number of atoms included in rho_multipole:           21

  End scf initialization - timings             :  max(cpu_time)    wall_clock(cpu1)
  | Time for scf. initialization               :        4.241 s           4.241 s
  | Boundary condition initialization          :        0.000 s           0.000 s
  | Integration                                :        3.174 s           3.173 s
  | Solution of K.-S. eqns.                    :        0.459 s           0.459 s
  | Grid partitioning                          :        0.217 s           0.217 s
  | Preloading free-atom quantities on grid    :        0.014 s           0.013 s
  | Free-atom superposition energy             :        0.116 s           0.116 s
  | Total energy evaluation                    :        0.000 s           0.000 s
------------------------------------------------------------

------------------------------------------------------------
          Begin self-consistency iteration #    1

  Date     :  20150727, Time     :  113210.601
------------------------------------------------------------
  Evaluating new KS density.
  Integration grid: deviation in total charge (<rho> - N_e) =   0.000000E+00
  Pulay mixing of updated and previous charge densities.

  Evaluating partitioned Hartree potential by multipole expansion.
  | Analytical far-field extrapolation by fixed multipoles:
  | Hartree multipole sum: apparent total charge =  -0.305545E-05
  Summing up the Hartree potential.
  Time summed over all CPUs for potential: real work        4.984 s, elapsed        5.010 s
  | RMS charge density error from multipole expansion :   0.195419E-02

  Integrating Hamiltonian matrix: batch-based integration.
  Time summed over all CPUs for integration: real work       16.038 s, elapsed       16.311 s

  Updating Kohn-Sham eigenvalues, eigenvectors, occupation numbers, and Fermi level.
  Solving generalized eigenproblem
  Updating Kohn-Sham eigenvalues and eigenfunctions.
  Solving real generalised eigenvalue problem by standard LAPACK (fast)
  Determining occupation numbers for Kohn-Sham eigenstates.
  | Chemical potential (Fermi level) in eV                 : -.29126423E+01
  | Error in electron count due to remaining E_F inaccuracy: 0.00000000E+00
  | Maximum occupation number of highest empty state:  0.00E+00

  Writing Kohn-Sham eigenvalues.

  State    Occupation    Eigenvalue [Ha]    Eigenvalue [eV]
      1       2.00000         -18.988731         -516.70967
      2       2.00000         -18.988494         -516.70322
      3       2.00000         -18.977275         -516.39794
      4       2.00000         -18.972107         -516.25730
      5       2.00000         -18.969313         -516.18128
      6       2.00000         -18.958087         -515.87580
      7       2.00000         -18.915013         -514.70370
      8       2.00000          -1.082951          -29.46860
      9       2.00000          -1.079981          -29.38777
     10       2.00000          -1.052609          -28.64296
     11       2.00000          -1.051574          -28.61477
     12       2.00000          -1.047553          -28.50537
     13       2.00000          -1.039017          -28.27309
     14       2.00000          -0.981407          -26.70544
     15       2.00000          -0.628231          -17.09504
     16       2.00000          -0.618518          -16.83072
     17       2.00000          -0.604197          -16.44104
     18       2.00000          -0.580558          -15.79779
     19       2.00000          -0.576631          -15.69093
     20       2.00000          -0.575027          -15.64729
     21       2.00000          -0.560235          -15.24476
     22       2.00000          -0.510201          -13.88328
     23       2.00000          -0.489320          -13.31507
     24       2.00000          -0.476582          -12.96845
     25       2.00000          -0.468281          -12.74256
     26       2.00000          -0.457688          -12.45432
     27       2.00000          -0.448174          -12.19543
     28       2.00000          -0.429827          -11.69619
     29       2.00000          -0.413126          -11.24172
     30       2.00000          -0.402356          -10.94866
     31       2.00000          -0.397095          -10.80550
     32       2.00000          -0.393312          -10.70257
     33       2.00000          -0.386454          -10.51595
     34       2.00000          -0.380340          -10.34957
     35       2.00000          -0.339921           -9.24973
     36       0.00000          -0.092264           -2.51062
     37       0.00000          -0.065251           -1.77558
     38       0.00000          -0.053948           -1.46800
     39       0.00000          -0.043375           -1.18029
     40       0.00000          -0.028049           -0.76324
     41       0.00000          -0.024444           -0.66517
     42       0.00000          -0.010958           -0.29818
     43       0.00000           0.029970            0.81552
     44       0.00000           0.039722            1.08089
     45       0.00000           0.044786            1.21870
     46       0.00000           0.053810            1.46425
     47       0.00000           0.059740            1.62562
     48       0.00000           0.065226            1.77488
     49       0.00000           0.070124            1.90817
     50       0.00000           0.083405            2.26956
     51       0.00000           0.091617            2.49302
     52       0.00000           0.097888            2.66367
     53       0.00000           0.107788            2.93307
     54       0.00000           0.112364            3.05757
     55       0.00000           0.113035            3.07584
     56       0.00000           0.125801            3.42321
     57       0.00000           0.128530            3.49748
     58       0.00000           0.133168            3.62370
     59       0.00000           0.134826            3.66879
     60       0.00000           0.142348            3.87350
     61       0.00000           0.148125            4.03069
     62       0.00000           0.154572            4.20611
     63       0.00000           0.156775            4.26607
     64       0.00000           0.160517            4.36790
     65       0.00000           0.169448            4.61092
     66       0.00000           0.188459            5.12822
     67       0.00000           0.197060            5.36227
     68       0.00000           0.199845            5.43805
     69       0.00000           0.209942            5.71282
     70       0.00000           0.226162            6.15417
     71       0.00000           0.235855            6.41794
     72       0.00000           0.248280            6.75604
     73       0.00000           0.253809            6.90649
     74       0.00000           0.256695            6.98503
     75       0.00000           0.276610            7.52693
     76       0.00000           0.289993            7.89111
     77       0.00000           0.295879            8.05129
     78       0.00000           0.300224            8.16952
     79       0.00000           0.314861            8.56780
     80       0.00000           0.323062            8.79097
     81       0.00000           0.338873            9.22121
     82       0.00000           0.343585            9.34941
     83       0.00000           0.352513            9.59237
     84       0.00000           0.368327           10.02269
     85       0.00000           0.370531           10.08266
     86       0.00000           0.376616           10.24825
     87       0.00000           0.382653           10.41251
     88       0.00000           0.399616           10.87410
     89       0.00000           0.410986           11.18350
     90       0.00000           0.412564           11.22645
     91       0.00000           0.429558           11.68888
     92       0.00000           0.431172           11.73279
     93       0.00000           0.436925           11.88935
     94       0.00000           0.452750           12.31996
     95       0.00000           0.457421           12.44707
     96       0.00000           0.472868           12.86738
     97       0.00000           0.478748           13.02739
     98       0.00000           0.486721           13.24434
     99       0.00000           0.499578           13.59421
    100       0.00000           0.521232           14.18345
    101       0.00000           0.544852           14.82619
    102       0.00000           0.552712           15.04007
    103       0.00000           0.572664           15.58298
    104       0.00000           0.575431           15.65828
    105       0.00000           0.587043           15.97424
    106       0.00000           0.600795           16.34846
    107       0.00000           0.620971           16.89748
    108       0.00000           0.631886           17.19448
    109       0.00000           0.642010           17.46997
    110       0.00000           0.680061           18.50540
    111       0.00000           0.689449           18.76087
    112       0.00000           0.711849           19.37041
    113       0.00000           0.732439           19.93067
    114       0.00000           0.746596           20.31592
    115       0.00000           0.757274           20.60647
    116       0.00000           0.767190           20.87631
    117       0.00000           0.781465           21.26474
    118       0.00000           0.799769           21.76282
    119       0.00000           0.809791           22.03553

  Highest occupied state (VBM) at     -9.24973405 eV
  | Occupation number:      2.00000000

  Lowest unoccupied state (CBM) at    -2.51062044 eV
  | Occupation number:      0.00000000

  Overall HOMO-LUMO gap:      6.73911361 eV.

  Total energy components:
  | Sum of eigenvalues            :        -300.48037216 Ha       -8176.48694154 eV
  | XC energy correction          :         -64.18677777 Ha       -1746.61108960 eV
  | XC potential correction       :          82.04225120 Ha        2232.48324277 eV
  | Free-atom electrostatic energy:        -250.24644796 Ha       -6809.55231527 eV
  | Hartree energy correction     :          -3.23903512 Ha         -88.13863010 eV
  | van der Waals energy corr.    :           0.00000000 Ha           0.00000000 eV
  | Entropy correction            :           0.00000000 Ha           0.00000000 eV
  | ---------------------------
  | Total energy                  :        -536.11038181 Ha      -14588.30573374 eV
  | Total energy, T -> 0          :        -536.11038181 Ha      -14588.30573374 eV  <-- do not rely on this value for anything but (periodic) metals
  | Electronic free energy        :        -536.11038181 Ha      -14588.30573374 eV

  Derived energy quantities:
  | Kinetic energy                :         532.92624923 Ha       14501.66107784 eV
  | Electrostatic energy          :       -1004.84985327 Ha      -27343.35572199 eV
  | Energy correction for multipole
  | error in Hartree potential    :           0.00017141 Ha           0.00466421 eV
  | Sum of eigenvalues per atom                           :        -389.35652103 eV
  | Total energy (T->0) per atom                          :        -694.68122542 eV  <-- do not rely on this value for anything but (periodic) metals
  | Electronic free energy per atom                       :        -694.68122542 eV

  Self-consistency convergence accuracy:
  | Change of charge density      : 0.7782E+00
  | Change of sum of eigenvalues  : 0.9091E+02 eV
  | Change of total energy        : 0.5534E+01 eV

  End self-consistency iteration #     1       :  max(cpu_time)    wall_clock(cpu1)
  | Time for this iteration                    :        4.176 s           4.176 s
  | Charge density update                      :        1.371 s           1.370 s
  | Density mixing                             :        0.004 s           0.005 s
  | Hartree multipole update                   :        0.007 s           0.007 s
  | Hartree multipole summation                :        0.628 s           0.627 s
  | Integration                                :        2.042 s           2.043 s
  | Solution of K.-S. eqns.                    :        0.124 s           0.123 s
  | Total energy evaluation                    :        0.000 s           0.000 s
------------------------------------------------------------

------------------------------------------------------------
          Begin self-consistency iteration #    2

  Date     :  20150727, Time     :  113214.778
------------------------------------------------------------
  Evaluating new KS density.
  Integration grid: deviation in total charge (<rho> - N_e) =   2.842171E-14
  Pulay mixing of updated and previous charge densities.

  Evaluating partitioned Hartree potential by multipole expansion.
  | Analytical far-field extrapolation by fixed multipoles:
  | Hartree multipole sum: apparent total charge =  -0.935621E-05
  Summing up the Hartree potential.
  Time summed over all CPUs for potential: real work        4.984 s, elapsed        5.012 s
  | RMS charge density error from multipole expansion :   0.791683E-02

  Integrating Hamiltonian matrix: batch-based integration.
  Time summed over all CPUs for integration: real work       16.037 s, elapsed       16.309 s

  Updating Kohn-Sham eigenvalues, eigenvectors, occupation numbers, and Fermi level.
  Solving generalized eigenproblem
  Updating Kohn-Sham eigenvalues and eigenfunctions.
  Solving real generalised eigenvalue problem by standard LAPACK (fast)
  Determining occupation numbers for Kohn-Sham eigenstates.
  | Chemical potential (Fermi level) in eV                 : -.34541059E+01
  | Error in electron count due to remaining E_F inaccuracy: 0.00000000E+00
  | Maximum occupation number of highest empty state:  0.00E+00

  Highest occupied state (VBM) at     -5.00291468 eV
  | Occupation number:      2.00000000

  Lowest unoccupied state (CBM) at    -2.11456322 eV
  | Occupation number:      0.00000000

  Overall HOMO-LUMO gap:      2.88835146 eV.

  Total energy components:
  | Sum of eigenvalues            :        -292.34943341 Ha       -7955.23284088 eV
  | XC energy correction          :         -65.02776256 Ha       -1769.49545015 eV
  | XC potential correction       :          83.13912671 Ha        2262.33074392 eV
  | Free-atom electrostatic energy:        -250.24644796 Ha       -6809.55231527 eV
  | Hartree energy correction     :         -11.38134774 Ha        -309.70222956 eV
  | van der Waals energy corr.    :           0.00000000 Ha           0.00000000 eV
  | Entropy correction            :           0.00000000 Ha           0.00000000 eV
  | ---------------------------
  | Total energy                  :        -535.86586496 Ha      -14581.65209194 eV
  | Total energy, T -> 0          :        -535.86586496 Ha      -14581.65209194 eV  <-- do not rely on this value for anything but (periodic) metals
  | Electronic free energy        :        -535.86586496 Ha      -14581.65209194 eV

  Derived energy quantities:
  | Kinetic energy                :         537.02774784 Ha       14613.26853357 eV
  | Electrostatic energy          :       -1007.86585024 Ha      -27425.42517535 eV
  | Energy correction for multipole
  | error in Hartree potential    :          -0.00054974 Ha          -0.01495920 eV
  | Sum of eigenvalues per atom                           :        -378.82061147 eV
  | Total energy (T->0) per atom                          :        -694.36438533 eV  <-- do not rely on this value for anything but (periodic) metals
  | Electronic free energy per atom                       :        -694.36438533 eV

  Self-consistency convergence accuracy:
  | Change of charge density      : 0.5903E+00
  | Change of sum of eigenvalues  : 0.2213E+03 eV
  | Change of total energy        : 0.6654E+01 eV

  End self-consistency iteration #     2       :  max(cpu_time)    wall_clock(cpu1)
  | Time for this iteration                    :        4.171 s           4.171 s
  | Charge density update                      :        1.366 s           1.365 s
  | Density mixing                             :        0.008 s           0.008 s
  | Hartree multipole update                   :        0.006 s           0.006 s
  | Hartree multipole summation                :        0.628 s           0.628 s
  | Integration                                :        2.042 s           2.042 s
  | Solution of K.-S. eqns.                    :        0.122 s           0.121 s
  | Total energy evaluation                    :        0.000 s           0.001 s
------------------------------------------------------------

------------------------------------------------------------
          Begin self-consistency iteration #    3

  Date     :  20150727, Time     :  113218.949
------------------------------------------------------------
  Evaluating new KS density.
  Integration grid: deviation in total charge (<rho> - N_e) =   2.842171E-14
  Pulay mixing of updated and previous charge densities.

  Evaluating partitioned Hartree potential by multipole expansion.
  | Analytical far-field extrapolation by fixed multipoles:
  | Hartree multipole sum: apparent total charge =  -0.103101E-04
  Summing up the Hartree potential.
  Time summed over all CPUs for potential: real work        4.984 s, elapsed        5.013 s
  | RMS charge density error from multipole expansion :   0.154857E-01

  Integrating Hamiltonian matrix: batch-based integration.
  Time summed over all CPUs for integration: real work       16.037 s, elapsed       16.298 s

  Updating Kohn-Sham eigenvalues, eigenvectors, occupation numbers, and Fermi level.
  Solving generalized eigenproblem
  Updating Kohn-Sham eigenvalues and eigenfunctions.
  Solving real generalised eigenvalue problem by standard LAPACK (fast)
  Determining occupation numbers for Kohn-Sham eigenstates.
  | Chemical potential (Fermi level) in eV                 : -.32700885E+01
  | Error in electron count due to remaining E_F inaccuracy: 0.00000000E+00
  | Maximum occupation number of highest empty state:  0.00E+00

  Highest occupied state (VBM) at     -4.58445415 eV
  | Occupation number:      2.00000000

  Lowest unoccupied state (CBM) at    -2.18816528 eV
  | Occupation number:      0.00000000

  Overall HOMO-LUMO gap:      2.39628887 eV.

  Total energy components:
  | Sum of eigenvalues            :        -292.50690667 Ha       -7959.51790629 eV
  | XC energy correction          :         -64.99420915 Ha       -1768.58241542 eV
  | XC potential correction       :          83.08722378 Ha        2260.91839325 eV
  | Free-atom electrostatic energy:        -250.24644796 Ha       -6809.55231527 eV
  | Hartree energy correction     :         -11.19644955 Ha        -304.67089362 eV
  | van der Waals energy corr.    :           0.00000000 Ha           0.00000000 eV
  | Entropy correction            :           0.00000000 Ha           0.00000000 eV
  | ---------------------------
  | Total energy                  :        -535.85678955 Ha      -14581.40513735 eV
  | Total energy, T -> 0          :        -535.85678955 Ha      -14581.40513735 eV  <-- do not rely on this value for anything but (periodic) metals
  | Electronic free energy        :        -535.85678955 Ha      -14581.40513735 eV

  Derived energy quantities:
  | Kinetic energy                :         534.29475675 Ha       14538.90006220 eV
  | Electrostatic energy          :       -1005.15733715 Ha      -27351.72278413 eV
  | Energy correction for multipole
  | error in Hartree potential    :          -0.00637751 Ha          -0.17354096 eV
  | Sum of eigenvalues per atom                           :        -379.02466220 eV
  | Total energy (T->0) per atom                          :        -694.35262559 eV  <-- do not rely on this value for anything but (periodic) metals
  | Electronic free energy per atom                       :        -694.35262559 eV

  Self-consistency convergence accuracy:
  | Change of charge density      : 0.2900E+00
  | Change of sum of eigenvalues  : -.4285E+01 eV
  | Change of total energy        : 0.2470E+00 eV

  End self-consistency iteration #     3       :  max(cpu_time)    wall_clock(cpu1)
  | Time for this iteration                    :        4.165 s           4.165 s
  | Charge density update                      :        1.360 s           1.359 s
  | Density mixing                             :        0.010 s           0.010 s
  | Hartree multipole update                   :        0.007 s           0.007 s
  | Hartree multipole summation                :        0.627 s           0.628 s
  | Integration                                :        2.041 s           2.040 s
  | Solution of K.-S. eqns.                    :        0.121 s           0.121 s
  | Total energy evaluation                    :        0.000 s           0.000 s
------------------------------------------------------------

------------------------------------------------------------
          Begin self-consistency iteration #    4

  Date     :  20150727, Time     :  113223.114
------------------------------------------------------------
  Evaluating new KS density.
  Integration grid: deviation in total charge (<rho> - N_e) =   4.263256E-14
  Pulay mixing of updated and previous charge densities.

  Evaluating partitioned Hartree potential by multipole expansion.
  | Analytical far-field extrapolation by fixed multipoles:
  | Hartree multipole sum: apparent total charge =  -0.126864E-04
  Summing up the Hartree potential.
  Time summed over all CPUs for potential: real work        4.983 s, elapsed        5.011 s
  | RMS charge density error from multipole expansion :   0.205877E-01

  Integrating Hamiltonian matrix: batch-based integration.
  Time summed over all CPUs for integration: real work       16.034 s, elapsed       16.305 s

  Updating Kohn-Sham eigenvalues, eigenvectors, occupation numbers, and Fermi level.
  Solving generalized eigenproblem
  Updating Kohn-Sham eigenvalues and eigenfunctions.
  Solving real generalised eigenvalue problem by standard LAPACK (fast)
  Determining occupation numbers for Kohn-Sham eigenstates.
  | Chemical potential (Fermi level) in eV                 : -.26026211E+01
  | Error in electron count due to remaining E_F inaccuracy: 0.00000000E+00
  | Maximum occupation number of highest empty state:  0.00E+00

  Highest occupied state (VBM) at     -3.04001444 eV
  | Occupation number:      2.00000000

  Lowest unoccupied state (CBM) at    -2.10273658 eV
  | Occupation number:      0.00000000

  Overall HOMO-LUMO gap:      0.93727786 eV.

  Total energy components:
  | Sum of eigenvalues            :        -289.95208347 Ha       -7889.99762980 eV
  | XC energy correction          :         -65.28166610 Ha       -1776.40451710 eV
  | XC potential correction       :          83.45984895 Ha        2271.05803997 eV
  | Free-atom electrostatic energy:        -250.24644796 Ha       -6809.55231527 eV
  | Hartree energy correction     :         -13.82143724 Ha        -376.10044295 eV
  | van der Waals energy corr.    :           0.00000000 Ha           0.00000000 eV
  | Entropy correction            :           0.00000000 Ha           0.00000000 eV
  | ---------------------------
  | Total energy                  :        -535.84178582 Ha      -14580.99686515 eV
  | Total energy, T -> 0          :        -535.84178582 Ha      -14580.99686515 eV  <-- do not rely on this value for anything but (periodic) metals
  | Electronic free energy        :        -535.84178582 Ha      -14580.99686515 eV

  Derived energy quantities:
  | Kinetic energy                :         534.44318860 Ha       14542.93909852 eV
  | Electrostatic energy          :       -1005.00330832 Ha      -27347.53144657 eV
  | Energy correction for multipole
  | error in Hartree potential    :          -0.00918169 Ha          -0.24984646 eV
  | Sum of eigenvalues per atom                           :        -375.71417285 eV
  | Total energy (T->0) per atom                          :        -694.33318405 eV  <-- do not rely on this value for anything but (periodic) metals
  | Electronic free energy per atom                       :        -694.33318405 eV

  Self-consistency convergence accuracy:
  | Change of charge density      : 0.1581E+00
  | Change of sum of eigenvalues  : 0.6952E+02 eV
  | Change of total energy        : 0.4083E+00 eV

  End self-consistency iteration #     4       :  max(cpu_time)    wall_clock(cpu1)
  | Time for this iteration                    :        4.171 s           4.172 s
  | Charge density update                      :        1.361 s           1.360 s
  | Density mixing                             :        0.011 s           0.012 s
  | Hartree multipole update                   :        0.007 s           0.007 s
  | Hartree multipole summation                :        0.628 s           0.627 s
  | Integration                                :        2.041 s           2.042 s
  | Solution of K.-S. eqns.                    :        0.124 s           0.123 s
  | Total energy evaluation                    :        0.000 s           0.001 s
------------------------------------------------------------

------------------------------------------------------------
          Begin self-consistency iteration #    5

  Date     :  20150727, Time     :  113227.286
------------------------------------------------------------
  Evaluating new KS density.
  Integration grid: deviation in total charge (<rho> - N_e) =   1.421085E-14
  Pulay mixing of updated and previous charge densities.

  Evaluating partitioned Hartree potential by multipole expansion.
  | Analytical far-field extrapolation by fixed multipoles:
  | Hartree multipole sum: apparent total charge =  -0.126961E-04
  Summing up the Hartree potential.
  Time summed over all CPUs for potential: real work        4.983 s, elapsed        5.011 s
  | RMS charge density error from multipole expansion :   0.211347E-01

  Integrating Hamiltonian matrix: batch-based integration.
  Time summed over all CPUs for integration: real work       16.022 s, elapsed       16.301 s

  Updating Kohn-Sham eigenvalues, eigenvectors, occupation numbers, and Fermi level.
  Solving generalized eigenproblem
  Updating Kohn-Sham eigenvalues and eigenfunctions.
  Solving real generalised eigenvalue problem by standard LAPACK (fast)
  Determining occupation numbers for Kohn-Sham eigenstates.
  | Chemical potential (Fermi level) in eV                 : -.25796089E+01
  | Error in electron count due to remaining E_F inaccuracy: 0.00000000E+00
  | Maximum occupation number of highest empty state:  0.00E+00

  Highest occupied state (VBM) at     -3.02206148 eV
  | Occupation number:      2.00000000

  Lowest unoccupied state (CBM) at    -2.07235843 eV
  | Occupation number:      0.00000000

  Overall HOMO-LUMO gap:      0.94970305 eV.

  Total energy components:
  | Sum of eigenvalues            :        -289.87429533 Ha       -7887.88090700 eV
  | XC energy correction          :         -65.29853751 Ha       -1776.86361138 eV
  | XC potential correction       :          83.48106670 Ha        2271.63540452 eV
  | Free-atom electrostatic energy:        -250.24644796 Ha       -6809.55231527 eV
  | Hartree energy correction     :         -13.90329341 Ha        -378.32786267 eV
  | van der Waals energy corr.    :           0.00000000 Ha           0.00000000 eV
  | Entropy correction            :           0.00000000 Ha           0.00000000 eV
  | ---------------------------
  | Total energy                  :        -535.84150751 Ha      -14580.98929181 eV
  | Total energy, T -> 0          :        -535.84150751 Ha      -14580.98929181 eV  <-- do not rely on this value for anything but (periodic) metals
  | Electronic free energy        :        -535.84150751 Ha      -14580.98929181 eV

  Derived energy quantities:
  | Kinetic energy                :         534.49794885 Ha       14544.42920052 eV
  | Electrostatic energy          :       -1005.04091885 Ha      -27348.55488094 eV
  | Energy correction for multipole
  | error in Hartree potential    :          -0.00935382 Ha          -0.25453043 eV
  | Sum of eigenvalues per atom                           :        -375.61337652 eV
  | Total energy (T->0) per atom                          :        -694.33282342 eV  <-- do not rely on this value for anything but (periodic) metals
  | Electronic free energy per atom                       :        -694.33282342 eV

  Self-consistency convergence accuracy:
  | Change of charge density      : 0.3364E-01
  | Change of sum of eigenvalues  : 0.2117E+01 eV
  | Change of total energy        : 0.7573E-02 eV

  End self-consistency iteration #     5       :  max(cpu_time)    wall_clock(cpu1)
  | Time for this iteration                    :        4.173 s           4.173 s
  | Charge density update                      :        1.360 s           1.359 s
  | Density mixing                             :        0.014 s           0.014 s
  | Hartree multipole update                   :        0.007 s           0.007 s
  | Hartree multipole summation                :        0.627 s           0.627 s
  | Integration                                :        2.041 s           2.041 s
  | Solution of K.-S. eqns.                    :        0.124 s           0.124 s
  | Total energy evaluation                    :        0.000 s           0.001 s
------------------------------------------------------------

------------------------------------------------------------
          Begin self-consistency iteration #    6

  Date     :  20150727, Time     :  113231.459
------------------------------------------------------------
  Evaluating new KS density.
  Integration grid: deviation in total charge (<rho> - N_e) =   1.421085E-14
  Pulay mixing of updated and previous charge densities.

  Evaluating partitioned Hartree potential by multipole expansion.
  | Analytical far-field extrapolation by fixed multipoles:
  | Hartree multipole sum: apparent total charge =  -0.125989E-04
  Summing up the Hartree potential.
  Time summed over all CPUs for potential: real work        4.984 s, elapsed        5.013 s
  | RMS charge density error from multipole expansion :   0.212014E-01

  Integrating Hamiltonian matrix: batch-based integration.
  Time summed over all CPUs for integration: real work       16.029 s, elapsed       16.300 s

  Updating Kohn-Sham eigenvalues, eigenvectors, occupation numbers, and Fermi level.
  Solving generalized eigenproblem
  Updating Kohn-Sham eigenvalues and eigenfunctions.
  Solving real generalised eigenvalue problem by standard LAPACK (fast)
  Determining occupation numbers for Kohn-Sham eigenstates.
  | Chemical potential (Fermi level) in eV                 : -.25932571E+01
  | Error in electron count due to remaining E_F inaccuracy: 0.00000000E+00
  | Maximum occupation number of highest empty state:  0.00E+00

  Highest occupied state (VBM) at     -3.08933261 eV
  | Occupation number:      2.00000000

  Lowest unoccupied state (CBM) at    -2.06867757 eV
  | Occupation number:      0.00000000

  Overall HOMO-LUMO gap:      1.02065504 eV.

  Total energy components:
  | Sum of eigenvalues            :        -289.96370027 Ha       -7890.31373908 eV
  | XC energy correction          :         -65.29187060 Ha       -1776.68219549 eV
  | XC potential correction       :          83.47202355 Ha        2271.38932784 eV
  | Free-atom electrostatic energy:        -250.24644796 Ha       -6809.55231527 eV
  | Hartree energy correction     :         -13.81138684 Ha        -375.82695770 eV
  | van der Waals energy corr.    :           0.00000000 Ha           0.00000000 eV
  | Entropy correction            :           0.00000000 Ha           0.00000000 eV
  | ---------------------------
  | Total energy                  :        -535.84138211 Ha      -14580.98587970 eV
  | Total energy, T -> 0          :        -535.84138211 Ha      -14580.98587970 eV  <-- do not rely on this value for anything but (periodic) metals
  | Electronic free energy        :        -535.84138211 Ha      -14580.98587970 eV

  Derived energy quantities:
  | Kinetic energy                :         534.49762620 Ha       14544.42042091 eV
  | Electrostatic energy          :       -1005.04713772 Ha      -27348.72410512 eV
  | Energy correction for multipole
  | error in Hartree potential    :          -0.00935088 Ha          -0.25445035 eV
  | Sum of eigenvalues per atom                           :        -375.72922567 eV
  | Total energy (T->0) per atom                          :        -694.33266094 eV  <-- do not rely on this value for anything but (periodic) metals
  | Electronic free energy per atom                       :        -694.33266094 eV

  Self-consistency convergence accuracy:
  | Change of charge density      : 0.1674E-01
  | Change of sum of eigenvalues  : -.2433E+01 eV
  | Change of total energy        : 0.3412E-02 eV

  End self-consistency iteration #     6       :  max(cpu_time)    wall_clock(cpu1)
  | Time for this iteration                    :        4.171 s           4.171 s
  | Charge density update                      :        1.358 s           1.358 s
  | Density mixing                             :        0.016 s           0.015 s
  | Hartree multipole update                   :        0.007 s           0.007 s
  | Hartree multipole summation                :        0.627 s           0.628 s
  | Integration                                :        2.041 s           2.040 s
  | Solution of K.-S. eqns.                    :        0.122 s           0.122 s
  | Total energy evaluation                    :        0.000 s           0.000 s
------------------------------------------------------------

------------------------------------------------------------
          Begin self-consistency iteration #    7

  Date     :  20150727, Time     :  113235.630
------------------------------------------------------------
  Evaluating new KS density.
  Integration grid: deviation in total charge (<rho> - N_e) =  -1.421085E-14
  Pulay mixing of updated and previous charge densities.

  Evaluating partitioned Hartree potential by multipole expansion.
  | Analytical far-field extrapolation by fixed multipoles:
  | Hartree multipole sum: apparent total charge =  -0.123754E-04
  Summing up the Hartree potential.
  Time summed over all CPUs for potential: real work        4.984 s, elapsed        5.012 s
  | RMS charge density error from multipole expansion :   0.212981E-01

  Integrating Hamiltonian matrix: batch-based integration.
  Time summed over all CPUs for integration: real work       16.027 s, elapsed       16.279 s

  Updating Kohn-Sham eigenvalues, eigenvectors, occupation numbers, and Fermi level.
  Solving generalized eigenproblem
  Updating Kohn-Sham eigenvalues and eigenfunctions.
  Solving real generalised eigenvalue problem by standard LAPACK (fast)
  Determining occupation numbers for Kohn-Sham eigenstates.
  | Chemical potential (Fermi level) in eV                 : -.26314188E+01
  | Error in electron count due to remaining E_F inaccuracy: 0.00000000E+00
  | Maximum occupation number of highest empty state:  0.00E+00

  Highest occupied state (VBM) at     -3.23534621 eV
  | Occupation number:      2.00000000

  Lowest unoccupied state (CBM) at    -2.06917675 eV
  | Occupation number:      0.00000000

  Overall HOMO-LUMO gap:      1.16616946 eV.

  Total energy components:
  | Sum of eigenvalues            :        -290.12843504 Ha       -7894.79640022 eV
  | XC energy correction          :         -65.28125413 Ha       -1776.39330674 eV
  | XC potential correction       :          83.45739908 Ha        2270.99137568 eV
  | Free-atom electrostatic energy:        -250.24644796 Ha       -6809.55231527 eV
  | Hartree energy correction     :         -13.64253861 Ha        -371.23236375 eV
  | van der Waals energy corr.    :           0.00000000 Ha           0.00000000 eV
  | Entropy correction            :           0.00000000 Ha           0.00000000 eV
  | ---------------------------
  | Total energy                  :        -535.84127666 Ha      -14580.98301030 eV
  | Total energy, T -> 0          :        -535.84127666 Ha      -14580.98301030 eV  <-- do not rely on this value for anything but (periodic) metals
  | Electronic free energy        :        -535.84127666 Ha      -14580.98301030 eV

  Derived energy quantities:
  | Kinetic energy                :         534.58142651 Ha       14546.70074334 eV
  | Electrostatic energy          :       -1005.14144905 Ha      -27351.29044690 eV
  | Energy correction for multipole
  | error in Hartree potential    :          -0.00929182 Ha          -0.25284321 eV
  | Sum of eigenvalues per atom                           :        -375.94268572 eV
  | Total energy (T->0) per atom                          :        -694.33252430 eV  <-- do not rely on this value for anything but (periodic) metals
  | Electronic free energy per atom                       :        -694.33252430 eV

  Self-consistency convergence accuracy:
  | Change of charge density      : 0.1214E-01
  | Change of sum of eigenvalues  : -.4483E+01 eV
  | Change of total energy        : 0.2869E-02 eV

  End self-consistency iteration #     7       :  max(cpu_time)    wall_clock(cpu1)
  | Time for this iteration                    :        4.170 s           4.171 s
  | Charge density update                      :        1.359 s           1.359 s
  | Density mixing                             :        0.018 s           0.018 s
  | Hartree multipole update                   :        0.007 s           0.007 s
  | Hartree multipole summation                :        0.627 s           0.627 s
  | Integration                                :        2.039 s           2.038 s
  | Solution of K.-S. eqns.                    :        0.121 s           0.121 s
  | Total energy evaluation                    :        0.000 s           0.001 s
------------------------------------------------------------

------------------------------------------------------------
          Begin self-consistency iteration #    8

  Date     :  20150727, Time     :  113239.801
------------------------------------------------------------
  Evaluating new KS density.
  Integration grid: deviation in total charge (<rho> - N_e) =   2.842171E-14
  Pulay mixing of updated and previous charge densities.

  Evaluating partitioned Hartree potential by multipole expansion.
  | Analytical far-field extrapolation by fixed multipoles:
  | Hartree multipole sum: apparent total charge =  -0.123974E-04
  Summing up the Hartree potential.
  Time summed over all CPUs for potential: real work        4.984 s, elapsed        5.011 s
  | RMS charge density error from multipole expansion :   0.213710E-01

  Integrating Hamiltonian matrix: batch-based integration.
  Time summed over all CPUs for integration: real work       16.028 s, elapsed       16.290 s

  Updating Kohn-Sham eigenvalues, eigenvectors, occupation numbers, and Fermi level.
  Solving generalized eigenproblem
  Updating Kohn-Sham eigenvalues and eigenfunctions.
  Solving real generalised eigenvalue problem by standard LAPACK (fast)
  Determining occupation numbers for Kohn-Sham eigenstates.
  | Chemical potential (Fermi level) in eV                 : -.26276057E+01
  | Error in electron count due to remaining E_F inaccuracy: 0.00000000E+00
  | Maximum occupation number of highest empty state:  0.00E+00

  Highest occupied state (VBM) at     -3.21535108 eV
  | Occupation number:      2.00000000

  Lowest unoccupied state (CBM) at    -2.06987891 eV
  | Occupation number:      0.00000000

  Overall HOMO-LUMO gap:      1.14547217 eV.

  Total energy components:
  | Sum of eigenvalues            :        -290.10578513 Ha       -7894.18006481 eV
  | XC energy correction          :         -65.28373534 Ha       -1776.46082389 eV
  | XC potential correction       :          83.46057518 Ha        2271.07780178 eV
  | Free-atom electrostatic energy:        -250.24644796 Ha       -6809.55231527 eV
  | Hartree energy correction     :         -13.66588546 Ha        -371.86766367 eV
  | van der Waals energy corr.    :           0.00000000 Ha           0.00000000 eV
[...]
  Timings for vdw_correction_hirshfeld (Tkatchenko-Scheffler 2009):
  | CPU time:       11.263 s, Wall clock time:       11.264 s.
  Removing unitary transformations (pure translations, rotations) from forces on atoms.
  Atomic forces before filtering:
  | Net force on center of mass :  0.681163E-02 -.228026E-02 0.674204E-02 eV/A
  | Net torque on center of mass:  -.425032E-02 0.514146E-02 -.106346E-01 eV
  Atomic forces after filtering:
  | Net force on center of mass :  -.267609E-15 -.535218E-15 -.267609E-15 eV/A
  | Net torque on center of mass:  -.944085E-15 -.778870E-15 0.226580E-14 eV
 
  Energy and forces in a compact form:
  | Total energy uncorrected      :         -0.145811246745454E+05 eV
  | Total energy corrected        :         -0.145811246745454E+05 eV  <-- do not rely on this value for anything but (periodic) metals
  | Electronic free energy        :         -0.145811246745454E+05 eV
  Total atomic forces (unitary forces cleaned) [eV/Ang]:
  |   1         -0.419815893499196E+00          0.252429989806613E+01         -0.172633808830010E+01
  |   2          0.187491588731054E+01         -0.320550998973711E+01          0.124705687349626E+01
  |   3         -0.205776710431747E+01         -0.634037804181400E+00         -0.242502721829592E+00
  |   4         -0.599749044663818E+00         -0.184670575076246E+01         -0.349046189464488E+00
  |   5         -0.381438813623191E+00          0.498680422412664E+00          0.876617533054510E+00
  |   6          0.587453256909773E+00          0.693644161417152E+00          0.196318192019026E+00
  |   7         -0.230597235249882E+00          0.689286310722958E+00          0.208463511877100E+01
  |   8         -0.165892263246905E+00         -0.145509068256008E+00         -0.753600334899305E-01
  |   9         -0.276284962726833E+00          0.335361794335565E+00         -0.236337569923968E+01
  |  10          0.322521891603045E+01          0.231089396873623E-01          0.113259833029838E+01
  |  11         -0.263982636160520E+00         -0.594236663001823E+00         -0.875383416099467E+00
  |  12         -0.159234169003402E+01          0.950421216234563E+00         -0.350407597534042E+00
  |  13         -0.136399646593294E+01          0.196952069757779E+01          0.206748661129965E+01
  |  14         -0.379709460347386E+00          0.261775169719601E+00         -0.206315620175517E+01
  |  15          0.164043985141264E+01         -0.178319311728438E+01          0.468961966126580E+00
  |  16          0.157308856440288E+01          0.919880621620457E+00         -0.196287316048535E+01
  |  17         -0.316395480750193E+00         -0.207799698581234E+00          0.250433242340783E+00
  |  18         -0.863457668822591E+00         -0.537545256826292E+00          0.166626626629921E+01
  |  19          0.834313551105993E+00          0.178709285406342E+01         -0.737828051680961E+00
  |  20         -0.483126593410897E-01         -0.294888342312823E+00          0.122369581951170E+00
  |  21         -0.775688648456236E+00         -0.140364639491414E+01          0.633527444222213E+00
 
  ------------------------------------ 
  Start decomposition of the XC Energy 
  ------------------------------------ 
  Hartree-Fock part   :          0.000000000 Ha              0.000000000 eV
  ------------------------------------ 
  X Energy            :        -62.977706625 Ha          -1713.710589909 eV
  C Energy GGA        :         -2.304363039 Ha            -62.704908694 eV
  Total XC Energy     :        -65.282069665 Ha          -1776.415498604 eV
  LDA X and C from self-consistent density 
  X Energy LDA        :        -56.790084761 Ha          -1545.336832231 eV
  C Energy LDA        :         -4.625985688 Ha           -125.879475247 eV
  ------------------------------------ 
  End decomposition of the XC Energy 
  ------------------------------------ 
  Performing Hirshfeld analysis of fragment charges and moments.
  ----------------------------------------------------------------------
  | Atom     1: O
  |   Hirshfeld charge        :     -0.40666639
  |   Free atom volume        :     23.95238533
  |   Hirshfeld volume        :     24.69321439
  |   Hirshfeld dipole vector :      0.02541895       0.07152468       0.02925712
  |   Hirshfeld dipole moment :      0.08135037
  |   Hirshfeld second moments:     -0.01486557      -0.02147827       0.01420600
  |                                 -0.02147827      -0.07942197      -0.03445109
  |                                  0.01420600      -0.03445109      -0.09601984
  ----------------------------------------------------------------------
  | Atom     2: H
  |   Hirshfeld charge        :      0.05116825
  |   Free atom volume        :     10.44207651
  |   Hirshfeld volume        :      8.90094998
  |   Hirshfeld dipole vector :     -0.02063689       0.04310422      -0.00805231
  |   Hirshfeld dipole moment :      0.04846334
  |   Hirshfeld second moments:      0.05830182       0.02741382       0.00238050
  |                                  0.02741382       0.01482288       0.00624320
  |                                  0.00238050       0.00624320       0.05383758
  ----------------------------------------------------------------------
  | Atom     3: H
  |   Hirshfeld charge        :      0.03884901
  |   Free atom volume        :     10.44207651
  |   Hirshfeld volume        :      9.07627596
  |   Hirshfeld dipole vector :      0.04646447       0.01662072       0.01775912
  |   Hirshfeld dipole moment :      0.05244598
  |   Hirshfeld second moments:      0.01663339      -0.02858037      -0.00175494
  |                                 -0.02858037       0.05577432      -0.00753006
  |                                 -0.00175494      -0.00753006       0.04329155
  ----------------------------------------------------------------------
  | Atom     4: O
  |   Hirshfeld charge        :     -0.30468307
  |   Free atom volume        :     23.95238533
  |   Hirshfeld volume        :     22.52614224
  |   Hirshfeld dipole vector :     -0.03082638       0.02146500       0.00733800
  |   Hirshfeld dipole moment :      0.03827347
  |   Hirshfeld second moments:      0.01647830       0.05506865      -0.01085408
  |                                  0.05506865       0.01060646       0.01903666
  |                                 -0.01085408       0.01903666      -0.01733047
  ----------------------------------------------------------------------
  | Atom     5: H
  |   Hirshfeld charge        :      0.06770871
  |   Free atom volume        :     10.44207651
  |   Hirshfeld volume        :      8.03741102
  |   Hirshfeld dipole vector :      0.01611827       0.04735382       0.02930637
  |   Hirshfeld dipole moment :      0.05797453
  |   Hirshfeld second moments:      0.08500367       0.00076531      -0.01109543
  |                                  0.00076531       0.03827062      -0.01659378
  |                                 -0.01109543      -0.01659378       0.06718301
  ----------------------------------------------------------------------
  | Atom     6: H
  |   Hirshfeld charge        :      0.12133818
  |   Free atom volume        :     10.44207651
  |   Hirshfeld volume        :      7.10901192
  |   Hirshfeld dipole vector :     -0.10129513      -0.06022797       0.01619180
  |   Hirshfeld dipole moment :      0.11895497
  |   Hirshfeld second moments:      0.08902044       0.01378846      -0.00027786
  |                                  0.01378846       0.10421839       0.01217786
  |                                 -0.00027786       0.01217786       0.08975602
  ----------------------------------------------------------------------
  | Atom     7: O
  |   Hirshfeld charge        :     -0.20736089
  |   Free atom volume        :     23.95238533
  |   Hirshfeld volume        :     20.69989331
  |   Hirshfeld dipole vector :      0.03612931      -0.01184649      -0.01598981
  |   Hirshfeld dipole moment :      0.04124731
  |   Hirshfeld second moments:      0.02914615       0.01259263       0.02735489
  |                                  0.01259263       0.06929311       0.00506882
  |                                  0.02735489       0.00506882       0.09454893
  ----------------------------------------------------------------------
  | Atom     8: H
  |   Hirshfeld charge        :      0.11155692
  |   Free atom volume        :     10.44207651
  |   Hirshfeld volume        :      7.48643167
  |   Hirshfeld dipole vector :      0.02943745       0.03679803       0.00775085
  |   Hirshfeld dipole moment :      0.04775704
  |   Hirshfeld second moments:      0.07651824      -0.02000761      -0.00620214
  |                                 -0.02000761       0.06665286      -0.02846184
  |                                 -0.00620214      -0.02846184       0.09942423
  ----------------------------------------------------------------------
  | Atom     9: H
  |   Hirshfeld charge        :      0.15558188
  |   Free atom volume        :     10.44207651
  |   Hirshfeld volume        :      6.18245640
  |   Hirshfeld dipole vector :     -0.01604620       0.00866770      -0.11834192
  |   Hirshfeld dipole moment :      0.11973896
  |   Hirshfeld second moments:      0.11417771       0.00980301       0.00889439
  |                                  0.00980301       0.12758899       0.00208444
  |                                  0.00889439       0.00208444       0.11993142
  ----------------------------------------------------------------------
  | Atom    10: O
  |   Hirshfeld charge        :     -0.21350990
  |   Free atom volume        :     23.95238533
  |   Hirshfeld volume        :     21.22691755
  |   Hirshfeld dipole vector :     -0.02475814      -0.03014480       0.03365229
  |   Hirshfeld dipole moment :      0.05151845
  |   Hirshfeld second moments:      0.05995397      -0.02886911       0.00746867
  |                                 -0.02886911       0.05822164       0.03033849
  |                                  0.00746867       0.03033849       0.02272818
  ----------------------------------------------------------------------
  | Atom    11: H
  |   Hirshfeld charge        :      0.10444066
  |   Free atom volume        :     10.44207651
  |   Hirshfeld volume        :      7.49607738
  |   Hirshfeld dipole vector :      0.00741082       0.02382174       0.04840199
  |   Hirshfeld dipole moment :      0.05445318
  |   Hirshfeld second moments:      0.10582603      -0.00210964       0.00957339
  |                                 -0.00210964       0.07345858      -0.02514712
  |                                  0.00957339      -0.02514712       0.06006333
  ----------------------------------------------------------------------
  | Atom    12: H
  |   Hirshfeld charge        :      0.15189578
  |   Free atom volume        :     10.44207651
  |   Hirshfeld volume        :      6.28113634
  |   Hirshfeld dipole vector :      0.08656370      -0.07842994       0.01370046
  |   Hirshfeld dipole moment :      0.11761051
  |   Hirshfeld second moments:      0.11462520      -0.00027251       0.00058378
  |                                 -0.00027251       0.11681888       0.01450334
  |                                  0.00058378       0.01450334       0.11742638
  ----------------------------------------------------------------------
  | Atom    13: O
  |   Hirshfeld charge        :     -0.14726811
  |   Free atom volume        :     23.95238533
  |   Hirshfeld volume        :     19.65265610
  |   Hirshfeld dipole vector :     -0.00270116      -0.01033728      -0.01310999
  |   Hirshfeld dipole moment :      0.01691235
  |   Hirshfeld second moments:      0.08635684      -0.02600075       0.01012188
  |                                 -0.02600075       0.08045179      -0.01014215
  |                                  0.01012188      -0.01014215       0.11155778
  ----------------------------------------------------------------------
  | Atom    14: H
  |   Hirshfeld charge        :      0.18282735
  |   Free atom volume        :     10.44207651
  |   Hirshfeld volume        :      5.57395930
  |   Hirshfeld dipole vector :      0.01966080      -0.01622333       0.11481269
  |   Hirshfeld dipole moment :      0.11760824
  |   Hirshfeld second moments:      0.14064469      -0.01050668       0.00027102
  |                                 -0.01050668       0.13395185      -0.00030927
  |                                  0.00027102      -0.00030927       0.12826762
  ----------------------------------------------------------------------
  | Atom    15: H
  |   Hirshfeld charge        :      0.18879216
  |   Free atom volume        :     10.44207651
  |   Hirshfeld volume        :      6.00486574
  |   Hirshfeld dipole vector :     -0.08301357       0.07323294      -0.01929940
  |   Hirshfeld dipole moment :      0.11236896
  |   Hirshfeld second moments:      0.12683285      -0.00000006      -0.00235400
  |                                 -0.00000006       0.11765629       0.00788104
  |                                 -0.00235400       0.00788104       0.13615319
  ----------------------------------------------------------------------
  | Atom    16: O
  |   Hirshfeld charge        :     -0.20245287
  |   Free atom volume        :     23.95238533
  |   Hirshfeld volume        :     19.91354978
  |   Hirshfeld dipole vector :     -0.00460399      -0.00629366       0.00282605
  |   Hirshfeld dipole moment :      0.00829419
  |   Hirshfeld second moments:      0.09714993       0.02577650       0.00441740
  |                                  0.02577650       0.07614985       0.00270139
  |                                  0.00441740       0.00270139       0.07646141
  ----------------------------------------------------------------------
  | Atom    17: H
  |   Hirshfeld charge        :      0.17042721
  |   Free atom volume        :     10.44207651
  |   Hirshfeld volume        :      5.62114825
  |   Hirshfeld dipole vector :      0.09615613       0.06386442       0.03204380
  |   Hirshfeld dipole moment :      0.11979762
  |   Hirshfeld second moments:      0.13050610       0.00320419      -0.00571467
  |                                  0.00320419       0.12828543      -0.00437154
  |                                 -0.00571467      -0.00437154       0.13762982
  ----------------------------------------------------------------------
  | Atom    18: H
  |   Hirshfeld charge        :      0.11182447
  |   Free atom volume        :     10.44207651
  |   Hirshfeld volume        :      7.12459332
  |   Hirshfeld dipole vector :     -0.02224921      -0.01930925       0.03029022
  |   Hirshfeld dipole moment :      0.04225366
  |   Hirshfeld second moments:      0.08444192      -0.00691416       0.03403820
  |                                 -0.00691416       0.09943278       0.01402666
  |                                  0.03403820       0.01402666       0.08184707
  ----------------------------------------------------------------------
  | Atom    19: O
  |   Hirshfeld charge        :     -0.24164277
  |   Free atom volume        :     23.95238533
  |   Hirshfeld volume        :     20.92586591
  |   Hirshfeld dipole vector :      0.02577335      -0.01931697      -0.03019707
  |   Hirshfeld dipole moment :      0.04415058
  |   Hirshfeld second moments:      0.03934965       0.00650324       0.02040466
  |                                  0.00650324       0.07982234      -0.03196065
  |                                  0.02040466      -0.03196065       0.02547652
  ----------------------------------------------------------------------
  | Atom    20: H
  |   Hirshfeld charge        :      0.11054996
  |   Free atom volume        :     10.44207651
  |   Hirshfeld volume        :      7.25795794
  |   Hirshfeld dipole vector :      0.05276664      -0.02226972       0.00475363
  |   Hirshfeld dipole moment :      0.05747048
  |   Hirshfeld second moments:      0.07245588       0.03101050      -0.01954205
  |                                  0.03101050       0.09865220       0.00337518
  |                                 -0.01954205       0.00337518       0.08596909
  ----------------------------------------------------------------------
  | Atom    21: H
  |   Hirshfeld charge        :      0.15664472
  |   Free atom volume        :     10.44207651
  |   Hirshfeld volume        :      5.93757030
  |   Hirshfeld dipole vector :      0.03642359       0.10033734      -0.05658846
  |   Hirshfeld dipole moment :      0.12081603
  |   Hirshfeld second moments:      0.12971255      -0.00485671       0.01072594
  |                                 -0.00485671       0.12384524      -0.00266026
  |                                  0.01072594      -0.00266026       0.11428534
  ----------------------------------------------------------------------


------------------------------------------------------------------------------
  Final output of selected total energy values:

  The following output summarizes some interesting total energy values
  at the end of a run (AFTER all relaxation, molecular dynamics, etc.).

  | Total energy of the DFT / Hartree-Fock s.c.f. calculation      :         -14581.124674545 eV
  | Final zero-broadening corrected energy (caution - metals only) :         -14581.124674545 eV
  | For reference only, the value of 1 Hartree used in FHI-aims is :             27.211384500 eV

  Before relying on these values, please be sure to understand exactly which
  total energy value is referred to by a given number. Different objects may
  all carry the same name 'total energy'. Definitions:

  Total energy of the DFT / Hartree-Fock s.c.f. calculation:
  | Note that this energy does not include ANY quantities calculated after the
  | s.c.f. cycle, in particular not ANY RPA, MP2, etc. many-body perturbation terms.

  Final zero-broadening corrected energy:
  | For metallic systems only, a broadening of the occupation numbers at the Fermi
  | level can be extrapolated back to zero broadening by an electron-gas inspired
  | formula. For all systems that are not real metals, this value can be
  | meaningless and should be avoided.

------------------------------------------------------------------------------

------------------------------------------------------------
          Leaving FHI-aims.
          Date     :  20150727, Time     :  113325.818

          Computational steps:
          | Number of self-consistency cycles          :           16

          Detailed time accounting                     :  max(cpu_time)    wall_clock(cpu1)
          | Total time                                 :       80.010 s          80.070 s
          | Preparation time                           :        0.170 s           0.576 s
          | Grid partitioning                          :        0.217 s           0.217 s
          | Preloading free-atom quantities on grid    :        0.014 s           0.013 s
          | Free-atom superposition energy             :        0.116 s           0.116 s
          | Total time for integrations                :       35.813 s          35.812 s
          | Total time for solution of K.-S. equations :        2.417 s           2.412 s
          | Total time for density & force components  :       27.817 s          27.815 s
          | Total time for mixing                      :        0.295 s           0.293 s
          | Total time for Hartree multipole update    :        0.109 s           0.109 s
          | Total time for Hartree multipole sum       :       12.146 s          12.148 s
          | Total time for total energy evaluation     :        0.003 s           0.008 s
          | Total time for scaled ZORA corrections     :        0.000 s           0.000 s
          | Total time for TS (2009) vdW correction    :        0.097 s           0.097 s

          Have a nice day.
------------------------------------------------------------
