  MPI-parallelism will be employed.
------------------------------------------------------------
          Invoking FHI-aims ...
          Version 081213
          Compiled on 2013/08/29 at 17:41:06 on host generoso.

          When using FHI-aims, please cite the following reference:

          Volker Blum, Ralf Gehrke, Felix Hanke, Paula Havu,
          Ville Havu, Xinguo Ren, Karsten Reuter, and Matthias Scheffler,
          'Ab Initio Molecular Simulations with Numeric Atom-Centered Orbitals: FHI-aims',
          Computer Physics Communications 180, 2175-2196 (2009)

          For any questions about FHI-aims, please visit the aimsclub website
          with its forums and wiki. Contributions to both the forums and the
          wiki are warmly encouraged - they are for you, and everyone is welcome there.

------------------------------------------------------------

  Date     :  20150727, Time     :  120759.696
  Time zero on CPU 1             :   0.409930000000000E-01  s.
  Internal wall clock time zero  :           207230879.696  s.

  Using        8 parallel tasks.
  Task        0 on host gen60 reporting.
  Task        1 on host gen60 reporting.
  Task        2 on host gen60 reporting.
  Task        3 on host gen60 reporting.
  Task        4 on host gen60 reporting.
  Task        5 on host gen60 reporting.
  Task        6 on host gen60 reporting.
  Task        7 on host gen60 reporting.

  Performing system and environment tests:
  | Environment variable OMP_NUM_THREADS correctly set to 1.
  | Checking for scalapack...
  | No scalapack compiled in.

  Obtaining array dimensions for all initial allocations:
  
  -----------------------------------------------------------------------
  Parsing control.in (first pass over file, find array dimensions only).
  The contents of control.in will be repeated verbatim below
  unless switched off by setting 'verbatim_writeout .false.' .
  in the first line of control.in .
  -----------------------------------------------------------------------
  
  #########################################################################################
  #
  #  Volker Blum, FHI 2008 : Test run input file control.in
  #
  #########################################################################################
  #
  #  Physical model
  #
    xc                 rpbe
    spin               none
    relativistic       atomic_zora scalar
    charge             0.
   vdw_correction_hirshfeld
  #
  #  SCF convergence
  #
    occupation_type    gaussian 0.01
    mixer              pulay
      n_max_pulay        10
      charge_mix_param   0.1
    sc_accuracy_rho    5E-5
    sc_accuracy_eev    5E-3
    sc_accuracy_etot   5E-6
    sc_iter_limit      3000
  #
  #  Eigenvalue solver
  #
    KS_method          lapack
      empty_states       8
      basis_threshold    0.e-5
  #
  #  Efficiency
  #
  #   all previous settings are now default, except stratmann still
  #   undecided. Continue to handle stratmann with care, if at all.
  #
  #  partition_type stratmann
    partition_type rho_r2
  #  hartree_partition_type stratmann
  #
  #  Oprions for large clusters (100's of atoms: memory saving / better scaling)
  #
  # for periodic systems:
  #
    density_update_method orbital
    packed_matrix_format none
  #  k_grid 6 6 6
  #  output k_eigenvalue 1
  #  distributed_spline_storage .true.
  #
  #  Relaxation
  #
  #  relax_geometry   bfgs 5.e-3
    sc_accuracy_forces 5.E-4
    final_forces_cleaned .true.
  #
  #  Output options
  #
  #  output mulliken
    output Hirshfeld
  #  output dipole
  
  #harmonic_length_scale 0.001
  
  ################################################################################
  #
  #  FHI-aims code project
  #  VB, Fritz-Haber Institut, 2007
  #
  #  Suggested "safe" defaults for H atom (to be pasted into control.in file)
  #  Basis constructed for a non-relativistic H2 molecule using the
  #  PW-LDA functional.
  #
  ################################################################################
    species        H
  #     global species definitions
      nucleus             1
      cut_pot             4.0  2.0  1.0
      cut_free_atom       finite 8.0
      logarithmic         0.00010000 100.00  1.0123
      basis_dep_cutoff    1d-4  # 1d-4 is safe default - please check 5d-4 if you wish!
      radial_base         24 7.0
      radial_multiplier   2
      angular_grids       specified
        division   0.2783  110
        division   0.3822  194
        division   0.5626  302
  #      division   0.5922  434
  #      division   0.6227  590
  #      division   0.7206  770
        outer_grid  302
      l_hartree           4
  ################################################################################
  #
  #  Definition of "minimal" basis
  #
  ################################################################################
  #     valence basis states
      valence      1  s   1.
  #     ion occupancy
      ion_occ      1  s   0.5
  ################################################################################
  #
  #  Suggested additional basis functions. For production calculations,
  #  uncomment them one after another (the most important basis functions are
  #  listed first).
  #
  ################################################################################
  #  "First tier" - improvements: -1014.90 meV to -62.69 meV
       hydro 2 s 2.1
       hydro 2 p 3.5
  #  "Second tier" - improvements: -12.89 meV to -1.83 meV
       hydro 1 s 0.85
       hydro 2 p 3.7
       hydro 2 s 1.2
       hydro 3 d 7
  #  "Third tier" - improvements: -0.25 meV to -0.12 meV
  #     hydro 4 f 11.2
  #     hydro 3 p 4.8
  #     hydro 4 d 9
  #     hydro 3 s 3.2
  
  ################################################################################
  #
  #  FHI-aims code project
  #  VB, Fritz-Haber Institut, 2007
  #
  #  Suggested "safe" defaults for O atom (to be pasted into control.in file)
  #  All values have been tested for a non-relativistic, non-spinpolarized O2
  #  molecule using the PW-LDA functional. Validity for PBE is expected.
  #
  #  Constructed for dimers: 1.0 A, 1.208 A, 1.5 A, 2.0 A, 3.0 A
  #
  ################################################################################
    species        O
  #     global species definitions
      nucleus             8
      mass                15.9994
      l_hartree           4
      cut_pot             4.0  2.0  1.0
      cut_free_atom       finite 8.0
      basis_dep_cutoff    1d-4  # 1d-4 is safe default - please check 5d-4 if you wish!
      logarithmic         0.00010000 100.00  1.0123
      radial_base         36 7.0
      radial_multiplier   2
       angular_grids specified
        division   0.4087  110
        division   0.5181  194
        division   0.6184  302
  #      division   0.7315  434
  #      division   0.7934  590
  #      division   0.9656  770
  #      division   1.4041  974
  #      outer_grid 974
        outer_grid 302
  ################################################################################
  #
  #  Definition of "minimal" basis
  #
  ################################################################################
  #     valence basis states
      valence      2  s   2.
      valence      2  p   4.
  #     ion occupancy
      ion_occ      2  s   1.
      ion_occ      2  p   3.
  ################################################################################
  #
  #  Suggested additional basis functions. For production calculations,
  #  uncomment them one after another (the most important basis functions are
  #  listed first).
  #
  ################################################################################
  #  "First tier" - improvements: -699.05 meV to -159.38 meV
       hydro 2 p 1.8
       hydro 3 d 7.6
       hydro 3 s 6.4
  #  "Second tier" - improvements: -49.91 meV to -5.39 meV
       hydro 4 f 11.6
       hydro 3 p 6.2
       hydro 3 d 5.6
       hydro 5 g 17.6
       hydro 1 s 0.75
  #  "Third tier" - improvements: -2.83 meV to -0.50 meV
  #     ionic 2 p auto
  #     hydro 4 f 10.8
  #     hydro 4 d 4.7
  #     hydro 2 s 6.8
  #  "Fourth tier" - improvements: -0.40 meV to -0.12 meV
  #     hydro 3 p 5
  #     hydro 3 s 3.3
  #     hydro 5 g 15.6
  #     hydro 4 f 17.6
  #     hydro 4 d 14
  # Further basis functions - -0.08 meV and below
  #     hydro 3 s 2.1
  #     hydro 4 d 11.6
  #     hydro 3 p 16
  #     hydro 2 s 17.2
  
  
  -----------------------------------------------------------------------
  Completed first pass over input file control.in .
  -----------------------------------------------------------------------
  
  
  -----------------------------------------------------------------------
  Parsing geometry.in (first pass over file, find array dimensions only).
  The contents of geometry.in will be repeated verbatim below
  unless switched off by setting 'verbatim_writeout .false.' .
  in the first line of geometry.in .
  -----------------------------------------------------------------------
  
  atom      -4.053030000      0.065001000     -1.525160000  O
  atom      -4.566710000      0.974813000     -1.912820000  H
  atom      -3.067820000      0.330172000     -1.477310000  H
  atom      -4.581760000     -0.256435000      0.939478000  O
  atom      -4.349860000      0.471090000      1.504340000  H
  atom      -5.393870000     -0.726611000      1.228070000  H
  atom      -3.818880000      2.024990000      2.187990000  O
  atom      -3.690880000      1.961360000      3.202150000  H
  atom      -4.546490000      2.751300000      2.045370000  H
  atom      -1.975360000      2.858040000      0.453140000  O
  atom      -1.223550000      3.375850000      0.786238000  H
  atom      -2.537520000      2.567960000      1.156120000  H
  atom      -4.066610000      4.258280000     -0.900064000  O
  atom      -3.224110000      3.876870000     -0.569443000  H
  atom      -3.737450000      5.116530000     -1.322720000  H
  
  -----------------------------------------------------------------------
  Completed first pass over input file geometry.in .
  -----------------------------------------------------------------------
  
 
  Basic array size parameters: 
  | Number of species                 :        2
  | Number of atoms                   :       15
  | Max. basis fn. angular momentum   :        4
  | Max. atomic/ionic basis occupied n:        2
  | Max. number of basis fn. types    :        2
  | Max. radial fns per species/type  :        8
  | Max. logarithmic grid size        :     1301
  | Max. radial integration grid size :       73
  | Max. angular integration grid size:      302
  | Max. angular grid division number :        8
  | Radial grid for Hartree potential :     1301
  | Number of spin channels           :        1

------------------------------------------------------------
          Reading file control.in.
------------------------------------------------------------
  XC: Using RPBE gradient-corrected functionals.
  Spin treatment: No spin polarisation.
  Scalar relativistic treatment of kinetic energy: on-site free-atom approximation to ZORA.
  Charge =   0.000000E+00: Neutral system requested explicitly.
  Using non-empirical van der Waals correction (Hirshfeld partitioning):
  Occupation type: Gaussian broadening, width =   0.100000E-01 eV.
  Using pulay charge density mixing.
  Pulay mixing - number of memorized iterations:   10
  Charge density mixing - mixing parameter:     0.1000
  Convergence accuracy of self-consistent charge density: 0.5000E-04
  Convergence accuracy of sum of eigenvalues: 0.5000E-02
  Convergence accuracy of total energy: 0.5000E-05
  Maximum number of s.-c. iterations  :  3000
  Kohn-Sham eigenvalues and eigenfunctions calculated by lapack diagonalisation (D&C).
  Number of empty states per atom:        8
  Threshold for basis singularities: 0.0000E+00
  Partition function in integrals calculations: rho / r^2
 Using packed matrix format           0
  Convergence accuracy of forces: 0.5000E-03
  Cleaning forces before final output.
  Hirshfeld charge analysis will be performed.
 
  Reading configuration options for species H                   .
  | Found nuclear charge :   1.0000
  | Found cutoff potl. onset [A], width [A], scale factor :    4.00000    2.00000    1.00000
  | Found cutoff specification for free atom: Cutoff potential begins at    8.00000 A.
  | Found logarithmic grid data [bohr] : 0.1000E-03 0.1000E+03 0.1012E+01
  | Threshold for basis-dependent cutoff potential is   0.100000E-03
  | Found data for basic radial integration grid :    24 points, outermost radius =    7.000 A
  | Found multiplier for basic radial grid :   2
  | Found angular grid specification: user-specified.
  | Specified grid contains     4 separate shells.
  | Check grid settings after all constraints further below.
  | Found l_max for Hartree potential  :   4
  | Found free-atom valence shell :  1 s   1.000
  | No ionic wave fns used. Skipping ion_occ.
  | Found hydrogenic basis function :  2 s   2.100
  | Found hydrogenic basis function :  2 p   3.500
  | Found hydrogenic basis function :  1 s   0.850
  | Found hydrogenic basis function :  2 p   3.700
  | Found hydrogenic basis function :  2 s   1.200
  | Found hydrogenic basis function :  3 d   7.000
  Species H                   : Missing cutoff potential type.
  Defaulting to exp(1/x)/(1-x)^2 type cutoff potential.
  Species H : On-site basis accuracy parameter (for Gram-Schmidt orthonormalisation) not specified.
  Using default value basis_acc =  0.1000000E-03.
  Species H                   : Using default innermost maximum threshold i_radial=  2 for radial functions.
  Species H                   : Basic radial grid will be enhanced according to radial_multiplier =   2, to contain    49 grid points.
 
  Reading configuration options for species O                   .
  | Found nuclear charge :   8.0000
  | Found atomic mass :    15.9994000000000      amu
  | Found l_max for Hartree potential  :   4
  | Found cutoff potl. onset [A], width [A], scale factor :    4.00000    2.00000    1.00000
  | Found cutoff specification for free atom: Cutoff potential begins at    8.00000 A.
  | Threshold for basis-dependent cutoff potential is   0.100000E-03
  | Found logarithmic grid data [bohr] : 0.1000E-03 0.1000E+03 0.1012E+01
  | Found data for basic radial integration grid :    36 points, outermost radius =    7.000 A
  | Found multiplier for basic radial grid :   2
  | Found angular grid specification: user-specified.
  | Specified grid contains     4 separate shells.
  | Check grid settings after all constraints further below.
  | Found free-atom valence shell :  2 s   2.000
  | Found free-atom valence shell :  2 p   4.000
  | No ionic wave fns used. Skipping ion_occ.
  | No ionic wave fns used. Skipping ion_occ.
  | Found hydrogenic basis function :  2 p   1.800
  | Found hydrogenic basis function :  3 d   7.600
  | Found hydrogenic basis function :  3 s   6.400
  | Found hydrogenic basis function :  4 f  11.600
  | Found hydrogenic basis function :  3 p   6.200
  | Found hydrogenic basis function :  3 d   5.600
  | Found hydrogenic basis function :  5 g  17.600
  | Found hydrogenic basis function :  1 s   0.750
  Species O                   : Missing cutoff potential type.
  Defaulting to exp(1/x)/(1-x)^2 type cutoff potential.
  Species O : On-site basis accuracy parameter (for Gram-Schmidt orthonormalisation) not specified.
  Using default value basis_acc =  0.1000000E-03.
  Species O                   : Using default innermost maximum threshold i_radial=  2 for radial functions.
  Species O                   : Basic radial grid will be enhanced according to radial_multiplier =   2, to contain    73 grid points.
 
  Finished reading input file 'control.in'. Consistency checks are next.
 
  Target number of points in a grid batch is not set. Defaulting to  100
  Method for grid partitioning is not set. Defaulting to parallel hash+maxmin partitioning.
  Batch size limit is not set. Defaulting to    200
  By default, will store active basis functions for each batch.
  If in need of memory, prune_basis_once .false. can be used to disable this option.
  communication_type for Hartree potential was not specified.
  Defaulting to calc_hartree .
  Pulay mixer: Number of initial linear mixing iterations not set.
  Defaulting to    0 iterations.
  Work space size for distributed Hartree potential not set.
  Defaulting to   0.200000E+03 MB.
  Algorithm-dependent basis array size parameters:
  | n_max_pulay                         :       10
  Geometry relaxation not requested: no relaxation will be performed.
  Handling of forces: Unphysical translation and rotation will be removed from forces.
  No accuracy limit for integral partition fn. given. Defaulting to 0.1000E-14.
  No threshold value for u(r) in integrations given. Defaulting to 0.1000E-05.
  No accuracy for occupation numbers given. Defaulting to 0.1000E-07.
  No threshold value for occupation numbers given. Defaulting to 0.0000E+00.
  No accuracy for fermi level given. Defaulting to 0.1000E-19.
  Maximum # of iterations to find E_F not set. Defaulting to  200.
  Will not use alltoall communication since running on < 1024 CPUs.
  Partitioning for Hartree potential was not defined. Using partition_type for integrals.
  | Reporting present value of keyword multip_moments_threshold  :       0.10000000E-09
  | This value may affect high angular momentum components of the Hartree potential in periodic systems.
  No q(lm)/r^(l+1) cutoff set for long-range Hartree potential.
  | Using default value of  0.100000E-09 .
  | Verify using the multipole_threshold keyword.
  Defaulting to new monopole extrapolation.
  Density update method: Loop over occupied states selected for charge density update.
------------------------------------------------------------


------------------------------------------------------------
          Reading geometry description geometry.in.
------------------------------------------------------------
  Input structure read successfully.
  The structure contains       15 atoms,  and a total of         50.000 electrons.

  Input geometry:
  | No unit cell requested.
  | Atomic structure:
  |       Atom                x [A]            y [A]            z [A]
  |    1: Species O             -4.053030         0.065001        -1.525160
  |    2: Species H             -4.566710         0.974813        -1.912820
  |    3: Species H             -3.067820         0.330172        -1.477310
  |    4: Species O             -4.581760        -0.256435         0.939478
  |    5: Species H             -4.349860         0.471090         1.504340
  |    6: Species H             -5.393870        -0.726611         1.228070
  |    7: Species O             -3.818880         2.024990         2.187990
  |    8: Species H             -3.690880         1.961360         3.202150
  |    9: Species H             -4.546490         2.751300         2.045370
  |   10: Species O             -1.975360         2.858040         0.453140
  |   11: Species H             -1.223550         3.375850         0.786238
  |   12: Species H             -2.537520         2.567960         1.156120
  |   13: Species O             -4.066610         4.258280        -0.900064
  |   14: Species H             -3.224110         3.876870        -0.569443
  |   15: Species H             -3.737450         5.116530        -1.322720
  |

  | The smallest distance between any two atoms is         0.94570141 AA.
  |
  | The first atom of this pair is atom number                     10 .
  | The second atom of this pair is atom number                    12 .

  Structure-dependent array size parameters: 
  | Maximum number of distinct radial functions  :       18
  | Maximum number of basis functions            :      345
  | Number of Kohn-Sham states (occupied + empty):       85
------------------------------------------------------------

------------------------------------------------------------
          Preparing all fixed parts of the calculation.
------------------------------------------------------------
  Determining machine precision:
    2.225073858507201E-308
  Setting up grids for atomic and cluster calculations.

  Creating wave function, potential, and density for free atoms.

  Species: H

  List of occupied orbitals and eigenvalues:
    n    l              occ      energy [Ha]    energy [eV]
    1    0           1.0000        -0.241408        -6.5691


  Species: O

  List of occupied orbitals and eigenvalues:
    n    l              occ      energy [Ha]    energy [eV]
    1    0           2.0000       -18.944147      -515.4965
    2    0           2.0000        -0.883529       -24.0421
    2    1           4.0000        -0.330176        -8.9845

  Creating fixed part of basis set: Ionic, confined, hydrogenic.
 
  H                    hydrogenic:
 
  List of hydrogenic basis orbitals: 
    n    l      effective z      eigenvalue [eV]  inner max. [A]     outer max. [A]     outer radius [A]   
    2    0         2.100000       -14.9965           0.193241           1.317192           5.372934
    2    1         3.500000       -41.6672           0.602363           0.602363           4.056010
    1    0         0.850000        -9.8292           0.624864           0.624864           5.372934
    2    1         3.700000       -46.5653           0.573616           0.573616           3.909951
    2    0         1.200000        -4.5995           0.334977           2.228160           5.505921
    3    2         7.000000       -74.0753           0.680692           0.680692           3.769152
 
 
  O                    hydrogenic:
 
  List of hydrogenic basis orbitals: 
    n    l      effective z      eigenvalue [eV]  inner max. [A]     outer max. [A]     outer radius [A]   
    2    1         1.800000       -11.0118           1.178546           1.178546           5.432516
    3    2         7.600000       -87.3182           0.624117           0.624117           3.541422
    3    0         6.400000       -61.9209           0.061166           1.081887           4.306510
    4    3        11.600000      -114.4238           0.731621           0.731621           3.584982
    3    1         6.200000       -58.1113           0.255677           1.030255           4.306510
    3    2         5.600000       -47.4081           0.847222           0.847222           4.413102
    5    4        17.600000      -168.5799           0.749730           0.749730           3.372413
    1    0         0.750000        -7.6499           0.705275           0.705275           5.366508
 

  Adding cutoff potential to free-atom effective potential.
  Creating atomic-like basis functions for current effective potential.

  Species H                   :

  List of atomic basis orbitals and eigenvalues:
    n    l      energy [Ha]    energy [eV]    outer radius [A]
    1    0        -0.241374        -6.5681       5.372934


  Species O                   :

  List of atomic basis orbitals and eigenvalues:
    n    l      energy [Ha]    energy [eV]    outer radius [A]
    1    0       -18.944147      -515.4965       1.415745
    2    0        -0.883529       -24.0421       5.048305
    2    1        -0.330173        -8.9845       5.301302

  Assembling full basis from fixed parts.
  | Species H :   atomic orbital   1 s accepted.
  | Species H :    hydro orbital   2 s accepted.
  | Species H :    hydro orbital   1 s accepted.
  | Species H :    hydro orbital   2 s accepted.
  | Species H :    hydro orbital   2 p accepted.
  | Species H :    hydro orbital   2 p accepted.
  | Species H :    hydro orbital   3 d accepted.
  | Species O :   atomic orbital   1 s accepted.
  | Species O :    hydro orbital   3 s accepted.
  | Species O :   atomic orbital   2 s accepted.
  | Species O :    hydro orbital   1 s accepted.
  | Species O :    hydro orbital   3 p accepted.
  | Species O :   atomic orbital   2 p accepted.
  | Species O :    hydro orbital   2 p accepted.
  | Species O :    hydro orbital   3 d accepted.
  | Species O :    hydro orbital   3 d accepted.
  | Species O :    hydro orbital   4 f accepted.
  | Species O :    hydro orbital   5 g accepted.
 
  Basis size parameters after reduction:
  | Total number of radial functions:       18
  | Total number of basis functions :      345
 
  Testing on-site integration grid accuracy.
  |  Species  Function  <phi|h_atom|phi> (log., in eV)  <phi|h_atom|phi> (rad., in eV)
           1        1                 -6.5683835025                 -6.5684759159
           1        2                 13.3711789951                 13.3708738703
           1        3                 23.6590910787                 23.6532055418
           1        4                 16.2963827186                 16.1870710655 ***
           1        5                 28.7627214838                 28.7627215090
           1        6                 59.5965249172                 59.5965950857
           1        7                 60.2220506392                 60.2220503827
           2        8               -515.4964576505               -515.4964530710
           2        9                 15.3030791347                 15.3030722972
           2       10                -21.7296094581                -21.7296135470
           2       11                 14.2969371730                 14.2969701621
           2       12                 21.0679693190                 21.0679697493
           2       13                 -2.3833606469                 -2.3833613176
           2       14                 13.7067136422                 13.7066766629
           2       15                 45.8013116808                 45.8013116965
           2       16                 52.2309815402                 52.2309831494
           2       17                 85.4120732416                 85.4120732763
           2       18                142.1019167745                142.1019167817
 * Note: Onsite integrals marked "***" above are less accurate than
 * onsite_accuracy_threshold =    0.03000 eV. Usually, this is harmless.
 * When in doubt, tighten the "radial" and/or "radial_multiplier" flags to check.

  Preparing densities etc. for the partition functions (integrals / Hartree potential).

  Preparations completed.
  max(cpu_time)          :      0.172 s.
  Wall clock time (cpu1) :      0.531 s.
------------------------------------------------------------

------------------------------------------------------------
          Begin self-consistency loop: Initialization.

          Date     :  20150727, Time     :  120800.250
------------------------------------------------------------

  Initializing index lists of integration centers etc. from given atomic structure:
  | Number of centers in hartree potential         :        15
  | Number of centers in hartree multipole         :        15
  | Number of centers in electron density summation:        15
  | Number of centers in basis integrals           :        15
  | Number of centers in integrals                 :        15
  Partitioning the integration grid into batches with parallel hashing+maxmin method.
  | Number of batches:     2058
  | Maximal batch size:     198
  | Minimal batch size:      53
  | Average batch size:      95.583
  | Standard deviation of batch sizes:      28.932

  Integration load balanced across     8 MPI tasks.
  Work distribution over tasks is as follows:
  Task     0 has      24550 integration points.
  Task     1 has      24631 integration points.
  Task     2 has      24622 integration points.
  Task     3 has      24622 integration points.
  Task     4 has      24594 integration points.
  Task     5 has      24543 integration points.
  Task     6 has      24556 integration points.
  Task     7 has      24592 integration points.
  Initializing partition tables, free-atom densities, potentials, etc. across the integration grid (initialize_grid_storage).
  | Net number of integration points:   196710
  | of which are non-zero points    :   196172
  Obtaining max. number of non-zero basis functions in each batch (get_n_compute_maxes).
  | Maximal number of non-zero basis functions:      342 in task     0
  | Maximal number of non-zero basis functions:      342 in task     1
  | Maximal number of non-zero basis functions:      342 in task     2
  | Maximal number of non-zero basis functions:      342 in task     3
  | Maximal number of non-zero basis functions:      342 in task     4
  | Maximal number of non-zero basis functions:      342 in task     5
  | Maximal number of non-zero basis functions:      342 in task     6
  | Maximal number of non-zero basis functions:      342 in task     7
  Integrating Hamiltonian matrix: batch-based integration.
  Time summed over all CPUs for integration: real work        7.432 s, elapsed        7.717 s
  Integrating overlap matrix.
  Time summed over all CPUs for integration: real work        4.010 s, elapsed        4.147 s

  Updating Kohn-Sham eigenvalues, eigenvectors, occupation numbers, and Fermi level.
  Solving generalized eigenproblem
  Updating Kohn-Sham eigenvalues and eigenfunctions.
  Transforming overlap matrix and checking for singularities.
  Overlap matrix is nonsingular:
  | Lowest eigenvalue:  0.281905E-03
  Solving real generalised eigenvalue problem by standard LAPACK (fast)
  Determining occupation numbers for Kohn-Sham eigenstates.
  | Chemical potential (Fermi level) in eV                 : -.35293840E+01
  | Error in electron count due to remaining E_F inaccuracy: 0.00000000E+00
  | Maximum occupation number of highest empty state:  0.00E+00

  Writing Kohn-Sham eigenvalues.

  State    Occupation    Eigenvalue [Ha]    Eigenvalue [eV]
      1       2.00000         -19.056828         -518.56267
      2       2.00000         -19.052093         -518.43383
      3       2.00000         -19.040141         -518.10859
      4       2.00000         -19.035969         -517.99507
      5       2.00000         -19.019444         -517.54540
      6       2.00000          -1.109455          -30.18980
      7       2.00000          -1.100268          -29.93981
      8       2.00000          -1.083008          -29.47014
      9       2.00000          -1.068880          -29.08571
     10       2.00000          -1.043125          -28.38488
     11       2.00000          -0.654355          -17.80591
     12       2.00000          -0.648464          -17.64560
     13       2.00000          -0.606642          -16.50757
     14       2.00000          -0.597458          -16.25766
     15       2.00000          -0.569989          -15.51020
     16       2.00000          -0.516909          -14.06580
     17       2.00000          -0.510071          -13.87975
     18       2.00000          -0.503597          -13.70356
     19       2.00000          -0.493286          -13.42300
     20       2.00000          -0.475029          -12.92619
     21       2.00000          -0.444115          -12.08499
     22       2.00000          -0.439732          -11.96571
     23       2.00000          -0.431360          -11.73789
     24       2.00000          -0.426673          -11.61037
     25       2.00000          -0.402263          -10.94615
     26       0.00000          -0.100177           -2.72595
     27       0.00000          -0.077532           -2.10975
     28       0.00000          -0.061213           -1.66570
     29       0.00000          -0.042211           -1.14863
     30       0.00000          -0.039771           -1.08223
     31       0.00000          -0.016929           -0.46067
     32       0.00000          -0.014431           -0.39270
     33       0.00000           0.038268            1.04132
     34       0.00000           0.042885            1.16695
     35       0.00000           0.057764            1.57185
     36       0.00000           0.070552            1.91983
     37       0.00000           0.077214            2.10111
     38       0.00000           0.087339            2.37662
     39       0.00000           0.096182            2.61724
     40       0.00000           0.099116            2.69709
     41       0.00000           0.107837            2.93440
     42       0.00000           0.112558            3.06287
     43       0.00000           0.116096            3.15913
     44       0.00000           0.126623            3.44558
     45       0.00000           0.134679            3.66480
     46       0.00000           0.139058            3.78397
     47       0.00000           0.154078            4.19268
     48       0.00000           0.161743            4.40126
     49       0.00000           0.166988            4.54398
     50       0.00000           0.177462            4.82899
     51       0.00000           0.182965            4.97873
     52       0.00000           0.219350            5.96882
     53       0.00000           0.238022            6.47691
     54       0.00000           0.247626            6.73825
     55       0.00000           0.253896            6.90886
     56       0.00000           0.262905            7.15400
     57       0.00000           0.279065            7.59376
     58       0.00000           0.294910            8.02491
     59       0.00000           0.319929            8.70570
     60       0.00000           0.328599            8.94163
     61       0.00000           0.331783            9.02826
     62       0.00000           0.345783            9.40924
     63       0.00000           0.358892            9.76594
     64       0.00000           0.386968           10.52994
     65       0.00000           0.390236           10.61886
     66       0.00000           0.397697           10.82189
     67       0.00000           0.402500           10.95259
     68       0.00000           0.417369           11.35718
     69       0.00000           0.424026           11.53832
     70       0.00000           0.442380           12.03776
     71       0.00000           0.447968           12.18982
     72       0.00000           0.457327           12.44450
     73       0.00000           0.474632           12.91540
     74       0.00000           0.497680           13.54256
     75       0.00000           0.507947           13.82195
     76       0.00000           0.525686           14.30465
     77       0.00000           0.556107           15.13243
     78       0.00000           0.568869           15.47972
     79       0.00000           0.580749           15.80299
     80       0.00000           0.599094           16.30217
     81       0.00000           0.621689           16.91702
     82       0.00000           0.640867           17.43888
     83       0.00000           0.652603           17.75822
     84       0.00000           0.724315           19.70962
     85       0.00000           0.747031           20.32774

  Highest occupied state (VBM) at    -10.94614620 eV
  | Occupation number:      2.00000000

  Lowest unoccupied state (CBM) at    -2.72594697 eV
  | Occupation number:      0.00000000

  Overall HOMO-LUMO gap:      8.22019923 eV.
  Calculating total energy contributions from superposition of free atom densities.

  Total energy components:
  | Sum of eigenvalues            :        -216.65830567 Ha       -5895.57246070 eV
  | XC energy correction          :         -45.53017643 Ha       -1238.93913715 eV
  | XC potential correction       :          58.17363545 Ha        1582.98516194 eV
  | Free-atom electrostatic energy:        -179.05923815 Ha       -4872.44977746 eV
  | Hartree energy correction     :           0.00000000 Ha           0.00000000 eV
  | van der Waals energy corr.    :           0.00000000 Ha           0.00000000 eV
  | Entropy correction            :           0.00000000 Ha           0.00000000 eV
  | ---------------------------
  | Total energy                  :        -383.07408480 Ha      -10423.97621337 eV
  | Total energy, T -> 0          :        -383.07408480 Ha      -10423.97621337 eV  <-- do not rely on this value for anything but (periodic) metals
  | Electronic free energy        :        -383.07408480 Ha      -10423.97621337 eV

  Derived energy quantities:
  | Kinetic energy                :         379.08126529 Ha       10315.32606649 eV
  | Electrostatic energy          :        -716.62517366 Ha      -19500.36314271 eV
  | Energy correction for multipole
  | error in Hartree potential    :           0.00000000 Ha           0.00000000 eV
  | Sum of eigenvalues per atom                           :        -393.03816405 eV
  | Total energy (T->0) per atom                          :        -694.93174756 eV  <-- do not rely on this value for anything but (periodic) metals
  | Electronic free energy per atom                       :        -694.93174756 eV
  Initialize hartree_potential_storage
  Max. number of atoms included in rho_multipole:           15

  End scf initialization - timings             :  max(cpu_time)    wall_clock(cpu1)
  | Time for scf. initialization               :        2.064 s           2.064 s
  | Boundary condition initialization          :        0.000 s           0.000 s
  | Integration                                :        1.486 s           1.486 s
  | Solution of K.-S. eqns.                    :        0.198 s           0.198 s
  | Grid partitioning                          :        0.155 s           0.156 s
  | Preloading free-atom quantities on grid    :        0.013 s           0.013 s
  | Free-atom superposition energy             :        0.067 s           0.067 s
  | Total energy evaluation                    :        0.000 s           0.001 s
------------------------------------------------------------

------------------------------------------------------------
          Begin self-consistency iteration #    1

  Date     :  20150727, Time     :  120802.315
------------------------------------------------------------
  Evaluating new KS density.
  Integration grid: deviation in total charge (<rho> - N_e) =  -7.105427E-15
  Pulay mixing of updated and previous charge densities.

  Evaluating partitioned Hartree potential by multipole expansion.
  | Analytical far-field extrapolation by fixed multipoles:
  | Hartree multipole sum: apparent total charge =  -0.222735E-05
  Summing up the Hartree potential.
  Time summed over all CPUs for potential: real work        2.579 s, elapsed        2.612 s
  | RMS charge density error from multipole expansion :   0.160489E-02

  Integrating Hamiltonian matrix: batch-based integration.
  Time summed over all CPUs for integration: real work        7.419 s, elapsed        7.738 s

  Updating Kohn-Sham eigenvalues, eigenvectors, occupation numbers, and Fermi level.
  Solving generalized eigenproblem
  Updating Kohn-Sham eigenvalues and eigenfunctions.
  Solving real generalised eigenvalue problem by standard LAPACK (fast)
  Determining occupation numbers for Kohn-Sham eigenstates.
  | Chemical potential (Fermi level) in eV                 : -.30625343E+01
  | Error in electron count due to remaining E_F inaccuracy: 0.00000000E+00
  | Maximum occupation number of highest empty state:  0.00E+00

  Writing Kohn-Sham eigenvalues.

  State    Occupation    Eigenvalue [Ha]    Eigenvalue [eV]
      1       2.00000         -18.977745         -516.41070
      2       2.00000         -18.976943         -516.38891
      3       2.00000         -18.961541         -515.96977
      4       2.00000         -18.960913         -515.95269
      5       2.00000         -18.938630         -515.34633
      6       2.00000          -1.070809          -29.13820
      7       2.00000          -1.054097          -28.68343
      8       2.00000          -1.042720          -28.37384
      9       2.00000          -1.039275          -28.28010
     10       2.00000          -0.998944          -27.18264
     11       2.00000          -0.620760          -16.89174
     12       2.00000          -0.607032          -16.51817
     13       2.00000          -0.575746          -15.66685
     14       2.00000          -0.571538          -15.55233
     15       2.00000          -0.532956          -14.50247
     16       2.00000          -0.482550          -13.13085
     17       2.00000          -0.471233          -12.82291
     18       2.00000          -0.462006          -12.57183
     19       2.00000          -0.454178          -12.35880
     20       2.00000          -0.431072          -11.73007
     21       2.00000          -0.404793          -11.01499
     22       2.00000          -0.399524          -10.87160
     23       2.00000          -0.389326          -10.59409
     24       2.00000          -0.384675          -10.46754
     25       2.00000          -0.354448           -9.64503
     26       0.00000          -0.091241           -2.48278
     27       0.00000          -0.067280           -1.83077
     28       0.00000          -0.052276           -1.42250
     29       0.00000          -0.034548           -0.94011
     30       0.00000          -0.029322           -0.79790
     31       0.00000          -0.009816           -0.26712
     32       0.00000          -0.003758           -0.10225
     33       0.00000           0.048060            1.30778
     34       0.00000           0.053732            1.46212
     35       0.00000           0.063237            1.72078
     36       0.00000           0.080747            2.19724
     37       0.00000           0.087396            2.37816
     38       0.00000           0.094954            2.58382
     39       0.00000           0.106039            2.88546
     40       0.00000           0.107149            2.91567
     41       0.00000           0.119708            3.25742
     42       0.00000           0.121386            3.30308
     43       0.00000           0.124806            3.39615
     44       0.00000           0.139064            3.78412
     45       0.00000           0.146261            3.97996
     46       0.00000           0.154389            4.20114
     47       0.00000           0.165206            4.49550
     48       0.00000           0.171735            4.67313
     49       0.00000           0.178582            4.85947
     50       0.00000           0.189171            5.14762
     51       0.00000           0.195285            5.31397
     52       0.00000           0.228740            6.22432
     53       0.00000           0.248979            6.77506
     54       0.00000           0.258624            7.03752
     55       0.00000           0.264739            7.20391
     56       0.00000           0.271853            7.39749
     57       0.00000           0.289862            7.88753
     58       0.00000           0.305951            8.32535
     59       0.00000           0.329401            8.96345
     60       0.00000           0.336264            9.15022
     61       0.00000           0.340402            9.26281
     62       0.00000           0.354958            9.65891
     63       0.00000           0.370481           10.08130
     64       0.00000           0.396655           10.79354
     65       0.00000           0.399565           10.87271
     66       0.00000           0.409808           11.15144
     67       0.00000           0.412056           11.21261
     68       0.00000           0.425275           11.57231
     69       0.00000           0.437745           11.91166
     70       0.00000           0.451494           12.28578
     71       0.00000           0.455892           12.40544
     72       0.00000           0.469988           12.78902
     73       0.00000           0.484462           13.18288
     74       0.00000           0.510486           13.89104
     75       0.00000           0.520135           14.15359
     76       0.00000           0.537251           14.61935
     77       0.00000           0.570906           15.53515
     78       0.00000           0.581103           15.81262
     79       0.00000           0.593867           16.15994
     80       0.00000           0.611779           16.64735
     81       0.00000           0.637809           17.35567
     82       0.00000           0.653806           17.79097
     83       0.00000           0.666979           18.14942
     84       0.00000           0.738610           20.09860
     85       0.00000           0.761330           20.71684

  Highest occupied state (VBM) at     -9.64502831 eV
  | Occupation number:      2.00000000

  Lowest unoccupied state (CBM) at    -2.48278434 eV
  | Occupation number:      0.00000000

  Overall HOMO-LUMO gap:      7.16224398 eV.

  Total energy components:
  | Sum of eigenvalues            :        -214.32690391 Ha       -5832.13179104 eV
  | XC energy correction          :         -45.77236767 Ha       -1245.52949608 eV
  | XC potential correction       :          58.49061078 Ha        1591.61049951 eV
  | Free-atom electrostatic energy:        -179.05923815 Ha       -4872.44977746 eV
  | Hartree energy correction     :          -2.25795121 Ha         -61.44197864 eV
  | van der Waals energy corr.    :           0.00000000 Ha           0.00000000 eV
  | Entropy correction            :           0.00000000 Ha           0.00000000 eV
  | ---------------------------
  | Total energy                  :        -382.92585016 Ha      -10419.94254371 eV
  | Total energy, T -> 0          :        -382.92585016 Ha      -10419.94254371 eV  <-- do not rely on this value for anything but (periodic) metals
  | Electronic free energy        :        -382.92585016 Ha      -10419.94254371 eV

  Derived energy quantities:
  | Kinetic energy                :         380.51776986 Ha       10354.41534463 eV
  | Electrostatic energy          :        -717.67125235 Ha      -19528.82839226 eV
  | Energy correction for multipole
  | error in Hartree potential    :           0.00008258 Ha           0.00224723 eV
  | Sum of eigenvalues per atom                           :        -388.80878607 eV
  | Total energy (T->0) per atom                          :        -694.66283625 eV  <-- do not rely on this value for anything but (periodic) metals
  | Electronic free energy per atom                       :        -694.66283625 eV

  Self-consistency convergence accuracy:
  | Change of charge density      : 0.6669E+00
  | Change of sum of eigenvalues  : 0.6344E+02 eV
  | Change of total energy        : 0.4034E+01 eV

  End self-consistency iteration #     1       :  max(cpu_time)    wall_clock(cpu1)
  | Time for this iteration                    :        2.018 s           2.017 s
  | Charge density update                      :        0.654 s           0.654 s
  | Density mixing                             :        0.003 s           0.004 s
  | Hartree multipole update                   :        0.004 s           0.005 s
  | Hartree multipole summation                :        0.327 s           0.328 s
  | Integration                                :        0.969 s           0.968 s
  | Solution of K.-S. eqns.                    :        0.053 s           0.054 s
  | Total energy evaluation                    :        0.001 s           0.001 s
------------------------------------------------------------

------------------------------------------------------------
          Begin self-consistency iteration #    2

  Date     :  20150727, Time     :  120804.333
------------------------------------------------------------
  Evaluating new KS density.
  Integration grid: deviation in total charge (<rho> - N_e) =   7.105427E-15
  Pulay mixing of updated and previous charge densities.

  Evaluating partitioned Hartree potential by multipole expansion.
  | Analytical far-field extrapolation by fixed multipoles:
  | Hartree multipole sum: apparent total charge =  -0.661185E-05
  Summing up the Hartree potential.
  Time summed over all CPUs for potential: real work        2.567 s, elapsed        2.578 s
  | RMS charge density error from multipole expansion :   0.636534E-02

  Integrating Hamiltonian matrix: batch-based integration.
  Time summed over all CPUs for integration: real work        7.418 s, elapsed        7.722 s

  Updating Kohn-Sham eigenvalues, eigenvectors, occupation numbers, and Fermi level.
  Solving generalized eigenproblem
  Updating Kohn-Sham eigenvalues and eigenfunctions.
  Solving real generalised eigenvalue problem by standard LAPACK (fast)
  Determining occupation numbers for Kohn-Sham eigenstates.
  | Chemical potential (Fermi level) in eV                 : -.22828116E+01
  | Error in electron count due to remaining E_F inaccuracy: 0.00000000E+00
  | Maximum occupation number of highest empty state:  0.00E+00

  Highest occupied state (VBM) at     -6.60025425 eV
  | Occupation number:      2.00000000

  Lowest unoccupied state (CBM) at    -2.03889404 eV
  | Occupation number:      0.00000000

  Overall HOMO-LUMO gap:      4.56136020 eV.

  Total energy components:
  | Sum of eigenvalues            :        -208.91620680 Ha       -5684.89923143 eV
  | XC energy correction          :         -46.35915141 Ha       -1261.49669408 eV
  | XC potential correction       :          59.25786463 Ha        1612.48853901 eV
  | Free-atom electrostatic energy:        -179.05923815 Ha       -4872.44977746 eV
  | Hartree energy correction     :          -7.68068147 Ha        -209.00197666 eV
  | van der Waals energy corr.    :           0.00000000 Ha           0.00000000 eV
  | Entropy correction            :           0.00000000 Ha           0.00000000 eV
  | ---------------------------
  | Total energy                  :        -382.75741319 Ha      -10415.35914062 eV
  | Total energy, T -> 0          :        -382.75741319 Ha      -10415.35914062 eV  <-- do not rely on this value for anything but (periodic) metals
  | Electronic free energy        :        -382.75741319 Ha      -10415.35914062 eV

  Derived energy quantities:
  | Kinetic energy                :         383.34368578 Ha       10431.31242950 eV
  | Electrostatic energy          :        -719.74194757 Ha      -19585.17487604 eV
  | Energy correction for multipole
  | error in Hartree potential    :          -0.00046589 Ha          -0.01267740 eV
  | Sum of eigenvalues per atom                           :        -378.99328210 eV
  | Total energy (T->0) per atom                          :        -694.35727604 eV  <-- do not rely on this value for anything but (periodic) metals
  | Electronic free energy per atom                       :        -694.35727604 eV

  Self-consistency convergence accuracy:
  | Change of charge density      : 0.5039E+00
  | Change of sum of eigenvalues  : 0.1472E+03 eV
  | Change of total energy        : 0.4583E+01 eV

  End self-consistency iteration #     2       :  max(cpu_time)    wall_clock(cpu1)
  | Time for this iteration                    :        2.009 s           2.009 s
  | Charge density update                      :        0.654 s           0.653 s
  | Density mixing                             :        0.005 s           0.006 s
  | Hartree multipole update                   :        0.004 s           0.005 s
  | Hartree multipole summation                :        0.323 s           0.323 s
  | Integration                                :        0.967 s           0.967 s
  | Solution of K.-S. eqns.                    :        0.053 s           0.053 s
  | Total energy evaluation                    :        0.000 s           0.001 s
------------------------------------------------------------

------------------------------------------------------------
          Begin self-consistency iteration #    3

  Date     :  20150727, Time     :  120806.342
------------------------------------------------------------
  Evaluating new KS density.
  Integration grid: deviation in total charge (<rho> - N_e) =   0.000000E+00
  Pulay mixing of updated and previous charge densities.

  Evaluating partitioned Hartree potential by multipole expansion.
  | Analytical far-field extrapolation by fixed multipoles:
  | Hartree multipole sum: apparent total charge =  -0.727611E-05
  Summing up the Hartree potential.
  Time summed over all CPUs for potential: real work        2.567 s, elapsed        2.578 s
  | RMS charge density error from multipole expansion :   0.129538E-01

  Integrating Hamiltonian matrix: batch-based integration.
  Time summed over all CPUs for integration: real work        7.427 s, elapsed        7.733 s

  Updating Kohn-Sham eigenvalues, eigenvectors, occupation numbers, and Fermi level.
  Solving generalized eigenproblem
  Updating Kohn-Sham eigenvalues and eigenfunctions.
  Solving real generalised eigenvalue problem by standard LAPACK (fast)
  Determining occupation numbers for Kohn-Sham eigenstates.
  | Chemical potential (Fermi level) in eV                 : -.31236993E+01
  | Error in electron count due to remaining E_F inaccuracy: 0.00000000E+00
  | Maximum occupation number of highest empty state:  0.00E+00

  Highest occupied state (VBM) at     -6.54453806 eV
  | Occupation number:      2.00000000

  Lowest unoccupied state (CBM) at    -2.04169929 eV
  | Occupation number:      0.00000000

  Overall HOMO-LUMO gap:      4.50283878 eV.

  Total energy components:
  | Sum of eigenvalues            :        -209.14523860 Ha       -5691.13150389 eV
  | XC energy correction          :         -46.33420321 Ha       -1260.81781904 eV
  | XC potential correction       :          59.21998070 Ha        1611.45766493 eV
  | Free-atom electrostatic energy:        -179.05923815 Ha       -4872.44977746 eV
  | Hartree energy correction     :          -7.43380783 Ha        -202.28420319 eV
  | van der Waals energy corr.    :           0.00000000 Ha           0.00000000 eV
  | Entropy correction            :           0.00000000 Ha           0.00000000 eV
  | ---------------------------
  | Total energy                  :        -382.75250709 Ha      -10415.22563866 eV
  | Total energy, T -> 0          :        -382.75250709 Ha      -10415.22563866 eV  <-- do not rely on this value for anything but (periodic) metals
  | Electronic free energy        :        -382.75250709 Ha      -10415.22563866 eV

  Derived energy quantities:
  | Kinetic energy                :         381.30994432 Ha       10375.97150859 eV
  | Electrostatic energy          :        -717.72824820 Ha      -19530.37932821 eV
  | Energy correction for multipole
  | error in Hartree potential    :          -0.00448621 Ha          -0.12207609 eV
  | Sum of eigenvalues per atom                           :        -379.40876693 eV
  | Total energy (T->0) per atom                          :        -694.34837591 eV  <-- do not rely on this value for anything but (periodic) metals
  | Electronic free energy per atom                       :        -694.34837591 eV

  Self-consistency convergence accuracy:
  | Change of charge density      : 0.2565E+00
  | Change of sum of eigenvalues  : -.6232E+01 eV
  | Change of total energy        : 0.1335E+00 eV

  End self-consistency iteration #     3       :  max(cpu_time)    wall_clock(cpu1)
  | Time for this iteration                    :        2.006 s           2.006 s
  | Charge density update                      :        0.648 s           0.648 s
  | Density mixing                             :        0.007 s           0.007 s
  | Hartree multipole update                   :        0.005 s           0.005 s
  | Hartree multipole summation                :        0.323 s           0.323 s
  | Integration                                :        0.968 s           0.968 s
  | Solution of K.-S. eqns.                    :        0.053 s           0.053 s
  | Total energy evaluation                    :        0.001 s           0.001 s
------------------------------------------------------------

------------------------------------------------------------
          Begin self-consistency iteration #    4

  Date     :  20150727, Time     :  120808.348
------------------------------------------------------------
  Evaluating new KS density.
  Integration grid: deviation in total charge (<rho> - N_e) =   2.842171E-14
  Pulay mixing of updated and previous charge densities.

  Evaluating partitioned Hartree potential by multipole expansion.
  | Analytical far-field extrapolation by fixed multipoles:
  | Hartree multipole sum: apparent total charge =  -0.894580E-05
  Summing up the Hartree potential.
  Time summed over all CPUs for potential: real work        2.566 s, elapsed        2.577 s
  | RMS charge density error from multipole expansion :   0.167800E-01

  Integrating Hamiltonian matrix: batch-based integration.
  Time summed over all CPUs for integration: real work        7.409 s, elapsed        7.687 s

  Updating Kohn-Sham eigenvalues, eigenvectors, occupation numbers, and Fermi level.
  Solving generalized eigenproblem
  Updating Kohn-Sham eigenvalues and eigenfunctions.
  Solving real generalised eigenvalue problem by standard LAPACK (fast)
  Determining occupation numbers for Kohn-Sham eigenstates.
  | Chemical potential (Fermi level) in eV                 : -.27316858E+01
  | Error in electron count due to remaining E_F inaccuracy: 0.00000000E+00
  | Maximum occupation number of highest empty state:  0.00E+00

  Highest occupied state (VBM) at     -5.44202368 eV
  | Occupation number:      2.00000000

  Lowest unoccupied state (CBM) at    -1.92523503 eV
  | Occupation number:      0.00000000

  Overall HOMO-LUMO gap:      3.51678865 eV.

  Total energy components:
  | Sum of eigenvalues            :        -207.42235947 Ha       -5644.24957743 eV
  | XC energy correction          :         -46.54141489 Ha       -1266.45633567 eV
  | XC potential correction       :          59.48987744 Ha        1618.80192875 eV
  | Free-atom electrostatic energy:        -179.05923815 Ha       -4872.44977746 eV
  | Hartree energy correction     :          -9.20756689 Ha        -250.55064296 eV
  | van der Waals energy corr.    :           0.00000000 Ha           0.00000000 eV
  | Entropy correction            :           0.00000000 Ha           0.00000000 eV
  | ---------------------------
  | Total energy                  :        -382.74070196 Ha      -10414.90440477 eV
  | Total energy, T -> 0          :        -382.74070196 Ha      -10414.90440477 eV  <-- do not rely on this value for anything but (periodic) metals
  | Electronic free energy        :        -382.74070196 Ha      -10414.90440477 eV

  Derived energy quantities:
  | Kinetic energy                :         381.53581965 Ha       10382.11788915 eV
  | Electrostatic energy          :        -717.73510673 Ha      -19530.56595825 eV
  | Energy correction for multipole
  | error in Hartree potential    :          -0.00609351 Ha          -0.16581298 eV
  | Sum of eigenvalues per atom                           :        -376.28330516 eV
  | Total energy (T->0) per atom                          :        -694.32696032 eV  <-- do not rely on this value for anything but (periodic) metals
  | Electronic free energy per atom                       :        -694.32696032 eV

  Self-consistency convergence accuracy:
  | Change of charge density      : 0.1403E+00
  | Change of sum of eigenvalues  : 0.4688E+02 eV
  | Change of total energy        : 0.3212E+00 eV

  End self-consistency iteration #     4       :  max(cpu_time)    wall_clock(cpu1)
  | Time for this iteration                    :        2.002 s           2.002 s
  | Charge density update                      :        0.649 s           0.649 s
  | Density mixing                             :        0.008 s           0.008 s
  | Hartree multipole update                   :        0.005 s           0.005 s
  | Hartree multipole summation                :        0.323 s           0.323 s
  | Integration                                :        0.963 s           0.962 s
  | Solution of K.-S. eqns.                    :        0.053 s           0.053 s
  | Total energy evaluation                    :        0.000 s           0.000 s
------------------------------------------------------------

------------------------------------------------------------
          Begin self-consistency iteration #    5

  Date     :  20150727, Time     :  120810.350
------------------------------------------------------------
  Evaluating new KS density.
  Integration grid: deviation in total charge (<rho> - N_e) =   0.000000E+00
  Pulay mixing of updated and previous charge densities.

  Evaluating partitioned Hartree potential by multipole expansion.
  | Analytical far-field extrapolation by fixed multipoles:
  | Hartree multipole sum: apparent total charge =  -0.900887E-05
  Summing up the Hartree potential.
  Time summed over all CPUs for potential: real work        2.566 s, elapsed        2.577 s
  | RMS charge density error from multipole expansion :   0.173750E-01

  Integrating Hamiltonian matrix: batch-based integration.
  Time summed over all CPUs for integration: real work        7.405 s, elapsed        7.699 s

  Updating Kohn-Sham eigenvalues, eigenvectors, occupation numbers, and Fermi level.
  Solving generalized eigenproblem
  Updating Kohn-Sham eigenvalues and eigenfunctions.
  Solving real generalised eigenvalue problem by standard LAPACK (fast)
  Determining occupation numbers for Kohn-Sham eigenstates.
  | Chemical potential (Fermi level) in eV                 : -.27875147E+01
  | Error in electron count due to remaining E_F inaccuracy: 0.00000000E+00
  | Maximum occupation number of highest empty state:  0.00E+00

  Highest occupied state (VBM) at     -5.28535598 eV
  | Occupation number:      2.00000000

  Lowest unoccupied state (CBM) at    -1.91290183 eV
  | Occupation number:      0.00000000

  Overall HOMO-LUMO gap:      3.37245415 eV.

  Total energy components:
  | Sum of eigenvalues            :        -207.38704185 Ha       -5643.28853621 eV
  | XC energy correction          :         -46.54991500 Ha       -1266.68763541 eV
  | XC potential correction       :          59.50044061 Ha        1619.08936729 eV
  | Free-atom electrostatic energy:        -179.05923815 Ha       -4872.44977746 eV
  | Hartree energy correction     :          -9.24451426 Ha        -251.55603195 eV
  | van der Waals energy corr.    :           0.00000000 Ha           0.00000000 eV
  | Entropy correction            :           0.00000000 Ha           0.00000000 eV
  | ---------------------------
  | Total energy                  :        -382.74026865 Ha      -10414.89261375 eV
  | Total energy, T -> 0          :        -382.74026865 Ha      -10414.89261375 eV  <-- do not rely on this value for anything but (periodic) metals
  | Electronic free energy        :        -382.74026865 Ha      -10414.89261375 eV

  Derived energy quantities:
  | Kinetic energy                :         381.51716151 Ha       10381.61017525 eV
  | Electrostatic energy          :        -717.70751516 Ha      -19529.81515358 eV
  | Energy correction for multipole
  | error in Hartree potential    :          -0.00627308 Ha          -0.17069923 eV
  | Sum of eigenvalues per atom                           :        -376.21923575 eV
  | Total energy (T->0) per atom                          :        -694.32617425 eV  <-- do not rely on this value for anything but (periodic) metals
  | Electronic free energy per atom                       :        -694.32617425 eV

  Self-consistency convergence accuracy:
  | Change of charge density      : 0.3655E-01
  | Change of sum of eigenvalues  : 0.9610E+00 eV
  | Change of total energy        : 0.1179E-01 eV

  End self-consistency iteration #     5       :  max(cpu_time)    wall_clock(cpu1)
  | Time for this iteration                    :        2.006 s           2.006 s
  | Charge density update                      :        0.650 s           0.649 s
  | Density mixing                             :        0.010 s           0.010 s
  | Hartree multipole update                   :        0.004 s           0.005 s
  | Hartree multipole summation                :        0.322 s           0.323 s
  | Integration                                :        0.964 s           0.964 s
  | Solution of K.-S. eqns.                    :        0.053 s           0.053 s
  | Total energy evaluation                    :        0.000 s           0.000 s
------------------------------------------------------------

------------------------------------------------------------
          Begin self-consistency iteration #    6

  Date     :  20150727, Time     :  120812.356
------------------------------------------------------------
  Evaluating new KS density.
  Integration grid: deviation in total charge (<rho> - N_e) =   0.000000E+00
  Pulay mixing of updated and previous charge densities.

  Evaluating partitioned Hartree potential by multipole expansion.
  | Analytical far-field extrapolation by fixed multipoles:
  | Hartree multipole sum: apparent total charge =  -0.905881E-05
  Summing up the Hartree potential.
  Time summed over all CPUs for potential: real work        2.566 s, elapsed        2.577 s
  | RMS charge density error from multipole expansion :   0.175872E-01

  Integrating Hamiltonian matrix: batch-based integration.
  Time summed over all CPUs for integration: real work        7.401 s, elapsed        7.690 s

  Updating Kohn-Sham eigenvalues, eigenvectors, occupation numbers, and Fermi level.
  Solving generalized eigenproblem
  Updating Kohn-Sham eigenvalues and eigenfunctions.
  Solving real generalised eigenvalue problem by standard LAPACK (fast)
  Determining occupation numbers for Kohn-Sham eigenstates.
  | Chemical potential (Fermi level) in eV                 : -.27764028E+01
  | Error in electron count due to remaining E_F inaccuracy: 0.00000000E+00
  | Maximum occupation number of highest empty state:  0.00E+00

  Highest occupied state (VBM) at     -5.26444983 eV
  | Occupation number:      2.00000000

  Lowest unoccupied state (CBM) at    -1.90722892 eV
  | Occupation number:      0.00000000

  Overall HOMO-LUMO gap:      3.35722091 eV.

  Total energy components:
  | Sum of eigenvalues            :        -207.33393902 Ha       -5641.84353463 eV
  | XC energy correction          :         -46.55704733 Ha       -1266.88171618 eV
  | XC potential correction       :          59.50964743 Ha        1619.33989767 eV
  | Free-atom electrostatic energy:        -179.05923815 Ha       -4872.44977746 eV
  | Hartree energy correction     :          -9.29974813 Ha        -253.05902208 eV
  | van der Waals energy corr.    :           0.00000000 Ha           0.00000000 eV
  | Entropy correction            :           0.00000000 Ha           0.00000000 eV
  | ---------------------------
  | Total energy                  :        -382.74032520 Ha      -10414.89415268 eV
  | Total energy, T -> 0          :        -382.74032520 Ha      -10414.89415268 eV  <-- do not rely on this value for anything but (periodic) metals
  | Electronic free energy        :        -382.74032520 Ha      -10414.89415268 eV

  Derived energy quantities:
  | Kinetic energy                :         381.51556122 Ha       10381.56662922 eV
  | Electrostatic energy          :        -717.69883909 Ha      -19529.57906572 eV
  | Energy correction for multipole
  | error in Hartree potential    :          -0.00636026 Ha          -0.17307140 eV
  | Sum of eigenvalues per atom                           :        -376.12290231 eV
  | Total energy (T->0) per atom                          :        -694.32627685 eV  <-- do not rely on this value for anything but (periodic) metals
  | Electronic free energy per atom                       :        -694.32627685 eV

  Self-consistency convergence accuracy:
  | Change of charge density      : 0.1036E-01
  | Change of sum of eigenvalues  : 0.1445E+01 eV
  | Change of total energy        : -.1539E-02 eV

  End self-consistency iteration #     6       :  max(cpu_time)    wall_clock(cpu1)
  | Time for this iteration                    :        2.008 s           2.007 s
  | Charge density update                      :        0.651 s           0.650 s
  | Density mixing                             :        0.011 s           0.011 s
  | Hartree multipole update                   :        0.005 s           0.005 s
  | Hartree multipole summation                :        0.323 s           0.323 s
  | Integration                                :        0.963 s           0.963 s
  | Solution of K.-S. eqns.                    :        0.053 s           0.053 s
  | Total energy evaluation                    :        0.000 s           0.001 s
------------------------------------------------------------

------------------------------------------------------------
          Begin self-consistency iteration #    7

  Date     :  20150727, Time     :  120814.363
------------------------------------------------------------
  Evaluating new KS density.
  Integration grid: deviation in total charge (<rho> - N_e) =   2.131628E-14
  Pulay mixing of updated and previous charge densities.

  Evaluating partitioned Hartree potential by multipole expansion.
  | Analytical far-field extrapolation by fixed multipoles:
  | Hartree multipole sum: apparent total charge =  -0.889892E-05
  Summing up the Hartree potential.
  Time summed over all CPUs for potential: real work        2.566 s, elapsed        2.577 s
  | RMS charge density error from multipole expansion :   0.176303E-01

  Integrating Hamiltonian matrix: batch-based integration.
  Time summed over all CPUs for integration: real work        7.404 s, elapsed        7.724 s

  Updating Kohn-Sham eigenvalues, eigenvectors, occupation numbers, and Fermi level.
  Solving generalized eigenproblem
  Updating Kohn-Sham eigenvalues and eigenfunctions.
  Solving real generalised eigenvalue problem by standard LAPACK (fast)
  Determining occupation numbers for Kohn-Sham eigenstates.
  | Chemical potential (Fermi level) in eV                 : -.28054639E+01
  | Error in electron count due to remaining E_F inaccuracy: 0.00000000E+00
  | Maximum occupation number of highest empty state:  0.00E+00

  Highest occupied state (VBM) at     -5.36068145 eV
  | Occupation number:      2.00000000

  Lowest unoccupied state (CBM) at    -1.91400000 eV
  | Occupation number:      0.00000000

  Overall HOMO-LUMO gap:      3.44668145 eV.

  Total energy components:
  | Sum of eigenvalues            :        -207.47403050 Ha       -5645.65561778 eV
  | XC energy correction          :         -46.54330153 Ha       -1266.50767394 eV
  | XC potential correction       :          59.49110360 Ha        1618.83529448 eV
  | Free-atom electrostatic energy:        -179.05923815 Ha       -4872.44977746 eV
  | Hartree energy correction     :          -9.15476671 Ha        -249.11387693 eV
  | van der Waals energy corr.    :           0.00000000 Ha           0.00000000 eV
  | Entropy correction            :           0.00000000 Ha           0.00000000 eV
  | ---------------------------
  | Total energy                  :        -382.74023329 Ha      -10414.89165163 eV
  | Total energy, T -> 0          :        -382.74023329 Ha      -10414.89165163 eV  <-- do not rely on this value for anything but (periodic) metals
  | Electronic free energy        :        -382.74023329 Ha      -10414.89165163 eV

  Derived energy quantities:
  | Kinetic energy                :         381.57531002 Ha       10383.19247670 eV
  | Electrostatic energy          :        -717.77224178 Ha      -19531.57645440 eV
  | Energy correction for multipole
  | error in Hartree potential    :          -0.00622558 Ha          -0.16940657 eV
  | Sum of eigenvalues per atom                           :        -376.37704119 eV
  | Total energy (T->0) per atom                          :        -694.32611011 eV  <-- do not rely on this value for anything but (periodic) metals
  | Electronic free energy per atom                       :        -694.32611011 eV

  Self-consistency convergence accuracy:
  | Change of charge density      : 0.1013E-01
  | Change of sum of eigenvalues  : -.3812E+01 eV
  | Change of total energy        : 0.2501E-02 eV

  End self-consistency iteration #     7       :  max(cpu_time)    wall_clock(cpu1)
  | Time for this iteration                    :        2.013 s           2.013 s
  | Charge density update                      :        0.651 s           0.651 s
  | Density mixing                             :        0.012 s           0.012 s
  | Hartree multipole update                   :        0.005 s           0.005 s
  | Hartree multipole summation                :        0.323 s           0.323 s
  | Integration                                :        0.967 s           0.967 s
  | Solution of K.-S. eqns.                    :        0.054 s           0.053 s
  | Total energy evaluation                    :        0.000 s           0.000 s
------------------------------------------------------------

------------------------------------------------------------
          Begin self-consistency iteration #    8

  Date     :  20150727, Time     :  120816.376
------------------------------------------------------------
  Evaluating new KS density.
  Integration grid: deviation in total charge (<rho> - N_e) =  -2.131628E-14
  Pulay mixing of updated and previous charge densities.

  Evaluating partitioned Hartree potential by multipole expansion.
  | Analytical far-field extrapolation by fixed multipoles:
  | Hartree multipole sum: apparent total charge =  -0.890370E-05
  Summing up the Hartree potential.
  Time summed over all CPUs for potential: real work        2.566 s, elapsed        2.577 s
  | RMS charge density error from multipole expansion :   0.176695E-01

  Integrating Hamiltonian matrix: batch-based integration.
  Time summed over all CPUs for integration: real work        7.407 s, elapsed        7.711 s

  Updating Kohn-Sham eigenvalues, eigenvectors, occupation numbers, and Fermi level.
  Solving generalized eigenproblem
  Updating Kohn-Sham eigenvalues and eigenfunctions.
  Solving real generalised eigenvalue problem by standard LAPACK (fast)
  Determining occupation numbers for Kohn-Sham eigenstates.
  | Chemical potential (Fermi level) in eV                 : -.28049599E+01
  | Error in electron count due to remaining E_F inaccuracy: 0.00000000E+00
  | Maximum occupation number of highest empty state:  0.00E+00

  Highest occupied state (VBM) at     -5.35054158 eV
  | Occupation number:      2.00000000

  Lowest unoccupied state (CBM) at    -1.91448239 eV
  | Occupation number:      0.00000000

  Overall HOMO-LUMO gap:      3.43605919 eV.

  Total energy components:
  | Sum of eigenvalues            :        -207.46559891 Ha       -5645.42618237 eV
  | XC energy correction          :         -46.54428039 Ha       -1266.53431001 eV
  | XC potential correction       :          59.49235562 Ha        1618.86936368 eV
  | Free-atom electrostatic energy:        -179.05923815 Ha       -4872.44977746 eV
  | Hartree energy correction     :          -9.16347189 Ha        -249.35075703 eV
  | van der Waals energy corr.    :           0.00000000 Ha           0.00000000 eV
  | Entropy correction            :           0.00000000 Ha           0.00000000 eV
  | ---------------------------
  | Total energy                  :        -382.74023371 Ha      -10414.89166320 eV
  | Total energy, T -> 0          :        -382.74023371 Ha      -10414.89166320 eV  <-- do not rely on this value for anything but (periodic) metals
  | Electronic free energy        :        -382.74023371 Ha      -10414.89166320 eV

  Derived energy quantities:
  | Kinetic energy                :         381.57715109 Ha       10383.24257461 eV
  | Electrostatic energy          :        -717.77310441 Ha      -19531.59992781 eV
  | Energy correction for multipole
  | error in Hartree potential    :          -0.00624214 Ha          -0.16985731 eV
  | Sum of eigenvalues per atom                           :        -376.36174549 eV
  | Total energy (T->0) per atom                          :        -694.32611088 eV  <-- do not rely on this value for anything but (periodic) metals
  | Electronic free energy per atom                       :        -694.32611088 eV

  Self-consistency convergence accuracy:
  | Change of charge density      : 0.1579E-02
  | Change of sum of eigenvalues  : 0.2294E+00 eV
  | Change of total energy        : -.1157E-04 eV

  End self-consistency iteration #     8       :  max(cpu_time)    wall_clock(cpu1)
  | Time for this iteration                    :        2.012 s           2.012 s
  | Charge density update                      :        0.650 s           0.649 s
  | Density mixing                             :        0.014 s           0.014 s
  | Hartree multipole update                   :        0.005 s           0.005 s
  | Hartree multipole summation                :        0.323 s           0.323 s
  | Integration                                :        0.965 s           0.966 s
  | Solution of K.-S. eqns.                    :        0.054 s           0.053 s
  | Total energy evaluation                    :        0.000 s           0.000 s
------------------------------------------------------------

------------------------------------------------------------
          Begin self-consistency iteration #    9

  Date     :  20150727, Time     :  120818.388
------------------------------------------------------------
  Evaluating new KS density.
  Integration grid: deviation in total charge (<rho> - N_e) =   2.131628E-14
  Pulay mixing of updated and previous charge densities.

  Evaluating partitioned Hartree potential by multipole expansion.
  | Analytical far-field extrapolation by fixed multipoles:
  | Hartree multipole sum: apparent total charge =  -0.889843E-05
  Summing up the Hartree potential.
  Time summed over all CPUs for potential: real work        2.566 s, elapsed        2.575 s
  | RMS charge density error from multipole expansion :   0.176647E-01

  Integrating Hamiltonian matrix: batch-based integration.
  Time summed over all CPUs for integration: real work        7.406 s, elapsed        7.712 s

  Updating Kohn-Sham eigenvalues, eigenvectors, occupation numbers, and Fermi level.
  Solving generalized eigenproblem
  Updating Kohn-Sham eigenvalues and eigenfunctions.
  Solving real generalised eigenvalue problem by standard LAPACK (fast)
  Determining occupation numbers for Kohn-Sham eigenstates.
  | Chemical potential (Fermi level) in eV                 : -.28056117E+01
  | Error in electron count due to remaining E_F inaccuracy: 0.00000000E+00
  | Maximum occupation number of highest empty state:  0.00E+00

  Highest occupied state (VBM) at     -5.35384392 eV
  | Occupation number:      2.00000000

  Lowest unoccupied state (CBM) at    -1.91538401 eV
  | Occupation number:      0.00000000

  Overall HOMO-LUMO gap:      3.43845991 eV.

  Total energy components:
  | Sum of eigenvalues            :        -207.46589323 Ha       -5645.43419122 eV
  | XC energy correction          :         -46.54409180 Ha       -1266.52917809 eV
  | XC potential correction       :          59.49210512 Ha        1618.86254709 eV
  | Free-atom electrostatic energy:        -179.05923815 Ha       -4872.44977746 eV
  | Hartree energy correction     :          -9.16311426 Ha        -249.34102541 eV
  | van der Waals energy corr.    :           0.00000000 Ha           0.00000000 eV
  | Entropy correction            :           0.00000000 Ha           0.00000000 eV
  | ---------------------------
  | Total energy                  :        -382.74023231 Ha      -10414.89162510 eV
  | Total energy, T -> 0          :        -382.74023231 Ha      -10414.89162510 eV  <-- do not rely on this value for anything but (periodic) metals
  | Electronic free energy        :        -382.74023231 Ha      -10414.89162510 eV

  Derived energy quantities:
  | Kinetic energy                :         381.58048126 Ha       10383.33319338 eV
  | Electrostatic energy          :        -717.77662178 Ha      -19531.69564039 eV
  | Energy correction for multipole
[...]
   ----------------------------------------------------------------
   Total forces(   4)            : -.701939E+00 -.189863E+01 -.509366E+00
  atom #    5
   Hellmann-Feynman + Multipole  : -.311574E+00 0.580349E+00 0.848498E+00
   Pulay + GGA                   : 0.659875E-02 0.387735E-01 0.862076E-01
   Van der Waals               : -.806584E-04 -.851731E-03 -.204164E-02
   ----------------------------------------------------------------
   Total forces(   5)            : -.305056E+00 0.618270E+00 0.932663E+00
  atom #    6
   Hellmann-Feynman + Multipole  : 0.747892E+00 0.747854E+00 0.140092E+00
   Pulay + GGA                   : -.105356E+00 -.469366E-01 0.648103E-01
   Van der Waals               : 0.261587E-02 0.454884E-02 0.205551E-03
   ----------------------------------------------------------------
   Total forces(   6)            : 0.645152E+00 0.705466E+00 0.205108E+00
  atom #    7
   Hellmann-Feynman + Multipole  : 0.495932E+01 -.642811E+01 -.784618E+01
   Pulay + GGA                   : -.649717E+01 0.823340E+01 0.100017E+02
   Van der Waals               : -.168940E-03 0.234383E-02 -.654349E-02
   ----------------------------------------------------------------
   Total forces(   7)            : -.153802E+01 0.180763E+01 0.214896E+01
  atom #    8
   Hellmann-Feynman + Multipole  : -.383529E+00 0.278369E+00 -.220493E+01
   Pulay + GGA                   : 0.128682E-01 0.473743E-02 0.121540E+00
   Van der Waals               : 0.214204E-03 -.586642E-03 -.253346E-02
   ----------------------------------------------------------------
   Total forces(   8)            : -.370446E+00 0.282519E+00 -.208593E+01
  atom #    9
   Hellmann-Feynman + Multipole  : 0.178431E+01 -.183018E+01 0.458660E+00
   Pulay + GGA                   : -.854802E-01 0.868414E-01 -.316679E-02
   Van der Waals               : -.514698E-03 0.814765E-03 -.394230E-02
   ----------------------------------------------------------------
   Total forces(   9)            : 0.169832E+01 -.174252E+01 0.451551E+00
  atom #   10
   Hellmann-Feynman + Multipole  : -.892487E+00 -.435126E+01 -.147686E+02
   Pulay + GGA                   : 0.235827E+01 0.508810E+01 0.127570E+02
   Van der Waals               : -.251719E-02 -.770530E-02 -.219204E-02
   ----------------------------------------------------------------
   Total forces(  10)            : 0.146326E+01 0.729138E+00 -.201382E+01
  atom #   11
   Hellmann-Feynman + Multipole  : -.453794E+00 -.312369E+00 0.192479E+00
   Pulay + GGA                   : 0.966577E-01 0.532635E-01 0.556678E-01
   Van der Waals               : -.496673E-02 -.167321E-02 0.784851E-03
   ----------------------------------------------------------------
   Total forces(  11)            : -.362103E+00 -.260779E+00 0.248931E+00
  atom #   12
   Hellmann-Feynman + Multipole  : -.580628E+00 -.366044E+00 0.141250E+01
   Pulay + GGA                   : -.326821E-01 -.186086E-01 0.700957E-01
   Van der Waals               : 0.254572E-02 -.312302E-02 -.330126E-02
   ----------------------------------------------------------------
   Total forces(  12)            : -.610765E+00 -.387775E+00 0.147930E+01
  atom #   13
   Hellmann-Feynman + Multipole  : -.135274E+02 -.504679E+01 0.359400E+00
   Pulay + GGA                   : 0.142515E+02 0.672266E+01 -.112490E+01
   Van der Waals               : -.270907E-02 -.654307E-02 0.148931E-02
   ----------------------------------------------------------------
   Total forces(  13)            : 0.721425E+00 0.166932E+01 -.764016E+00
  atom #   14
   Hellmann-Feynman + Multipole  : -.140700E+00 -.221329E+00 0.761935E-01
   Pulay + GGA                   : 0.794038E-01 -.286901E-01 0.219621E-01
   Van der Waals               : -.423061E-02 -.629500E-02 0.105526E-02
   ----------------------------------------------------------------
   Total forces(  14)            : -.655271E-01 -.256314E+00 0.992108E-01
  atom #   15
   Hellmann-Feynman + Multipole  : -.810797E+00 -.154969E+01 0.712885E+00
   Pulay + GGA                   : 0.508699E-01 0.109146E+00 -.540763E-01
   Van der Waals               : 0.194951E-02 -.404272E-02 0.298091E-02
   ----------------------------------------------------------------
   Total forces(  15)            : -.757978E+00 -.144458E+01 0.661789E+00
  Timings for vdw_correction_hirshfeld (Tkatchenko-Scheffler 2009):
  | CPU time:        5.432 s, Wall clock time:        5.435 s.
  Removing unitary transformations (pure translations, rotations) from forces on atoms.
  Atomic forces before filtering:
  | Net force on center of mass :  0.630274E-02 -.190109E-02 0.788081E-02 eV/A
  | Net torque on center of mass:  -.952512E-03 -.659365E-02 -.835801E-02 eV
  Atomic forces after filtering:
  | Net force on center of mass :  -.802828E-15 -.178406E-15 0.892031E-16 eV/A
  | Net torque on center of mass:  -.679741E-14 0.103849E-14 0.000000E+00 eV
 
  Energy and forces in a compact form:
  | Total energy uncorrected      :         -0.104149676451523E+05 eV
  | Total energy corrected        :         -0.104149676451523E+05 eV  <-- do not rely on this value for anything but (periodic) metals
  | Electronic free energy        :         -0.104149676451523E+05 eV
  Total atomic forces (unitary forces cleaned) [eV/Ang]:
  |   1         -0.761107677645098E-01          0.375483963015355E+01         -0.217533759850971E+01
  |   2          0.232082649443450E+01         -0.337239140854532E+01          0.149159503013636E+01
  |   3         -0.205617318811850E+01         -0.205607632635944E+00         -0.164395841101791E+00
  |   4         -0.702002942786692E+00         -0.189864011618348E+01         -0.509845021737553E+00
  |   5         -0.305142540463146E+00          0.618272736089294E+00          0.932177839273657E+00
  |   6          0.645184437999533E+00          0.705343482383439E+00          0.204716122705352E+00
  |   7         -0.153822075869982E+01          0.180767692245312E+01          0.214846065494405E+01
  |   8         -0.370510330513748E+00          0.282552563682106E+00         -0.208644715648506E+01
  |   9          0.169800459587918E+01         -0.174255995270938E+01          0.451161817655817E+00
  |  10          0.146273917920511E+01          0.729477999269698E+00         -0.201452816755031E+01
  |  11         -0.362652927226323E+00         -0.260352633193055E+00          0.248144136149531E+00
  |  12         -0.611164053433390E+00         -0.387529583522287E+00          0.147865061797455E+01
  |  13          0.720549895831850E+00          0.166943215789612E+01         -0.764417153375204E+00
  |  14         -0.663113671272731E-01         -0.256102086046897E+00          0.986912162736127E-01
  |  15         -0.759015727216763E+00         -0.144441207909097E+01          0.661373503646689E+00
 
  ------------------------------------ 
  Start decomposition of the XC Energy 
  ------------------------------------ 
  Hartree-Fock part   :          0.000000000 Ha              0.000000000 eV
  ------------------------------------ 
  X Energy            :        -44.913158980 Ha          -1222.149238119 eV
  C Energy GGA        :         -1.630782565 Ha            -44.375851417 eV
  Total XC Energy     :        -46.543941545 Ha          -1266.525089537 eV
  LDA X and C from self-consistent density 
  X Energy LDA        :        -40.464619772 Ha          -1101.098327275 eV
  C Energy LDA        :         -3.296643884 Ha            -89.706244289 eV
  ------------------------------------ 
  End decomposition of the XC Energy 
  ------------------------------------ 
  Performing Hirshfeld analysis of fragment charges and moments.
  ----------------------------------------------------------------------
  | Atom     1: O
  |   Hirshfeld charge        :     -0.28067790
  |   Free atom volume        :     23.95238533
  |   Hirshfeld volume        :     22.64288671
  |   Hirshfeld dipole vector :      0.02024136       0.04266166       0.02609456
  |   Hirshfeld dipole moment :      0.05395049
  |   Hirshfeld second moments:      0.05190431      -0.01993433       0.01986658
  |                                 -0.01993433      -0.00706160      -0.03355474
  |                                  0.01986658      -0.03355474      -0.05339220
  ----------------------------------------------------------------------
  | Atom     2: H
  |   Hirshfeld charge        :      0.13624244
  |   Free atom volume        :     10.44207651
  |   Hirshfeld volume        :      7.23415319
  |   Hirshfeld dipole vector :     -0.06378878       0.08455763      -0.03187492
  |   Hirshfeld dipole moment :      0.11061199
  |   Hirshfeld second moments:      0.11923508       0.00642093       0.00614790
  |                                  0.00642093       0.07178871      -0.00673100
  |                                  0.00614790      -0.00673100       0.08637242
  ----------------------------------------------------------------------
  | Atom     3: H
  |   Hirshfeld charge        :      0.12816709
  |   Free atom volume        :     10.44207651
  |   Hirshfeld volume        :      7.27043390
  |   Hirshfeld dipole vector :      0.11170243       0.01906143       0.01538253
  |   Hirshfeld dipole moment :      0.11435643
  |   Hirshfeld second moments:      0.09931992      -0.01670874      -0.00320130
  |                                 -0.01670874       0.09705268      -0.01363013
  |                                 -0.00320130      -0.01363013       0.08081429
  ----------------------------------------------------------------------
  | Atom     4: O
  |   Hirshfeld charge        :     -0.30780082
  |   Free atom volume        :     23.95238533
  |   Hirshfeld volume        :     22.20155794
  |   Hirshfeld dipole vector :     -0.02862986       0.02127741       0.01499223
  |   Hirshfeld dipole moment :      0.03869320
  |   Hirshfeld second moments:      0.02102277       0.05439675      -0.01137253
  |                                  0.05439675       0.01445030       0.01809948
  |                                 -0.01137253       0.01809948      -0.00650907
  ----------------------------------------------------------------------
  | Atom     5: H
  |   Hirshfeld charge        :      0.07578014
  |   Free atom volume        :     10.44207651
  |   Hirshfeld volume        :      7.80642368
  |   Hirshfeld dipole vector :      0.01602412       0.04420026       0.03242046
  |   Hirshfeld dipole moment :      0.05710973
  |   Hirshfeld second moments:      0.08986644      -0.00065502      -0.01151368
  |                                 -0.00065502       0.04192281      -0.01937024
  |                                 -0.01151368      -0.01937024       0.07404738
  ----------------------------------------------------------------------
  | Atom     6: H
  |   Hirshfeld charge        :      0.12930673
  |   Free atom volume        :     10.44207651
  |   Hirshfeld volume        :      6.68134828
  |   Hirshfeld dipole vector :     -0.10276706      -0.06198111       0.02106183
  |   Hirshfeld dipole moment :      0.12184551
  |   Hirshfeld second moments:      0.09636808       0.01251687      -0.00008726
  |                                  0.01251687       0.11077206       0.01237026
  |                                 -0.00008726       0.01237026       0.10252771
  ----------------------------------------------------------------------
  | Atom     7: O
  |   Hirshfeld charge        :     -0.14737574
  |   Free atom volume        :     23.95238533
  |   Hirshfeld volume        :     19.62556158
  |   Hirshfeld dipole vector :      0.00087501      -0.00648591      -0.01286925
  |   Hirshfeld dipole moment :      0.01443780
  |   Hirshfeld second moments:      0.08596524      -0.02579279       0.01123627
  |                                 -0.02579279       0.08256014      -0.00975082
  |                                  0.01123627      -0.00975082       0.11147705
  ----------------------------------------------------------------------
  | Atom     8: H
  |   Hirshfeld charge        :      0.18432698
  |   Free atom volume        :     10.44207651
  |   Hirshfeld volume        :      5.41657433
  |   Hirshfeld dipole vector :      0.02124670      -0.01582403       0.11639191
  |   Hirshfeld dipole moment :      0.11936875
  |   Hirshfeld second moments:      0.14304118      -0.01026940       0.00032775
  |                                 -0.01026940       0.13872800      -0.00067175
  |                                  0.00032775      -0.00067175       0.13062463
  ----------------------------------------------------------------------
  | Atom     9: H
  |   Hirshfeld charge        :      0.18973785
  |   Free atom volume        :     10.44207651
  |   Hirshfeld volume        :      6.02061795
  |   Hirshfeld dipole vector :     -0.08205969       0.07395406      -0.01752037
  |   Hirshfeld dipole moment :      0.11184793
  |   Hirshfeld second moments:      0.12773664       0.00083548      -0.00255365
  |                                  0.00083548       0.11713512       0.01000985
  |                                 -0.00255365       0.01000985       0.13496368
  ----------------------------------------------------------------------
  | Atom    10: O
  |   Hirshfeld charge        :     -0.26268191
  |   Free atom volume        :     23.95238533
  |   Hirshfeld volume        :     20.93567166
  |   Hirshfeld dipole vector :     -0.01560153       0.02369224       0.02761511
  |   Hirshfeld dipole moment :      0.03958945
  |   Hirshfeld second moments:      0.07047555       0.03844516       0.00963972
  |                                  0.03844516       0.03203457      -0.01247285
  |                                  0.00963972      -0.01247285       0.03982572
  ----------------------------------------------------------------------
  | Atom    11: H
  |   Hirshfeld charge        :      0.15321811
  |   Free atom volume        :     10.44207651
  |   Hirshfeld volume        :      5.98748468
  |   Hirshfeld dipole vector :      0.09543465       0.06856931       0.03377155
  |   Hirshfeld dipole moment :      0.12227036
  |   Hirshfeld second moments:      0.12377726       0.00666835      -0.00551083
  |                                  0.00666835       0.11189339      -0.00896586
  |                                 -0.00551083      -0.00896586       0.12811238
  ----------------------------------------------------------------------
  | Atom    12: H
  |   Hirshfeld charge        :      0.09745737
  |   Free atom volume        :     10.44207651
  |   Hirshfeld volume        :      7.39764063
  |   Hirshfeld dipole vector :     -0.02732221      -0.01702100       0.03549709
  |   Hirshfeld dipole moment :      0.04791932
  |   Hirshfeld second moments:      0.07634814      -0.00266530       0.03504261
  |                                 -0.00266530       0.09012764       0.01146473
  |                                  0.03504261       0.01146473       0.07506413
  ----------------------------------------------------------------------
  | Atom    13: O
  |   Hirshfeld charge        :     -0.31839856
  |   Free atom volume        :     23.95238533
  |   Hirshfeld volume        :     22.51098475
  |   Hirshfeld dipole vector :      0.05797503       0.00991738      -0.00591962
  |   Hirshfeld dipole moment :      0.05911429
  |   Hirshfeld second moments:     -0.01225068      -0.00653259       0.01110336
  |                                 -0.00653259       0.03406316      -0.05180331
  |                                  0.01110336      -0.05180331      -0.03050352
  ----------------------------------------------------------------------
  | Atom    14: H
  |   Hirshfeld charge        :      0.08896679
  |   Free atom volume        :     10.44207651
  |   Hirshfeld volume        :      7.75693963
  |   Hirshfeld dipole vector :      0.05612745      -0.01850502       0.00885584
  |   Hirshfeld dipole moment :      0.05975912
  |   Hirshfeld second moments:      0.05736706       0.03024705      -0.02256258
  |                                  0.03024705       0.08566998      -0.00095668
  |                                 -0.02256258      -0.00095668       0.07016656
  ----------------------------------------------------------------------
  | Atom    15: H
  |   Hirshfeld charge        :      0.13368968
  |   Free atom volume        :     10.44207651
  |   Hirshfeld volume        :      6.55263939
  |   Hirshfeld dipole vector :      0.04067484       0.10382297      -0.05411348
  |   Hirshfeld dipole moment :      0.12394321
  |   Hirshfeld second moments:      0.11419673      -0.00921762       0.00867134
  |                                 -0.00921762       0.10784488      -0.00967246
  |                                  0.00867134      -0.00967246       0.09675022
  ----------------------------------------------------------------------


------------------------------------------------------------------------------
  Final output of selected total energy values:

  The following output summarizes some interesting total energy values
  at the end of a run (AFTER all relaxation, molecular dynamics, etc.).

  | Total energy of the DFT / Hartree-Fock s.c.f. calculation      :         -10414.967645152 eV
  | Final zero-broadening corrected energy (caution - metals only) :         -10414.967645152 eV
  | For reference only, the value of 1 Hartree used in FHI-aims is :             27.211384500 eV

  Before relying on these values, please be sure to understand exactly which
  total energy value is referred to by a given number. Different objects may
  all carry the same name 'total energy'. Definitions:

  Total energy of the DFT / Hartree-Fock s.c.f. calculation:
  | Note that this energy does not include ANY quantities calculated after the
  | s.c.f. cycle, in particular not ANY RPA, MP2, etc. many-body perturbation terms.

  Final zero-broadening corrected energy:
  | For metallic systems only, a broadening of the occupation numbers at the Fermi
  | level can be extrapolated back to zero broadening by an electron-gas inspired
  | formula. For all systems that are not real metals, this value can be
  | meaningless and should be avoided.

------------------------------------------------------------------------------

------------------------------------------------------------
          Leaving FHI-aims.
          Date     :  20150727, Time     :  120834.597

          Computational steps:
          | Number of self-consistency cycles          :           14

          Detailed time accounting                     :  max(cpu_time)    wall_clock(cpu1)
          | Total time                                 :       34.887 s          34.901 s
          | Preparation time                           :        0.172 s           0.531 s
          | Grid partitioning                          :        0.155 s           0.156 s
          | Preloading free-atom quantities on grid    :        0.013 s           0.013 s
          | Free-atom superposition energy             :        0.067 s           0.067 s
          | Total time for integrations                :       15.004 s          15.003 s
          | Total time for solution of K.-S. equations :        0.945 s           0.944 s
          | Total time for density & force components  :       11.987 s          11.982 s
          | Total time for mixing                      :        0.174 s           0.174 s
          | Total time for Hartree multipole update    :        0.066 s           0.070 s
          | Total time for Hartree multipole sum       :        5.595 s           5.600 s
          | Total time for total energy evaluation     :        0.006 s           0.017 s
          | Total time for scaled ZORA corrections     :        0.000 s           0.000 s
          | Total time for TS (2009) vdW correction    :        0.056 s           0.059 s

          Have a nice day.
------------------------------------------------------------
