  MPI-parallelism will be employed.
------------------------------------------------------------
          Invoking FHI-aims ...
          Version 081213
          Compiled on 2013/08/29 at 17:41:06 on host generoso.

          When using FHI-aims, please cite the following reference:

          Volker Blum, Ralf Gehrke, Felix Hanke, Paula Havu,
          Ville Havu, Xinguo Ren, Karsten Reuter, and Matthias Scheffler,
          'Ab Initio Molecular Simulations with Numeric Atom-Centered Orbitals: FHI-aims',
          Computer Physics Communications 180, 2175-2196 (2009)

          For any questions about FHI-aims, please visit the aimsclub website
          with its forums and wiki. Contributions to both the forums and the
          wiki are warmly encouraged - they are for you, and everyone is welcome there.

------------------------------------------------------------

  Date     :  20150727, Time     :  123606.892
  Time zero on CPU 1             :   0.449920000000000E-01  s.
  Internal wall clock time zero  :           207232566.892  s.

  Using        8 parallel tasks.
  Task        0 on host gen60 reporting.
  Task        1 on host gen60 reporting.
  Task        2 on host gen60 reporting.
  Task        3 on host gen60 reporting.
  Task        4 on host gen60 reporting.
  Task        5 on host gen60 reporting.
  Task        6 on host gen60 reporting.
  Task        7 on host gen60 reporting.

  Performing system and environment tests:
  | Environment variable OMP_NUM_THREADS correctly set to 1.
  | Checking for scalapack...
  | No scalapack compiled in.

  Obtaining array dimensions for all initial allocations:
  
  -----------------------------------------------------------------------
  Parsing control.in (first pass over file, find array dimensions only).
  The contents of control.in will be repeated verbatim below
  unless switched off by setting 'verbatim_writeout .false.' .
  in the first line of control.in .
  -----------------------------------------------------------------------
  
  #########################################################################################
  #
  #  Volker Blum, FHI 2008 : Test run input file control.in
  #
  #########################################################################################
  #
  #  Physical model
  #
    xc                 rpbe
    spin               none
    relativistic       atomic_zora scalar
    charge             0.
   vdw_correction_hirshfeld
  #
  #  SCF convergence
  #
    occupation_type    gaussian 0.01
    mixer              pulay
      n_max_pulay        10
      charge_mix_param   0.1
    sc_accuracy_rho    5E-5
    sc_accuracy_eev    5E-3
    sc_accuracy_etot   5E-6
    sc_iter_limit      3000
  #
  #  Eigenvalue solver
  #
    KS_method          lapack
      empty_states       8
      basis_threshold    0.e-5
  #
  #  Efficiency
  #
  #   all previous settings are now default, except stratmann still
  #   undecided. Continue to handle stratmann with care, if at all.
  #
  #  partition_type stratmann
    partition_type rho_r2
  #  hartree_partition_type stratmann
  #
  #  Oprions for large clusters (100's of atoms: memory saving / better scaling)
  #
  # for periodic systems:
  #
    density_update_method orbital
    packed_matrix_format none
  #  k_grid 6 6 6
  #  output k_eigenvalue 1
  #  distributed_spline_storage .true.
  #
  #  Relaxation
  #
  #  relax_geometry   bfgs 5.e-3
    sc_accuracy_forces 5.E-4
    final_forces_cleaned .true.
  #
  #  Output options
  #
  #  output mulliken
    output Hirshfeld
  #  output dipole
  
  #harmonic_length_scale 0.001
  
  ################################################################################
  #
  #  FHI-aims code project
  #  VB, Fritz-Haber Institut, 2007
  #
  #  Suggested "safe" defaults for H atom (to be pasted into control.in file)
  #  Basis constructed for a non-relativistic H2 molecule using the
  #  PW-LDA functional.
  #
  ################################################################################
    species        H
  #     global species definitions
      nucleus             1
      cut_pot             4.0  2.0  1.0
      cut_free_atom       finite 8.0
      logarithmic         0.00010000 100.00  1.0123
      basis_dep_cutoff    1d-4  # 1d-4 is safe default - please check 5d-4 if you wish!
      radial_base         24 7.0
      radial_multiplier   2
      angular_grids       specified
        division   0.2783  110
        division   0.3822  194
        division   0.5626  302
  #      division   0.5922  434
  #      division   0.6227  590
  #      division   0.7206  770
        outer_grid  302
      l_hartree           4
  ################################################################################
  #
  #  Definition of "minimal" basis
  #
  ################################################################################
  #     valence basis states
      valence      1  s   1.
  #     ion occupancy
      ion_occ      1  s   0.5
  ################################################################################
  #
  #  Suggested additional basis functions. For production calculations,
  #  uncomment them one after another (the most important basis functions are
  #  listed first).
  #
  ################################################################################
  #  "First tier" - improvements: -1014.90 meV to -62.69 meV
       hydro 2 s 2.1
       hydro 2 p 3.5
  #  "Second tier" - improvements: -12.89 meV to -1.83 meV
       hydro 1 s 0.85
       hydro 2 p 3.7
       hydro 2 s 1.2
       hydro 3 d 7
  #  "Third tier" - improvements: -0.25 meV to -0.12 meV
  #     hydro 4 f 11.2
  #     hydro 3 p 4.8
  #     hydro 4 d 9
  #     hydro 3 s 3.2
  
  ################################################################################
  #
  #  FHI-aims code project
  #  VB, Fritz-Haber Institut, 2007
  #
  #  Suggested "safe" defaults for O atom (to be pasted into control.in file)
  #  All values have been tested for a non-relativistic, non-spinpolarized O2
  #  molecule using the PW-LDA functional. Validity for PBE is expected.
  #
  #  Constructed for dimers: 1.0 A, 1.208 A, 1.5 A, 2.0 A, 3.0 A
  #
  ################################################################################
    species        O
  #     global species definitions
      nucleus             8
      mass                15.9994
      l_hartree           4
      cut_pot             4.0  2.0  1.0
      cut_free_atom       finite 8.0
      basis_dep_cutoff    1d-4  # 1d-4 is safe default - please check 5d-4 if you wish!
      logarithmic         0.00010000 100.00  1.0123
      radial_base         36 7.0
      radial_multiplier   2
       angular_grids specified
        division   0.4087  110
        division   0.5181  194
        division   0.6184  302
  #      division   0.7315  434
  #      division   0.7934  590
  #      division   0.9656  770
  #      division   1.4041  974
  #      outer_grid 974
        outer_grid 302
  ################################################################################
  #
  #  Definition of "minimal" basis
  #
  ################################################################################
  #     valence basis states
      valence      2  s   2.
      valence      2  p   4.
  #     ion occupancy
      ion_occ      2  s   1.
      ion_occ      2  p   3.
  ################################################################################
  #
  #  Suggested additional basis functions. For production calculations,
  #  uncomment them one after another (the most important basis functions are
  #  listed first).
  #
  ################################################################################
  #  "First tier" - improvements: -699.05 meV to -159.38 meV
       hydro 2 p 1.8
       hydro 3 d 7.6
       hydro 3 s 6.4
  #  "Second tier" - improvements: -49.91 meV to -5.39 meV
       hydro 4 f 11.6
       hydro 3 p 6.2
       hydro 3 d 5.6
       hydro 5 g 17.6
       hydro 1 s 0.75
  #  "Third tier" - improvements: -2.83 meV to -0.50 meV
  #     ionic 2 p auto
  #     hydro 4 f 10.8
  #     hydro 4 d 4.7
  #     hydro 2 s 6.8
  #  "Fourth tier" - improvements: -0.40 meV to -0.12 meV
  #     hydro 3 p 5
  #     hydro 3 s 3.3
  #     hydro 5 g 15.6
  #     hydro 4 f 17.6
  #     hydro 4 d 14
  # Further basis functions - -0.08 meV and below
  #     hydro 3 s 2.1
  #     hydro 4 d 11.6
  #     hydro 3 p 16
  #     hydro 2 s 17.2
  
  
  -----------------------------------------------------------------------
  Completed first pass over input file control.in .
  -----------------------------------------------------------------------
  
  
  -----------------------------------------------------------------------
  Parsing geometry.in (first pass over file, find array dimensions only).
  The contents of geometry.in will be repeated verbatim below
  unless switched off by setting 'verbatim_writeout .false.' .
  in the first line of geometry.in .
  -----------------------------------------------------------------------
  
  atom      -4.053030000      0.065001000     -1.525160000  O
  atom      -4.566710000      0.974813000     -1.912820000  H
  atom      -3.067820000      0.330172000     -1.477310000  H
  atom      -1.645860000      0.870179000     -1.502250000  O
  atom      -1.568890000      1.501730000     -0.721051000  H
  atom      -0.824432000      0.282220000     -1.377720000  H
  atom      -1.975360000      2.858040000      0.453140000  O
  atom      -1.223550000      3.375850000      0.786238000  H
  atom      -2.537520000      2.567960000      1.156120000  H
  atom      -4.066610000      4.258280000     -0.900064000  O
  atom      -3.224110000      3.876870000     -0.569443000  H
  atom      -3.737450000      5.116530000     -1.322720000  H
  
  -----------------------------------------------------------------------
  Completed first pass over input file geometry.in .
  -----------------------------------------------------------------------
  
 
  Basic array size parameters: 
  | Number of species                 :        2
  | Number of atoms                   :       12
  | Max. basis fn. angular momentum   :        4
  | Max. atomic/ionic basis occupied n:        2
  | Max. number of basis fn. types    :        2
  | Max. radial fns per species/type  :        8
  | Max. logarithmic grid size        :     1301
  | Max. radial integration grid size :       73
  | Max. angular integration grid size:      302
  | Max. angular grid division number :        8
  | Radial grid for Hartree potential :     1301
  | Number of spin channels           :        1

------------------------------------------------------------
          Reading file control.in.
------------------------------------------------------------
  XC: Using RPBE gradient-corrected functionals.
  Spin treatment: No spin polarisation.
  Scalar relativistic treatment of kinetic energy: on-site free-atom approximation to ZORA.
  Charge =   0.000000E+00: Neutral system requested explicitly.
  Using non-empirical van der Waals correction (Hirshfeld partitioning):
  Occupation type: Gaussian broadening, width =   0.100000E-01 eV.
  Using pulay charge density mixing.
  Pulay mixing - number of memorized iterations:   10
  Charge density mixing - mixing parameter:     0.1000
  Convergence accuracy of self-consistent charge density: 0.5000E-04
  Convergence accuracy of sum of eigenvalues: 0.5000E-02
  Convergence accuracy of total energy: 0.5000E-05
  Maximum number of s.-c. iterations  :  3000
  Kohn-Sham eigenvalues and eigenfunctions calculated by lapack diagonalisation (D&C).
  Number of empty states per atom:        8
  Threshold for basis singularities: 0.0000E+00
  Partition function in integrals calculations: rho / r^2
 Using packed matrix format           0
  Convergence accuracy of forces: 0.5000E-03
  Cleaning forces before final output.
  Hirshfeld charge analysis will be performed.
 
  Reading configuration options for species H                   .
  | Found nuclear charge :   1.0000
  | Found cutoff potl. onset [A], width [A], scale factor :    4.00000    2.00000    1.00000
  | Found cutoff specification for free atom: Cutoff potential begins at    8.00000 A.
  | Found logarithmic grid data [bohr] : 0.1000E-03 0.1000E+03 0.1012E+01
  | Threshold for basis-dependent cutoff potential is   0.100000E-03
  | Found data for basic radial integration grid :    24 points, outermost radius =    7.000 A
  | Found multiplier for basic radial grid :   2
  | Found angular grid specification: user-specified.
  | Specified grid contains     4 separate shells.
  | Check grid settings after all constraints further below.
  | Found l_max for Hartree potential  :   4
  | Found free-atom valence shell :  1 s   1.000
  | No ionic wave fns used. Skipping ion_occ.
  | Found hydrogenic basis function :  2 s   2.100
  | Found hydrogenic basis function :  2 p   3.500
  | Found hydrogenic basis function :  1 s   0.850
  | Found hydrogenic basis function :  2 p   3.700
  | Found hydrogenic basis function :  2 s   1.200
  | Found hydrogenic basis function :  3 d   7.000
  Species H                   : Missing cutoff potential type.
  Defaulting to exp(1/x)/(1-x)^2 type cutoff potential.
  Species H : On-site basis accuracy parameter (for Gram-Schmidt orthonormalisation) not specified.
  Using default value basis_acc =  0.1000000E-03.
  Species H                   : Using default innermost maximum threshold i_radial=  2 for radial functions.
  Species H                   : Basic radial grid will be enhanced according to radial_multiplier =   2, to contain    49 grid points.
 
  Reading configuration options for species O                   .
  | Found nuclear charge :   8.0000
  | Found atomic mass :    15.9994000000000      amu
  | Found l_max for Hartree potential  :   4
  | Found cutoff potl. onset [A], width [A], scale factor :    4.00000    2.00000    1.00000
  | Found cutoff specification for free atom: Cutoff potential begins at    8.00000 A.
  | Threshold for basis-dependent cutoff potential is   0.100000E-03
  | Found logarithmic grid data [bohr] : 0.1000E-03 0.1000E+03 0.1012E+01
  | Found data for basic radial integration grid :    36 points, outermost radius =    7.000 A
  | Found multiplier for basic radial grid :   2
  | Found angular grid specification: user-specified.
  | Specified grid contains     4 separate shells.
  | Check grid settings after all constraints further below.
  | Found free-atom valence shell :  2 s   2.000
  | Found free-atom valence shell :  2 p   4.000
  | No ionic wave fns used. Skipping ion_occ.
  | No ionic wave fns used. Skipping ion_occ.
  | Found hydrogenic basis function :  2 p   1.800
  | Found hydrogenic basis function :  3 d   7.600
  | Found hydrogenic basis function :  3 s   6.400
  | Found hydrogenic basis function :  4 f  11.600
  | Found hydrogenic basis function :  3 p   6.200
  | Found hydrogenic basis function :  3 d   5.600
  | Found hydrogenic basis function :  5 g  17.600
  | Found hydrogenic basis function :  1 s   0.750
  Species O                   : Missing cutoff potential type.
  Defaulting to exp(1/x)/(1-x)^2 type cutoff potential.
  Species O : On-site basis accuracy parameter (for Gram-Schmidt orthonormalisation) not specified.
  Using default value basis_acc =  0.1000000E-03.
  Species O                   : Using default innermost maximum threshold i_radial=  2 for radial functions.
  Species O                   : Basic radial grid will be enhanced according to radial_multiplier =   2, to contain    73 grid points.
 
  Finished reading input file 'control.in'. Consistency checks are next.
 
  Target number of points in a grid batch is not set. Defaulting to  100
  Method for grid partitioning is not set. Defaulting to parallel hash+maxmin partitioning.
  Batch size limit is not set. Defaulting to    200
  By default, will store active basis functions for each batch.
  If in need of memory, prune_basis_once .false. can be used to disable this option.
  communication_type for Hartree potential was not specified.
  Defaulting to calc_hartree .
  Pulay mixer: Number of initial linear mixing iterations not set.
  Defaulting to    0 iterations.
  Work space size for distributed Hartree potential not set.
  Defaulting to   0.200000E+03 MB.
  Algorithm-dependent basis array size parameters:
  | n_max_pulay                         :       10
  Geometry relaxation not requested: no relaxation will be performed.
  Handling of forces: Unphysical translation and rotation will be removed from forces.
  No accuracy limit for integral partition fn. given. Defaulting to 0.1000E-14.
  No threshold value for u(r) in integrations given. Defaulting to 0.1000E-05.
  No accuracy for occupation numbers given. Defaulting to 0.1000E-07.
  No threshold value for occupation numbers given. Defaulting to 0.0000E+00.
  No accuracy for fermi level given. Defaulting to 0.1000E-19.
  Maximum # of iterations to find E_F not set. Defaulting to  200.
  Will not use alltoall communication since running on < 1024 CPUs.
  Partitioning for Hartree potential was not defined. Using partition_type for integrals.
  | Reporting present value of keyword multip_moments_threshold  :       0.10000000E-09
  | This value may affect high angular momentum components of the Hartree potential in periodic systems.
  No q(lm)/r^(l+1) cutoff set for long-range Hartree potential.
  | Using default value of  0.100000E-09 .
  | Verify using the multipole_threshold keyword.
  Defaulting to new monopole extrapolation.
  Density update method: Loop over occupied states selected for charge density update.
------------------------------------------------------------


------------------------------------------------------------
          Reading geometry description geometry.in.
------------------------------------------------------------
  Input structure read successfully.
  The structure contains       12 atoms,  and a total of         40.000 electrons.

  Input geometry:
  | No unit cell requested.
  | Atomic structure:
  |       Atom                x [A]            y [A]            z [A]
  |    1: Species O             -4.053030         0.065001        -1.525160
  |    2: Species H             -4.566710         0.974813        -1.912820
  |    3: Species H             -3.067820         0.330172        -1.477310
  |    4: Species O             -1.645860         0.870179        -1.502250
  |    5: Species H             -1.568890         1.501730        -0.721051
  |    6: Species H             -0.824432         0.282220        -1.377720
  |    7: Species O             -1.975360         2.858040         0.453140
  |    8: Species H             -1.223550         3.375850         0.786238
  |    9: Species H             -2.537520         2.567960         1.156120
  |   10: Species O             -4.066610         4.258280        -0.900064
  |   11: Species H             -3.224110         3.876870        -0.569443
  |   12: Species H             -3.737450         5.116530        -1.322720
  |

  | The smallest distance between any two atoms is         0.94570141 AA.
  |
  | The first atom of this pair is atom number                      7 .
  | The second atom of this pair is atom number                     9 .

  Structure-dependent array size parameters: 
  | Maximum number of distinct radial functions  :       18
  | Maximum number of basis functions            :      276
  | Number of Kohn-Sham states (occupied + empty):       68
------------------------------------------------------------

------------------------------------------------------------
          Preparing all fixed parts of the calculation.
------------------------------------------------------------
  Determining machine precision:
    2.225073858507201E-308
  Setting up grids for atomic and cluster calculations.

  Creating wave function, potential, and density for free atoms.

  Species: H

  List of occupied orbitals and eigenvalues:
    n    l              occ      energy [Ha]    energy [eV]
    1    0           1.0000        -0.241408        -6.5691


  Species: O

  List of occupied orbitals and eigenvalues:
    n    l              occ      energy [Ha]    energy [eV]
    1    0           2.0000       -18.944147      -515.4965
    2    0           2.0000        -0.883529       -24.0421
    2    1           4.0000        -0.330176        -8.9845

  Creating fixed part of basis set: Ionic, confined, hydrogenic.
 
  H                    hydrogenic:
 
  List of hydrogenic basis orbitals: 
    n    l      effective z      eigenvalue [eV]  inner max. [A]     outer max. [A]     outer radius [A]   
    2    0         2.100000       -14.9965           0.193241           1.317192           5.372934
    2    1         3.500000       -41.6672           0.602363           0.602363           4.056010
    1    0         0.850000        -9.8292           0.624864           0.624864           5.372934
    2    1         3.700000       -46.5653           0.573616           0.573616           3.909951
    2    0         1.200000        -4.5995           0.334977           2.228160           5.505921
    3    2         7.000000       -74.0753           0.680692           0.680692           3.769152
 
 
  O                    hydrogenic:
 
  List of hydrogenic basis orbitals: 
    n    l      effective z      eigenvalue [eV]  inner max. [A]     outer max. [A]     outer radius [A]   
    2    1         1.800000       -11.0118           1.178546           1.178546           5.432516
    3    2         7.600000       -87.3182           0.624117           0.624117           3.541422
    3    0         6.400000       -61.9209           0.061166           1.081887           4.306510
    4    3        11.600000      -114.4238           0.731621           0.731621           3.584982
    3    1         6.200000       -58.1113           0.255677           1.030255           4.306510
    3    2         5.600000       -47.4081           0.847222           0.847222           4.413102
    5    4        17.600000      -168.5799           0.749730           0.749730           3.372413
    1    0         0.750000        -7.6499           0.705275           0.705275           5.366508
 

  Adding cutoff potential to free-atom effective potential.
  Creating atomic-like basis functions for current effective potential.

  Species H                   :

  List of atomic basis orbitals and eigenvalues:
    n    l      energy [Ha]    energy [eV]    outer radius [A]
    1    0        -0.241374        -6.5681       5.372934


  Species O                   :

  List of atomic basis orbitals and eigenvalues:
    n    l      energy [Ha]    energy [eV]    outer radius [A]
    1    0       -18.944147      -515.4965       1.415745
    2    0        -0.883529       -24.0421       5.048305
    2    1        -0.330173        -8.9845       5.301302

  Assembling full basis from fixed parts.
  | Species H :   atomic orbital   1 s accepted.
  | Species H :    hydro orbital   2 s accepted.
  | Species H :    hydro orbital   1 s accepted.
  | Species H :    hydro orbital   2 s accepted.
  | Species H :    hydro orbital   2 p accepted.
  | Species H :    hydro orbital   2 p accepted.
  | Species H :    hydro orbital   3 d accepted.
  | Species O :   atomic orbital   1 s accepted.
  | Species O :    hydro orbital   3 s accepted.
  | Species O :   atomic orbital   2 s accepted.
  | Species O :    hydro orbital   1 s accepted.
  | Species O :    hydro orbital   3 p accepted.
  | Species O :   atomic orbital   2 p accepted.
  | Species O :    hydro orbital   2 p accepted.
  | Species O :    hydro orbital   3 d accepted.
  | Species O :    hydro orbital   3 d accepted.
  | Species O :    hydro orbital   4 f accepted.
  | Species O :    hydro orbital   5 g accepted.
 
  Basis size parameters after reduction:
  | Total number of radial functions:       18
  | Total number of basis functions :      276
 
  Testing on-site integration grid accuracy.
  |  Species  Function  <phi|h_atom|phi> (log., in eV)  <phi|h_atom|phi> (rad., in eV)
           1        1                 -6.5683835025                 -6.5684759159
           1        2                 13.3711789951                 13.3708738703
           1        3                 23.6590910787                 23.6532055418
           1        4                 16.2963827186                 16.1870710655 ***
           1        5                 28.7627214838                 28.7627215090
           1        6                 59.5965249172                 59.5965950857
           1        7                 60.2220506392                 60.2220503827
           2        8               -515.4964576505               -515.4964530710
           2        9                 15.3030791347                 15.3030722972
           2       10                -21.7296094581                -21.7296135470
           2       11                 14.2969371730                 14.2969701621
           2       12                 21.0679693190                 21.0679697493
           2       13                 -2.3833606469                 -2.3833613176
           2       14                 13.7067136422                 13.7066766629
           2       15                 45.8013116808                 45.8013116965
           2       16                 52.2309815402                 52.2309831494
           2       17                 85.4120732416                 85.4120732763
           2       18                142.1019167745                142.1019167817
 * Note: Onsite integrals marked "***" above are less accurate than
 * onsite_accuracy_threshold =    0.03000 eV. Usually, this is harmless.
 * When in doubt, tighten the "radial" and/or "radial_multiplier" flags to check.

  Preparing densities etc. for the partition functions (integrals / Hartree potential).

  Preparations completed.
  max(cpu_time)          :      0.171 s.
  Wall clock time (cpu1) :      0.402 s.
------------------------------------------------------------

------------------------------------------------------------
          Begin self-consistency loop: Initialization.

          Date     :  20150727, Time     :  123607.320
------------------------------------------------------------

  Initializing index lists of integration centers etc. from given atomic structure:
  | Number of centers in hartree potential         :        12
  | Number of centers in hartree multipole         :        12
  | Number of centers in electron density summation:        12
  | Number of centers in basis integrals           :        12
  | Number of centers in integrals                 :        12
  Partitioning the integration grid into batches with parallel hashing+maxmin method.
  | Number of batches:     1874
  | Maximal batch size:     168
  | Minimal batch size:      50
  | Average batch size:      83.974
  | Standard deviation of batch sizes:      27.077

  Integration load balanced across     8 MPI tasks.
  Work distribution over tasks is as follows:
  Task     0 has      19661 integration points.
  Task     1 has      19701 integration points.
  Task     2 has      19724 integration points.
  Task     3 has      19643 integration points.
  Task     4 has      19636 integration points.
  Task     5 has      19659 integration points.
  Task     6 has      19701 integration points.
  Task     7 has      19643 integration points.
  Initializing partition tables, free-atom densities, potentials, etc. across the integration grid (initialize_grid_storage).
  | Net number of integration points:   157368
  | of which are non-zero points    :   156831
  Obtaining max. number of non-zero basis functions in each batch (get_n_compute_maxes).
  | Maximal number of non-zero basis functions:      274 in task     0
  | Maximal number of non-zero basis functions:      274 in task     1
  | Maximal number of non-zero basis functions:      274 in task     2
  | Maximal number of non-zero basis functions:      274 in task     3
  | Maximal number of non-zero basis functions:      274 in task     4
  | Maximal number of non-zero basis functions:      274 in task     5
  | Maximal number of non-zero basis functions:      274 in task     6
  | Maximal number of non-zero basis functions:      274 in task     7
  Integrating Hamiltonian matrix: batch-based integration.
  Time summed over all CPUs for integration: real work        4.769 s, elapsed        4.856 s
  Integrating overlap matrix.
  Time summed over all CPUs for integration: real work        2.523 s, elapsed        2.584 s

  Updating Kohn-Sham eigenvalues, eigenvectors, occupation numbers, and Fermi level.
  Solving generalized eigenproblem
  Updating Kohn-Sham eigenvalues and eigenfunctions.
  Transforming overlap matrix and checking for singularities.
  Overlap matrix is nonsingular:
  | Lowest eigenvalue:  0.305383E-03
  Solving real generalised eigenvalue problem by standard LAPACK (fast)
  Determining occupation numbers for Kohn-Sham eigenstates.
  | Chemical potential (Fermi level) in eV                 : -.33570729E+01
  | Error in electron count due to remaining E_F inaccuracy: 0.00000000E+00
  | Maximum occupation number of highest empty state:  0.00E+00

  Writing Kohn-Sham eigenvalues.

  State    Occupation    Eigenvalue [Ha]    Eigenvalue [eV]
      1       2.00000         -19.059380         -518.63212
      2       2.00000         -19.042527         -518.17354
      3       2.00000         -19.040123         -518.10812
      4       2.00000         -19.019453         -517.54565
      5       2.00000          -1.111577          -30.24756
      6       2.00000          -1.086655          -29.56939
      7       2.00000          -1.082929          -29.46800
      8       2.00000          -1.041697          -28.34603
      9       2.00000          -0.651767          -17.73549
     10       2.00000          -0.609682          -16.59030
     11       2.00000          -0.605945          -16.48859
     12       2.00000          -0.590312          -16.06320
     13       2.00000          -0.522233          -14.21069
     14       2.00000          -0.511636          -13.92233
     15       2.00000          -0.500536          -13.62027
     16       2.00000          -0.471866          -12.84014
     17       2.00000          -0.447713          -12.18288
     18       2.00000          -0.431745          -11.74838
     19       2.00000          -0.426744          -11.61229
     20       2.00000          -0.409346          -11.13886
     21       0.00000          -0.094973           -2.58435
     22       0.00000          -0.065845           -1.79172
     23       0.00000          -0.057194           -1.55634
     24       0.00000          -0.040352           -1.09803
     25       0.00000          -0.005682           -0.15462
     26       0.00000           0.032943            0.89642
     27       0.00000           0.039297            1.06932
     28       0.00000           0.046882            1.27572
     29       0.00000           0.071436            1.94388
     30       0.00000           0.081266            2.21136
     31       0.00000           0.093375            2.54085
     32       0.00000           0.096731            2.63218
     33       0.00000           0.098128            2.67021
     34       0.00000           0.106477            2.89740
     35       0.00000           0.110738            3.01334
     36       0.00000           0.125875            3.42523
     37       0.00000           0.146397            3.98367
     38       0.00000           0.154071            4.19250
     39       0.00000           0.156696            4.26391
     40       0.00000           0.176278            4.79676
     41       0.00000           0.182688            4.97119
     42       0.00000           0.213860            5.81942
     43       0.00000           0.227149            6.18103
     44       0.00000           0.243227            6.61854
     45       0.00000           0.253083            6.88673
     46       0.00000           0.281098            7.64908
     47       0.00000           0.302181            8.22278
     48       0.00000           0.316051            8.60018
     49       0.00000           0.344275            9.36820
     50       0.00000           0.354971            9.65925
     51       0.00000           0.368116           10.01694
     52       0.00000           0.376028           10.23225
     53       0.00000           0.381666           10.38567
     54       0.00000           0.399446           10.86947
     55       0.00000           0.421280           11.46360
     56       0.00000           0.428557           11.66164
     57       0.00000           0.441036           12.00121
     58       0.00000           0.457416           12.44691
     59       0.00000           0.470880           12.81330
     60       0.00000           0.491196           13.36611
     61       0.00000           0.513553           13.97449
     62       0.00000           0.538169           14.64431
     63       0.00000           0.554202           15.08060
     64       0.00000           0.574408           15.63044
     65       0.00000           0.630868           17.16678
     66       0.00000           0.670110           18.23462
     67       0.00000           0.697691           18.98513
     68       0.00000           0.754581           20.53318

  Highest occupied state (VBM) at    -11.13885931 eV
  | Occupation number:      2.00000000

  Lowest unoccupied state (CBM) at    -2.58434543 eV
  | Occupation number:      0.00000000

  Overall HOMO-LUMO gap:      8.55451389 eV.
  Calculating total energy contributions from superposition of free atom densities.

  Total energy components:
  | Sum of eigenvalues            :        -173.32773504 Ha       -4716.48764262 eV
  | XC energy correction          :         -36.43667300 Ha        -991.49231900 eV
  | XC potential correction       :          46.55814587 Ha        1266.91160898 eV
  | Free-atom electrostatic energy:        -143.25120880 Ha       -3898.06372263 eV
  | Hartree energy correction     :           0.00000000 Ha           0.00000000 eV
  | van der Waals energy corr.    :           0.00000000 Ha           0.00000000 eV
  | Entropy correction            :           0.00000000 Ha           0.00000000 eV
  | ---------------------------
  | Total energy                  :        -306.45747096 Ha       -8339.13207526 eV
  | Total energy, T -> 0          :        -306.45747096 Ha       -8339.13207526 eV  <-- do not rely on this value for anything but (periodic) metals
  | Electronic free energy        :        -306.45747096 Ha       -8339.13207526 eV

  Derived energy quantities:
  | Kinetic energy                :         303.29863520 Ha        8253.17578074 eV
  | Electrostatic energy          :        -573.31943316 Ha      -15600.81553700 eV
  | Energy correction for multipole
  | error in Hartree potential    :           0.00000000 Ha           0.00000000 eV
  | Sum of eigenvalues per atom                           :        -393.04063688 eV
  | Total energy (T->0) per atom                          :        -694.92767294 eV  <-- do not rely on this value for anything but (periodic) metals
  | Electronic free energy per atom                       :        -694.92767294 eV
  Initialize hartree_potential_storage
  Max. number of atoms included in rho_multipole:           12

  End scf initialization - timings             :  max(cpu_time)    wall_clock(cpu1)
  | Time for scf. initialization               :        1.320 s           1.319 s
  | Boundary condition initialization          :        0.000 s           0.000 s
  | Integration                                :        0.933 s           0.933 s
  | Solution of K.-S. eqns.                    :        0.119 s           0.120 s
  | Grid partitioning                          :        0.115 s           0.116 s
  | Preloading free-atom quantities on grid    :        0.013 s           0.013 s
  | Free-atom superposition energy             :        0.046 s           0.046 s
  | Total energy evaluation                    :        0.000 s           0.001 s
------------------------------------------------------------

------------------------------------------------------------
          Begin self-consistency iteration #    1

  Date     :  20150727, Time     :  123608.640
------------------------------------------------------------
  Evaluating new KS density.
  Integration grid: deviation in total charge (<rho> - N_e) =   0.000000E+00
  Pulay mixing of updated and previous charge densities.

  Evaluating partitioned Hartree potential by multipole expansion.
  | Analytical far-field extrapolation by fixed multipoles:
  | Hartree multipole sum: apparent total charge =  -0.140004E-05
  Summing up the Hartree potential.
  Time summed over all CPUs for potential: real work        1.656 s, elapsed        1.666 s
  | RMS charge density error from multipole expansion :   0.142898E-02

  Integrating Hamiltonian matrix: batch-based integration.
  Time summed over all CPUs for integration: real work        4.761 s, elapsed        4.872 s

  Updating Kohn-Sham eigenvalues, eigenvectors, occupation numbers, and Fermi level.
  Solving generalized eigenproblem
  Updating Kohn-Sham eigenvalues and eigenfunctions.
  Solving real generalised eigenvalue problem by standard LAPACK (fast)
  Determining occupation numbers for Kohn-Sham eigenstates.
  | Chemical potential (Fermi level) in eV                 : -.30248910E+01
  | Error in electron count due to remaining E_F inaccuracy: 0.00000000E+00
  | Maximum occupation number of highest empty state:  0.00E+00

  Writing Kohn-Sham eigenvalues.

  State    Occupation    Eigenvalue [Ha]    Eigenvalue [eV]
      1       2.00000         -18.994419         -516.86443
      2       2.00000         -18.973946         -516.30734
      3       2.00000         -18.961319         -515.96373
      4       2.00000         -18.933832         -515.21577
      5       2.00000          -1.082811          -29.46479
      6       2.00000          -1.052369          -28.63643
      7       2.00000          -1.043335          -28.39058
      8       2.00000          -0.995099          -27.07803
      9       2.00000          -0.627890          -17.08575
     10       2.00000          -0.580909          -15.80733
     11       2.00000          -0.572455          -15.57729
     12       2.00000          -0.553127          -15.05136
     13       2.00000          -0.489052          -13.30777
     14       2.00000          -0.476077          -12.95471
     15       2.00000          -0.463533          -12.61338
     16       2.00000          -0.429940          -11.69928
     17       2.00000          -0.415869          -11.31637
     18       2.00000          -0.393025          -10.69475
     19       2.00000          -0.385260          -10.48345
     20       2.00000          -0.361297           -9.83140
     21       0.00000          -0.086810           -2.36221
     22       0.00000          -0.055082           -1.49887
     23       0.00000          -0.049501           -1.34698
     24       0.00000          -0.033218           -0.90390
     25       0.00000          -0.002341           -0.06370
     26       0.00000           0.042404            1.15387
     27       0.00000           0.049755            1.35391
     28       0.00000           0.054451            1.48170
     29       0.00000           0.080245            2.18358
     30       0.00000           0.090560            2.46426
     31       0.00000           0.102513            2.78953
     32       0.00000           0.104782            2.85126
     33       0.00000           0.108235            2.94522
     34       0.00000           0.113217            3.08080
     35       0.00000           0.121390            3.30318
     36       0.00000           0.132019            3.59242
     37       0.00000           0.160865            4.37735
     38       0.00000           0.162920            4.43327
     39       0.00000           0.167358            4.55405
     40       0.00000           0.186378            5.07160
     41       0.00000           0.197002            5.36069
     42       0.00000           0.223376            6.07837
     43       0.00000           0.233312            6.34876
     44       0.00000           0.252908            6.88198
     45       0.00000           0.260193            7.08021
     46       0.00000           0.289068            7.86594
     47       0.00000           0.310913            8.46037
     48       0.00000           0.323620            8.80614
     49       0.00000           0.354274            9.64029
     50       0.00000           0.364424            9.91649
     51       0.00000           0.376542           10.24622
     52       0.00000           0.382854           10.41798
     53       0.00000           0.390805           10.63435
     54       0.00000           0.407840           11.09789
     55       0.00000           0.430134           11.70455
     56       0.00000           0.436021           11.86473
     57       0.00000           0.451105           12.27519
     58       0.00000           0.467773           12.72875
     59       0.00000           0.478575           13.02268
     60       0.00000           0.503158           13.69163
     61       0.00000           0.524604           14.27520
     62       0.00000           0.548805           14.93376
     63       0.00000           0.563942           15.34566
     64       0.00000           0.585301           15.92686
     65       0.00000           0.643532           17.51139
     66       0.00000           0.680245           18.51041
     67       0.00000           0.712127           19.37797
     68       0.00000           0.764342           20.79881

  Highest occupied state (VBM) at     -9.83140440 eV
  | Occupation number:      2.00000000

  Lowest unoccupied state (CBM) at    -2.36221408 eV
  | Occupation number:      0.00000000

  Overall HOMO-LUMO gap:      7.46919033 eV.

  Total energy components:
  | Sum of eigenvalues            :        -171.57112569 Ha       -4668.68787014 eV
  | XC energy correction          :         -36.62682750 Ha        -996.66668602 eV
  | XC potential correction       :          46.80697966 Ha        1273.68272078 eV
  | Free-atom electrostatic energy:        -143.25120880 Ha       -3898.06372263 eV
  | Hartree energy correction     :          -1.70243423 Ha         -46.32559238 eV
  | van der Waals energy corr.    :           0.00000000 Ha           0.00000000 eV
  | Entropy correction            :           0.00000000 Ha           0.00000000 eV
  | ---------------------------
  | Total energy                  :        -306.34461655 Ha       -8336.06115039 eV
  | Total energy, T -> 0          :        -306.34461655 Ha       -8336.06115039 eV  <-- do not rely on this value for anything but (periodic) metals
  | Electronic free energy        :        -306.34461655 Ha       -8336.06115039 eV

  Derived energy quantities:
  | Kinetic energy                :         304.42249243 Ha        8283.75749206 eV
  | Electrostatic energy          :        -574.14028149 Ha      -15623.15195643 eV
  | Energy correction for multipole
  | error in Hartree potential    :          -0.00002530 Ha          -0.00068849 eV
  | Sum of eigenvalues per atom                           :        -389.05732251 eV
  | Total energy (T->0) per atom                          :        -694.67176253 eV  <-- do not rely on this value for anything but (periodic) metals
  | Electronic free energy per atom                       :        -694.67176253 eV

  Self-consistency convergence accuracy:
  | Change of charge density      : 0.5856E+00
  | Change of sum of eigenvalues  : 0.4780E+02 eV
  | Change of total energy        : 0.3071E+01 eV

  End self-consistency iteration #     1       :  max(cpu_time)    wall_clock(cpu1)
  | Time for this iteration                    :        1.250 s           1.249 s
  | Charge density update                      :        0.390 s           0.389 s
  | Density mixing                             :        0.003 s           0.003 s
  | Hartree multipole update                   :        0.004 s           0.004 s
  | Hartree multipole summation                :        0.209 s           0.209 s
  | Integration                                :        0.610 s           0.610 s
  | Solution of K.-S. eqns.                    :        0.031 s           0.031 s
  | Total energy evaluation                    :        0.000 s           0.001 s
------------------------------------------------------------

------------------------------------------------------------
          Begin self-consistency iteration #    2

  Date     :  20150727, Time     :  123609.890
------------------------------------------------------------
  Evaluating new KS density.
  Integration grid: deviation in total charge (<rho> - N_e) =   0.000000E+00
  Pulay mixing of updated and previous charge densities.

  Evaluating partitioned Hartree potential by multipole expansion.
  | Analytical far-field extrapolation by fixed multipoles:
  | Hartree multipole sum: apparent total charge =  -0.383072E-05
  Summing up the Hartree potential.
  Time summed over all CPUs for potential: real work        1.656 s, elapsed        1.666 s
  | RMS charge density error from multipole expansion :   0.567723E-02

  Integrating Hamiltonian matrix: batch-based integration.
  Time summed over all CPUs for integration: real work        4.762 s, elapsed        4.873 s

  Updating Kohn-Sham eigenvalues, eigenvectors, occupation numbers, and Fermi level.
  Solving generalized eigenproblem
  Updating Kohn-Sham eigenvalues and eigenfunctions.
  Solving real generalised eigenvalue problem by standard LAPACK (fast)
  Determining occupation numbers for Kohn-Sham eigenstates.
  | Chemical potential (Fermi level) in eV                 : -.22653324E+01
  | Error in electron count due to remaining E_F inaccuracy: 0.00000000E+00
  | Maximum occupation number of highest empty state:  0.00E+00

  Highest occupied state (VBM) at     -6.76734147 eV
  | Occupation number:      2.00000000

  Lowest unoccupied state (CBM) at    -1.96672532 eV
  | Occupation number:      0.00000000

  Overall HOMO-LUMO gap:      4.80061615 eV.

  Total energy components:
  | Sum of eigenvalues            :        -167.48424541 Ha       -4557.47819949 eV
  | XC energy correction          :         -37.08941170 Ha       -1009.25424262 eV
  | XC potential correction       :          47.41166998 Ha        1290.13718149 eV
  | Free-atom electrostatic energy:        -143.25120880 Ha       -3898.06372263 eV
  | Hartree energy correction     :          -5.80234587 Ha        -157.88986452 eV
  | van der Waals energy corr.    :           0.00000000 Ha           0.00000000 eV
  | Entropy correction            :           0.00000000 Ha           0.00000000 eV
  | ---------------------------
  | Total energy                  :        -306.21554180 Ha       -8332.54884776 eV
  | Total energy, T -> 0          :        -306.21554180 Ha       -8332.54884776 eV  <-- do not rely on this value for anything but (periodic) metals
  | Electronic free energy        :        -306.21554180 Ha       -8332.54884776 eV

  Derived energy quantities:
  | Kinetic energy                :         306.64670847 Ha        8344.28148973 eV
  | Electrostatic energy          :        -575.77283857 Ha      -15667.57609488 eV
  | Energy correction for multipole
  | error in Hartree potential    :          -0.00072440 Ha          -0.01971182 eV
  | Sum of eigenvalues per atom                           :        -379.78984996 eV
  | Total energy (T->0) per atom                          :        -694.37907065 eV  <-- do not rely on this value for anything but (periodic) metals
  | Electronic free energy per atom                       :        -694.37907065 eV

  Self-consistency convergence accuracy:
  | Change of charge density      : 0.4424E+00
  | Change of sum of eigenvalues  : 0.1112E+03 eV
  | Change of total energy        : 0.3512E+01 eV

  End self-consistency iteration #     2       :  max(cpu_time)    wall_clock(cpu1)
  | Time for this iteration                    :        1.248 s           1.248 s
  | Charge density update                      :        0.388 s           0.388 s
  | Density mixing                             :        0.005 s           0.004 s
  | Hartree multipole update                   :        0.004 s           0.005 s
  | Hartree multipole summation                :        0.209 s           0.209 s
  | Integration                                :        0.610 s           0.610 s
  | Solution of K.-S. eqns.                    :        0.030 s           0.030 s
  | Total energy evaluation                    :        0.000 s           0.000 s
------------------------------------------------------------

------------------------------------------------------------
          Begin self-consistency iteration #    3

  Date     :  20150727, Time     :  123611.138
------------------------------------------------------------
  Evaluating new KS density.
  Integration grid: deviation in total charge (<rho> - N_e) =   7.105427E-15
  Pulay mixing of updated and previous charge densities.

  Evaluating partitioned Hartree potential by multipole expansion.
  | Analytical far-field extrapolation by fixed multipoles:
  | Hartree multipole sum: apparent total charge =  -0.322652E-05
  Summing up the Hartree potential.
  Time summed over all CPUs for potential: real work        1.656 s, elapsed        1.666 s
  | RMS charge density error from multipole expansion :   0.118911E-01

  Integrating Hamiltonian matrix: batch-based integration.
  Time summed over all CPUs for integration: real work        4.759 s, elapsed        4.874 s

  Updating Kohn-Sham eigenvalues, eigenvectors, occupation numbers, and Fermi level.
  Solving generalized eigenproblem
  Updating Kohn-Sham eigenvalues and eigenfunctions.
  Solving real generalised eigenvalue problem by standard LAPACK (fast)
  Determining occupation numbers for Kohn-Sham eigenstates.
  | Chemical potential (Fermi level) in eV                 : -.21942405E+01
  | Error in electron count due to remaining E_F inaccuracy: 0.00000000E+00
  | Maximum occupation number of highest empty state:  0.00E+00

  Highest occupied state (VBM) at     -6.54395518 eV
  | Occupation number:      2.00000000

  Lowest unoccupied state (CBM) at    -1.96399814 eV
  | Occupation number:      0.00000000

  Overall HOMO-LUMO gap:      4.57995704 eV.

  Total energy components:
  | Sum of eigenvalues            :        -167.60406507 Ha       -4560.73865841 eV
  | XC energy correction          :         -37.08039482 Ha       -1009.00888096 eV
  | XC potential correction       :          47.39538924 Ha        1289.69416012 eV
  | Free-atom electrostatic energy:        -143.25120880 Ha       -3898.06372263 eV
  | Hartree energy correction     :          -5.66981473 Ha        -154.28350873 eV
  | van der Waals energy corr.    :           0.00000000 Ha           0.00000000 eV
  | Entropy correction            :           0.00000000 Ha           0.00000000 eV
  | ---------------------------
  | Total energy                  :        -306.21009418 Ha       -8332.40061061 eV
  | Total energy, T -> 0          :        -306.21009418 Ha       -8332.40061061 eV  <-- do not rely on this value for anything but (periodic) metals
  | Electronic free energy        :        -306.21009418 Ha       -8332.40061061 eV

  Derived energy quantities:
  | Kinetic energy                :         305.00501818 Ha        8299.60882425 eV
  | Electrostatic energy          :        -574.13471754 Ha      -15623.00055390 eV
  | Energy correction for multipole
  | error in Hartree potential    :          -0.00448706 Ha          -0.12209923 eV
  | Sum of eigenvalues per atom                           :        -380.06155487 eV
  | Total energy (T->0) per atom                          :        -694.36671755 eV  <-- do not rely on this value for anything but (periodic) metals
  | Electronic free energy per atom                       :        -694.36671755 eV

  Self-consistency convergence accuracy:
  | Change of charge density      : 0.2247E+00
  | Change of sum of eigenvalues  : -.3260E+01 eV
  | Change of total energy        : 0.1482E+00 eV

  End self-consistency iteration #     3       :  max(cpu_time)    wall_clock(cpu1)
  | Time for this iteration                    :        1.247 s           1.247 s
  | Charge density update                      :        0.386 s           0.386 s
  | Density mixing                             :        0.005 s           0.005 s
  | Hartree multipole update                   :        0.004 s           0.005 s
  | Hartree multipole summation                :        0.209 s           0.208 s
  | Integration                                :        0.610 s           0.610 s
  | Solution of K.-S. eqns.                    :        0.031 s           0.030 s
  | Total energy evaluation                    :        0.000 s           0.001 s
------------------------------------------------------------

------------------------------------------------------------
          Begin self-consistency iteration #    4

  Date     :  20150727, Time     :  123612.385
------------------------------------------------------------
  Evaluating new KS density.
  Integration grid: deviation in total charge (<rho> - N_e) =   2.842171E-14
  Pulay mixing of updated and previous charge densities.

  Evaluating partitioned Hartree potential by multipole expansion.
  | Analytical far-field extrapolation by fixed multipoles:
  | Hartree multipole sum: apparent total charge =  -0.370434E-05
  Summing up the Hartree potential.
  Time summed over all CPUs for potential: real work        1.656 s, elapsed        1.665 s
  | RMS charge density error from multipole expansion :   0.148058E-01

  Integrating Hamiltonian matrix: batch-based integration.
  Time summed over all CPUs for integration: real work        4.745 s, elapsed        4.853 s

  Updating Kohn-Sham eigenvalues, eigenvectors, occupation numbers, and Fermi level.
  Solving generalized eigenproblem
  Updating Kohn-Sham eigenvalues and eigenfunctions.
  Solving real generalised eigenvalue problem by standard LAPACK (fast)
  Determining occupation numbers for Kohn-Sham eigenstates.
  | Chemical potential (Fermi level) in eV                 : -.19690790E+01
  | Error in electron count due to remaining E_F inaccuracy: 0.00000000E+00
  | Maximum occupation number of highest empty state:  0.00E+00

  Highest occupied state (VBM) at     -5.59281754 eV
  | Occupation number:      2.00000000

  Lowest unoccupied state (CBM) at    -1.88247193 eV
  | Occupation number:      0.00000000

  Overall HOMO-LUMO gap:      3.71034562 eV.

  Total energy components:
  | Sum of eigenvalues            :        -166.50930851 Ha       -4530.94881672 eV
  | XC energy correction          :         -37.21958850 Ha       -1012.79653363 eV
  | XC potential correction       :          47.57660365 Ha        1294.62525505 eV
  | Free-atom electrostatic energy:        -143.25120880 Ha       -3898.06372263 eV
  | Hartree energy correction     :          -6.79835515 Ha        -184.99265587 eV
  | van der Waals energy corr.    :           0.00000000 Ha           0.00000000 eV
  | Entropy correction            :           0.00000000 Ha           0.00000000 eV
  | ---------------------------
  | Total energy                  :        -306.20185731 Ha       -8332.17647379 eV
  | Total energy, T -> 0          :        -306.20185731 Ha       -8332.17647379 eV  <-- do not rely on this value for anything but (periodic) metals
  | Electronic free energy        :        -306.20185731 Ha       -8332.17647379 eV

  Derived energy quantities:
  | Kinetic energy                :         305.14875991 Ha        8303.52023566 eV
  | Electrostatic energy          :        -574.13102872 Ha      -15622.90017582 eV
  | Energy correction for multipole
  | error in Hartree potential    :          -0.00578968 Ha          -0.15754513 eV
  | Sum of eigenvalues per atom                           :        -377.57906806 eV
  | Total energy (T->0) per atom                          :        -694.34803948 eV  <-- do not rely on this value for anything but (periodic) metals
  | Electronic free energy per atom                       :        -694.34803948 eV

  Self-consistency convergence accuracy:
  | Change of charge density      : 0.1160E+00
  | Change of sum of eigenvalues  : 0.2979E+02 eV
  | Change of total energy        : 0.2241E+00 eV

  End self-consistency iteration #     4       :  max(cpu_time)    wall_clock(cpu1)
  | Time for this iteration                    :        1.244 s           1.244 s
  | Charge density update                      :        0.385 s           0.385 s
  | Density mixing                             :        0.006 s           0.007 s
  | Hartree multipole update                   :        0.004 s           0.004 s
  | Hartree multipole summation                :        0.209 s           0.209 s
  | Integration                                :        0.608 s           0.607 s
  | Solution of K.-S. eqns.                    :        0.030 s           0.031 s
  | Total energy evaluation                    :        0.001 s           0.001 s
------------------------------------------------------------

------------------------------------------------------------
          Begin self-consistency iteration #    5

  Date     :  20150727, Time     :  123613.630
------------------------------------------------------------
  Evaluating new KS density.
  Integration grid: deviation in total charge (<rho> - N_e) =   1.421085E-14
  Pulay mixing of updated and previous charge densities.

  Evaluating partitioned Hartree potential by multipole expansion.
  | Analytical far-field extrapolation by fixed multipoles:
  | Hartree multipole sum: apparent total charge =  -0.367135E-05
  Summing up the Hartree potential.
  Time summed over all CPUs for potential: real work        1.656 s, elapsed        1.665 s
  | RMS charge density error from multipole expansion :   0.154759E-01

  Integrating Hamiltonian matrix: batch-based integration.
  Time summed over all CPUs for integration: real work        4.739 s, elapsed        4.844 s

  Updating Kohn-Sham eigenvalues, eigenvectors, occupation numbers, and Fermi level.
  Solving generalized eigenproblem
  Updating Kohn-Sham eigenvalues and eigenfunctions.
  Solving real generalised eigenvalue problem by standard LAPACK (fast)
  Determining occupation numbers for Kohn-Sham eigenstates.
  | Chemical potential (Fermi level) in eV                 : -.19685204E+01
  | Error in electron count due to remaining E_F inaccuracy: 0.00000000E+00
  | Maximum occupation number of highest empty state:  0.00E+00

  Highest occupied state (VBM) at     -5.32694196 eV
  | Occupation number:      2.00000000

  Lowest unoccupied state (CBM) at    -1.87914184 eV
  | Occupation number:      0.00000000

  Overall HOMO-LUMO gap:      3.44780012 eV.

  Total energy components:
  | Sum of eigenvalues            :        -166.37405307 Ha       -4527.26832900 eV
  | XC energy correction          :         -37.24102855 Ha       -1013.37994703 eV
  | XC potential correction       :          47.60420674 Ha        1295.37637349 eV
  | Free-atom electrostatic energy:        -143.25120880 Ha       -3898.06372263 eV
  | Hartree energy correction     :          -6.93952509 Ha        -188.83408542 eV
  | van der Waals energy corr.    :           0.00000000 Ha           0.00000000 eV
  | Entropy correction            :           0.00000000 Ha           0.00000000 eV
  | ---------------------------
  | Total energy                  :        -306.20160876 Ha       -8332.16971059 eV
  | Total energy, T -> 0          :        -306.20160876 Ha       -8332.16971059 eV  <-- do not rely on this value for anything but (periodic) metals
  | Electronic free energy        :        -306.20160876 Ha       -8332.16971059 eV

  Derived energy quantities:
  | Kinetic energy                :         305.18738050 Ha        8304.57115542 eV
  | Electrostatic energy          :        -574.14796072 Ha      -15623.36091898 eV
  | Energy correction for multipole
  | error in Hartree potential    :          -0.00606832 Ha          -0.16512746 eV
  | Sum of eigenvalues per atom                           :        -377.27236075 eV
  | Total energy (T->0) per atom                          :        -694.34747588 eV  <-- do not rely on this value for anything but (periodic) metals
  | Electronic free energy per atom                       :        -694.34747588 eV

  Self-consistency convergence accuracy:
  | Change of charge density      : 0.2999E-01
  | Change of sum of eigenvalues  : 0.3680E+01 eV
  | Change of total energy        : 0.6763E-02 eV

  End self-consistency iteration #     5       :  max(cpu_time)    wall_clock(cpu1)
  | Time for this iteration                    :        1.245 s           1.244 s
  | Charge density update                      :        0.385 s           0.385 s
  | Density mixing                             :        0.007 s           0.007 s
  | Hartree multipole update                   :        0.004 s           0.005 s
  | Hartree multipole summation                :        0.209 s           0.209 s
  | Integration                                :        0.607 s           0.606 s
  | Solution of K.-S. eqns.                    :        0.031 s           0.031 s
  | Total energy evaluation                    :        0.001 s           0.001 s
------------------------------------------------------------

------------------------------------------------------------
          Begin self-consistency iteration #    6

  Date     :  20150727, Time     :  123614.875
------------------------------------------------------------
  Evaluating new KS density.
  Integration grid: deviation in total charge (<rho> - N_e) =   7.105427E-15
  Pulay mixing of updated and previous charge densities.

  Evaluating partitioned Hartree potential by multipole expansion.
  | Analytical far-field extrapolation by fixed multipoles:
  | Hartree multipole sum: apparent total charge =  -0.365927E-05
  Summing up the Hartree potential.
  Time summed over all CPUs for potential: real work        1.655 s, elapsed        1.665 s
  | RMS charge density error from multipole expansion :   0.157952E-01

  Integrating Hamiltonian matrix: batch-based integration.
  Time summed over all CPUs for integration: real work        4.746 s, elapsed        4.845 s

  Updating Kohn-Sham eigenvalues, eigenvectors, occupation numbers, and Fermi level.
  Solving generalized eigenproblem
  Updating Kohn-Sham eigenvalues and eigenfunctions.
  Solving real generalised eigenvalue problem by standard LAPACK (fast)
  Determining occupation numbers for Kohn-Sham eigenstates.
  | Chemical potential (Fermi level) in eV                 : -.19572289E+01
  | Error in electron count due to remaining E_F inaccuracy: 0.00000000E+00
  | Maximum occupation number of highest empty state:  0.00E+00

  Highest occupied state (VBM) at     -5.26697818 eV
  | Occupation number:      2.00000000

  Lowest unoccupied state (CBM) at    -1.87051448 eV
  | Occupation number:      0.00000000

  Overall HOMO-LUMO gap:      3.39646370 eV.

  Total energy components:
  | Sum of eigenvalues            :        -166.31251217 Ha       -4525.59371571 eV
  | XC energy correction          :         -37.25039392 Ha       -1013.63479170 eV
  | XC potential correction       :          47.61624746 Ha        1295.70401821 eV
  | Free-atom electrostatic energy:        -143.25120880 Ha       -3898.06372263 eV
  | Hartree energy correction     :          -7.00383245 Ha        -190.58397773 eV
  | van der Waals energy corr.    :           0.00000000 Ha           0.00000000 eV
  | Entropy correction            :           0.00000000 Ha           0.00000000 eV
  | ---------------------------
  | Total energy                  :        -306.20169986 Ha       -8332.17218957 eV
  | Total energy, T -> 0          :        -306.20169986 Ha       -8332.17218957 eV  <-- do not rely on this value for anything but (periodic) metals
  | Electronic free energy        :        -306.20169986 Ha       -8332.17218957 eV

  Derived energy quantities:
  | Kinetic energy                :         305.19647492 Ha        8304.81862715 eV
  | Electrostatic energy          :        -574.14778087 Ha      -15623.35602502 eV
  | Energy correction for multipole
  | error in Hartree potential    :          -0.00619651 Ha          -0.16861562 eV
  | Sum of eigenvalues per atom                           :        -377.13280964 eV
  | Total energy (T->0) per atom                          :        -694.34768246 eV  <-- do not rely on this value for anything but (periodic) metals
  | Electronic free energy per atom                       :        -694.34768246 eV

  Self-consistency convergence accuracy:
  | Change of charge density      : 0.8814E-02
  | Change of sum of eigenvalues  : 0.1675E+01 eV
  | Change of total energy        : -.2479E-02 eV

  End self-consistency iteration #     6       :  max(cpu_time)    wall_clock(cpu1)
  | Time for this iteration                    :        1.246 s           1.245 s
  | Charge density update                      :        0.386 s           0.385 s
  | Density mixing                             :        0.008 s           0.008 s
  | Hartree multipole update                   :        0.004 s           0.004 s
  | Hartree multipole summation                :        0.208 s           0.209 s
  | Integration                                :        0.606 s           0.606 s
  | Solution of K.-S. eqns.                    :        0.030 s           0.031 s
  | Total energy evaluation                    :        0.000 s           0.001 s
------------------------------------------------------------

------------------------------------------------------------
          Begin self-consistency iteration #    7

  Date     :  20150727, Time     :  123616.120
------------------------------------------------------------
  Evaluating new KS density.
  Integration grid: deviation in total charge (<rho> - N_e) =  -7.105427E-15
  Pulay mixing of updated and previous charge densities.

  Evaluating partitioned Hartree potential by multipole expansion.
  | Analytical far-field extrapolation by fixed multipoles:
  | Hartree multipole sum: apparent total charge =  -0.351567E-05
  Summing up the Hartree potential.
  Time summed over all CPUs for potential: real work        1.656 s, elapsed        1.665 s
  | RMS charge density error from multipole expansion :   0.157310E-01

  Integrating Hamiltonian matrix: batch-based integration.
  Time summed over all CPUs for integration: real work        4.746 s, elapsed        4.847 s

  Updating Kohn-Sham eigenvalues, eigenvectors, occupation numbers, and Fermi level.
  Solving generalized eigenproblem
  Updating Kohn-Sham eigenvalues and eigenfunctions.
  Solving real generalised eigenvalue problem by standard LAPACK (fast)
  Determining occupation numbers for Kohn-Sham eigenstates.
  | Chemical potential (Fermi level) in eV                 : -.19830372E+01
  | Error in electron count due to remaining E_F inaccuracy: 0.00000000E+00
  | Maximum occupation number of highest empty state:  0.00E+00

  Highest occupied state (VBM) at     -5.40005419 eV
  | Occupation number:      2.00000000

  Lowest unoccupied state (CBM) at    -1.88041589 eV
  | Occupation number:      0.00000000

  Overall HOMO-LUMO gap:      3.51963830 eV.

  Total energy components:
  | Sum of eigenvalues            :        -166.42571915 Ha       -4528.67423445 eV
  | XC energy correction          :         -37.23785809 Ha       -1013.29367443 eV
  | XC potential correction       :          47.59950433 Ha        1295.24841442 eV
  | Free-atom electrostatic energy:        -143.25120880 Ha       -3898.06372263 eV
  | Hartree energy correction     :          -6.88630547 Ha        -187.38590589 eV
  | van der Waals energy corr.    :           0.00000000 Ha           0.00000000 eV
  | Entropy correction            :           0.00000000 Ha           0.00000000 eV
  | ---------------------------
  | Total energy                  :        -306.20158717 Ha       -8332.16912298 eV
  | Total energy, T -> 0          :        -306.20158717 Ha       -8332.16912298 eV  <-- do not rely on this value for anything but (periodic) metals
  | Electronic free energy        :        -306.20158717 Ha       -8332.16912298 eV

  Derived energy quantities:
  | Kinetic energy                :         305.23162144 Ha        8305.77501253 eV
  | Electrostatic energy          :        -574.19535052 Ha      -15624.65046108 eV
  | Energy correction for multipole
  | error in Hartree potential    :          -0.00608432 Ha          -0.16556286 eV
  | Sum of eigenvalues per atom                           :        -377.38951954 eV
  | Total energy (T->0) per atom                          :        -694.34742691 eV  <-- do not rely on this value for anything but (periodic) metals
  | Electronic free energy per atom                       :        -694.34742691 eV

  Self-consistency convergence accuracy:
  | Change of charge density      : 0.1060E-01
  | Change of sum of eigenvalues  : -.3081E+01 eV
  | Change of total energy        : 0.3067E-02 eV

  End self-consistency iteration #     7       :  max(cpu_time)    wall_clock(cpu1)
  | Time for this iteration                    :        1.247 s           1.246 s
  | Charge density update                      :        0.386 s           0.385 s
  | Density mixing                             :        0.010 s           0.009 s
  | Hartree multipole update                   :        0.004 s           0.004 s
  | Hartree multipole summation                :        0.209 s           0.209 s
  | Integration                                :        0.607 s           0.606 s
  | Solution of K.-S. eqns.                    :        0.030 s           0.031 s
  | Total energy evaluation                    :        0.001 s           0.001 s
------------------------------------------------------------

------------------------------------------------------------
          Begin self-consistency iteration #    8

  Date     :  20150727, Time     :  123617.368
------------------------------------------------------------
  Evaluating new KS density.
  Integration grid: deviation in total charge (<rho> - N_e) =  -1.421085E-14
  Pulay mixing of updated and previous charge densities.

  Evaluating partitioned Hartree potential by multipole expansion.
  | Analytical far-field extrapolation by fixed multipoles:
  | Hartree multipole sum: apparent total charge =  -0.349621E-05
  Summing up the Hartree potential.
  Time summed over all CPUs for potential: real work        1.655 s, elapsed        1.665 s
  | RMS charge density error from multipole expansion :   0.157275E-01

  Integrating Hamiltonian matrix: batch-based integration.
  Time summed over all CPUs for integration: real work        4.746 s, elapsed        4.846 s

  Updating Kohn-Sham eigenvalues, eigenvectors, occupation numbers, and Fermi level.
  Solving generalized eigenproblem
  Updating Kohn-Sham eigenvalues and eigenfunctions.
  Solving real generalised eigenvalue problem by standard LAPACK (fast)
  Determining occupation numbers for Kohn-Sham eigenstates.
  | Chemical potential (Fermi level) in eV                 : -.19846659E+01
  | Error in electron count due to remaining E_F inaccuracy: 0.00000000E+00
  | Maximum occupation number of highest empty state:  0.00E+00

  Highest occupied state (VBM) at     -5.40481777 eV
  | Occupation number:      2.00000000

  Lowest unoccupied state (CBM) at    -1.88124858 eV
  | Occupation number:      0.00000000

  Overall HOMO-LUMO gap:      3.52356918 eV.

  Total energy components:
  | Sum of eigenvalues            :        -166.43621453 Ha       -4528.95982832 eV
  | XC energy correction          :         -37.23648846 Ha       -1013.25640489 eV
  | XC potential correction       :          47.59767268 Ha        1295.19857259 eV
  | Free-atom electrostatic energy:        -143.25120880 Ha       -3898.06372263 eV
  | Hartree energy correction     :          -6.87534474 Ha        -187.08764922 eV
  | van der Waals energy corr.    :           0.00000000 Ha           0.00000000 eV
  | Entropy correction            :           0.00000000 Ha           0.00000000 eV
  | ---------------------------
  | Total energy                  :        -306.20158384 Ha       -8332.16903246 eV
  | Total energy, T -> 0          :        -306.20158384 Ha       -8332.16903246 eV  <-- do not rely on this value for anything but (periodic) metals
  | Electronic free energy        :        -306.20158384 Ha       -8332.16903246 eV

  Derived energy quantities:
  | Kinetic energy                :         305.23535098 Ha        8305.87649841 eV
  | Electrostatic energy          :        -574.20044636 Ha      -15624.78912599 eV
  | Energy correction for multipole
  | error in Hartree potential    :          -0.00607928 Ha          -0.16542558 eV
  | Sum of eigenvalues per atom                           :        -377.41331903 eV
  | Total energy (T->0) per atom                          :        -694.34741937 eV  <-- do not rely on this value for anything but (periodic) metals
  | Electronic free energy per atom                       :        -694.34741937 eV

  Self-consistency convergence accuracy:
  | Change of charge density      : 0.1753E-02
  | Change of sum of eigenvalues  : -.2856E+00 eV
  | Change of total energy        : 0.9052E-04 eV

  End self-consistency iteration #     8       :  max(cpu_time)    wall_clock(cpu1)
  | Time for this iteration                    :        1.248 s           1.248 s
  | Charge density update                      :        0.386 s           0.385 s
  | Density mixing                             :        0.010 s           0.010 s
  | Hartree multipole update                   :        0.005 s           0.004 s
  | Hartree multipole summation                :        0.208 s           0.209 s
  | Integration                                :        0.606 s           0.607 s
  | Solution of K.-S. eqns.                    :        0.030 s           0.030 s
  | Total energy evaluation                    :        0.000 s           0.000 s
------------------------------------------------------------

------------------------------------------------------------
          Begin self-consistency iteration #    9

  Date     :  20150727, Time     :  123618.616
------------------------------------------------------------
  Evaluating new KS density.
  Integration grid: deviation in total charge (<rho> - N_e) =   0.000000E+00
  Pulay mixing of updated and previous charge densities.

  Evaluating partitioned Hartree potential by multipole expansion.
  | Analytical far-field extrapolation by fixed multipoles:
  | Hartree multipole sum: apparent total charge =  -0.348625E-05
  Summing up the Hartree potential.
  Time summed over all CPUs for potential: real work        1.656 s, elapsed        1.665 s
  | RMS charge density error from multipole expansion :   0.157242E-01

  Integrating Hamiltonian matrix: batch-based integration.
  Time summed over all CPUs for integration: real work        4.745 s, elapsed        4.848 s

  Updating Kohn-Sham eigenvalues, eigenvectors, occupation numbers, and Fermi level.
  Solving generalized eigenproblem
  Updating Kohn-Sham eigenvalues and eigenfunctions.
  Solving real generalised eigenvalue problem by standard LAPACK (fast)
  Determining occupation numbers for Kohn-Sham eigenstates.
  | Chemical potential (Fermi level) in eV                 : -.19850189E+01
  | Error in electron count due to remaining E_F inaccuracy: 0.00000000E+00
  | Maximum occupation number of highest empty state:  0.00E+00

  Highest occupied state (VBM) at     -5.41420731 eV
  | Occupation number:      2.00000000

  Lowest unoccupied state (CBM) at    -1.88137368 eV
  | Occupation number:      0.00000000

  Overall HOMO-LUMO gap:      3.53283363 eV.

  Total energy components:
  | Sum of eigenvalues            :        -166.44062135 Ha       -4529.07974399 eV
  | XC energy correction          :         -37.23590731 Ha       -1013.24059095 eV
  | XC potential correction       :          47.59688999 Ha        1295.17727445 eV
  | Free-atom electrostatic energy:        -143.25120880 Ha       -3898.06372263 eV
  | Hartree energy correction     :          -6.87073564 Ha        -186.96222941 eV
  | van der Waals energy corr.    :           0.00000000 Ha           0.00000000 eV
  | Entropy correction            :           0.00000000 Ha           0.00000000 eV
  | ---------------------------
  | Total energy                  :        -306.20158311 Ha       -8332.16901253 eV
  | Total energy, T -> 0          :        -306.20158311 Ha       -8332.16901253 eV  <-- do not rely on this value for anything but (periodic) metals
  | Electronic free energy        :        -306.20158311 Ha       -8332.16901253 eV

  Derived energy quantities:
  | Kinetic energy                :         305.23957601 Ha        8305.99146756 eV
  | Electrostatic energy          :        -574.20525182 Ha      -15624.91988914 eV
  | Energy correction for multipole
  | error in Hartree potential    :          -0.00607254 Ha          -0.16524235 eV
  | Sum of eigenvalues per atom                           :        -377.42331200 eV
  | Total energy (T->0) per atom                          :        -694.34741771 eV  <-- do not rely on this value for anything but (periodic) metals
  | Electronic free energy per atom                       :        -694.34741771 eV

  Self-consistency convergence accuracy:
  | Change of charge density      : 0.8635E-03
  | Change of sum of eigenvalues  : -.1199E+00 eV
  | Change of total energy        : 0.1994E-04 eV

  End self-consistency iteration #     9       :  max(cpu_time)    wall_clock(cpu1)
  | Time for this iteration                    :        1.250 s           1.250 s
  | Charge density update                      :        0.387 s           0.386 s
  | Density mixing                             :        0.011 s           0.012 s
  | Hartree multipole update                   :        0.004 s           0.004 s
  | Hartree multipole summation                :        0.209 s           0.209 s
  | Integration                                :        0.607 s           0.607 s
  | Solution of K.-S. eqns.                    :        0.030 s           0.031 s
  | Total energy evaluation                    :        0.000 s           0.001 s
------------------------------------------------------------

------------------------------------------------------------
          Begin self-consistency iteration #   10

  Date     :  20150727, Time     :  123619.866
------------------------------------------------------------
  Evaluating new KS density.
  Integration grid: deviation in total charge (<rho> - N_e) =  -7.105427E-15
  Pulay mixing of updated and previous charge densities.

  Evaluating partitioned Hartree potential by multipole expansion.
  | Analytical far-field extrapolation by fixed multipoles:
  | Hartree multipole sum: apparent total charge =  -0.348575E-05
  Summing up the Hartree potential.
  Time summed over all CPUs for potential: real work        1.655 s, elapsed        1.665 s
  | RMS charge density error from multipole expansion :   0.157430E-01

  Integrating Hamiltonian matrix: batch-based integration.
  Time summed over all CPUs for integration: real work        4.738 s, elapsed        4.846 s

  Updating Kohn-Sham eigenvalues, eigenvectors, occupation numbers, and Fermi level.
  Solving generalized eigenproblem
[...]
  |                                 -0.00942369       0.10953226      -0.00874420
  |                                  0.00964150      -0.00874420       0.09846016
  ----------------------------------------------------------------------


  Total energy components:
  | Sum of eigenvalues            :        -166.43514327 Ha       -4528.93067786 eV
  | XC energy correction          :         -37.23655347 Ha       -1013.25817382 eV
  | XC potential correction       :          47.59772221 Ha        1295.19992033 eV
  | Free-atom electrostatic energy:        -143.25120880 Ha       -3898.06372263 eV
  | Hartree energy correction     :          -6.87639969 Ha        -187.11635602 eV
  | van der Waals energy corr.    :          -0.00176102 Ha          -0.04791971 eV
  | Entropy correction            :           0.00000000 Ha           0.00000000 eV
  | ---------------------------
  | Total energy                  :        -306.20334403 Ha       -8332.21692972 eV
  | Total energy, T -> 0          :        -306.20334403 Ha       -8332.21692972 eV  <-- do not rely on this value for anything but (periodic) metals
  | Electronic free energy        :        -306.20334403 Ha       -8332.21692972 eV

  Derived energy quantities:
  | Kinetic energy                :         305.24104089 Ha        8306.03132871 eV
  | Electrostatic energy          :        -574.20607044 Ha      -15624.94216490 eV
  | Energy correction for multipole
  | error in Hartree potential    :          -0.00608526 Ha          -0.16558826 eV
  | Sum of eigenvalues per atom                           :        -377.41088982 eV
  | Total energy (T->0) per atom                          :        -694.35141081 eV  <-- do not rely on this value for anything but (periodic) metals
  | Electronic free energy per atom                       :        -694.35141081 eV

  atomic forces [eV/Ang]:
  -----------------------
  atom #    1
   Hellmann-Feynman + Multipole  : -.671047E+01 -.110761E+02 0.257848E+01
   Pulay + GGA                   : 0.496629E+01 0.144578E+02 -.386087E+01
   Van der Waals               : -.128758E-02 0.425443E-02 0.184063E-02
   ----------------------------------------------------------------
   Total forces(   1)            : -.174547E+01 0.338588E+01 -.128054E+01
  atom #    2
   Hellmann-Feynman + Multipole  : 0.223606E+01 -.361221E+01 0.156176E+01
   Pulay + GGA                   : -.393123E-01 0.912310E-01 -.390481E-01
   Van der Waals               : 0.507257E-03 0.516917E-02 0.281044E-02
   ----------------------------------------------------------------
   Total forces(   2)            : 0.219726E+01 -.351581E+01 0.152552E+01
  atom #    3
   Hellmann-Feynman + Multipole  : -.155896E+01 -.231900E+00 -.329810E+00
   Pulay + GGA                   : 0.653554E-01 0.137244E-01 0.339963E-01
   Van der Waals               : -.267396E-03 0.530655E-02 0.278416E-02
   ----------------------------------------------------------------
   Total forces(   3)            : -.149387E+01 -.212869E+00 -.293029E+00
  atom #    4
   Hellmann-Feynman + Multipole  : -.570974E+01 0.124228E+01 -.988361E+01
   Pulay + GGA                   : 0.862477E+01 -.140930E+01 0.110813E+02
   Van der Waals               : 0.294709E-02 0.416990E-02 0.212147E-02
   ----------------------------------------------------------------
   Total forces(   4)            : 0.291797E+01 -.162844E+00 0.119983E+01
  atom #    5
   Hellmann-Feynman + Multipole  : -.310622E+00 -.566811E+00 -.961756E+00
   Pulay + GGA                   : 0.487944E-01 0.446315E-01 0.726759E-01
   Van der Waals               : 0.207884E-02 -.951942E-03 -.254370E-02
   ----------------------------------------------------------------
   Total forces(   5)            : -.259749E+00 -.523132E+00 -.891624E+00
  atom #    6
   Hellmann-Feynman + Multipole  : -.172289E+01 0.999591E+00 -.408188E+00
   Pulay + GGA                   : 0.118664E+00 -.516612E-01 0.241493E-01
   Van der Waals               : -.241645E-02 0.324827E-02 0.205344E-02
   ----------------------------------------------------------------
   Total forces(   6)            : -.160664E+01 0.951178E+00 -.381985E+00
  atom #    7
   Hellmann-Feynman + Multipole  : -.176209E+01 -.199310E+01 -.139910E+02
   Pulay + GGA                   : 0.278632E+01 0.233722E+01 0.126698E+02
   Van der Waals               : -.479745E-03 -.307842E-02 -.664434E-03
   ----------------------------------------------------------------
   Total forces(   7)            : 0.102375E+01 0.341046E+00 -.132184E+01
  atom #    8
   Hellmann-Feynman + Multipole  : -.427075E+00 -.219741E+00 0.327383E+00
   Pulay + GGA                   : 0.968475E-01 0.556518E-01 0.550034E-01
   Van der Waals               : -.757638E-03 -.431631E-03 -.117304E-02
   ----------------------------------------------------------------
   Total forces(   8)            : -.330985E+00 -.164521E+00 0.381213E+00
  atom #    9
   Hellmann-Feynman + Multipole  : -.439611E+00 -.163423E+00 0.110837E+01
   Pulay + GGA                   : -.695696E-01 -.429736E-01 0.983367E-01
   Van der Waals               : -.159774E-03 -.357452E-02 -.232471E-02
   ----------------------------------------------------------------
   Total forces(   9)            : -.509340E+00 -.209971E+00 0.120438E+01
  atom #   10
   Hellmann-Feynman + Multipole  : -.139636E+02 -.495147E+01 0.519720E+00
   Pulay + GGA                   : 0.148810E+02 0.655215E+01 -.122964E+01
   Van der Waals               : 0.945048E-03 -.659197E-02 -.296113E-02
   ----------------------------------------------------------------
   Total forces(  10)            : 0.918312E+00 0.159408E+01 -.712877E+00
  atom #   11
   Hellmann-Feynman + Multipole  : -.440735E+00 -.217432E-01 -.959551E-01
   Pulay + GGA                   : 0.858811E-01 -.274421E-01 0.205846E-01
   Van der Waals               : -.346899E-02 -.346768E-02 -.413659E-02
   ----------------------------------------------------------------
   Total forces(  11)            : -.358323E+00 -.526530E-01 -.795071E-01
  atom #   12
   Hellmann-Feynman + Multipole  : -.817032E+00 -.153966E+01 0.692610E+00
   Pulay + GGA                   : 0.605837E-01 0.110356E+00 -.526493E-01
   Van der Waals               : 0.235934E-02 -.405215E-02 0.219345E-02
   ----------------------------------------------------------------
   Total forces(  12)            : -.754089E+00 -.143336E+01 0.642154E+00
  Timings for vdw_correction_hirshfeld (Tkatchenko-Scheffler 2009):
  | CPU time:        3.235 s, Wall clock time:        3.237 s.
  Removing unitary transformations (pure translations, rotations) from forces on atoms.
  Atomic forces before filtering:
  | Net force on center of mass :  -.117967E-02 -.298147E-02 -.829680E-02 eV/A
  | Net torque on center of mass:  0.769459E-02 -.105855E-01 -.100130E-01 eV
  Atomic forces after filtering:
  | Net force on center of mass :  -.142725E-14 0.178406E-15 0.356812E-15 eV/A
  | Net torque on center of mass:  -.755268E-15 0.188817E-14 0.000000E+00 eV
 
  Energy and forces in a compact form:
  | Total energy uncorrected      :         -0.833221692971593E+04 eV
  | Total energy corrected        :         -0.833221692971593E+04 eV  <-- do not rely on this value for anything but (periodic) metals
  | Electronic free energy        :         -0.833221692971593E+04 eV
  Total atomic forces (unitary forces cleaned) [eV/Ang]:
  |   1         -0.174519932507088E+01          0.338563729404108E+01         -0.127881987724336E+01
  |   2          0.219710783184223E+01         -0.351625894259523E+01          0.152731765053769E+01
  |   3         -0.149365312624530E+01         -0.212850802263746E+00         -0.291821815093127E+00
  |   4          0.291804241135952E+01         -0.162466562812377E+00          0.120026720038823E+01
  |   5         -0.259469059420708E+00         -0.522588531548164E+00         -0.891345336203188E+00
  |   6         -0.160636067421444E+01          0.951788006602976E+00         -0.381829739208381E+00
  |   7          0.102423801545125E+01          0.341705591052028E+00         -0.132161882565007E+01
  |   8         -0.330470748610845E+00         -0.163606546217021E+00          0.380977139562301E+00
  |   9         -0.508444584532828E+00         -0.209322423243215E+00          0.120491926405430E+01
  |  10          0.917803376274779E+00          0.159395150698195E+01         -0.711934229529778E+00
  |  11         -0.358577805324007E+00         -0.525038996187531E-01         -0.788912352498231E-01
  |  12         -0.755016311508777E+00         -0.143348469037953E+01          0.642779803635210E+00
 
  ------------------------------------ 
  Start decomposition of the XC Energy 
  ------------------------------------ 
  Hartree-Fock part   :          0.000000000 Ha              0.000000000 eV
  ------------------------------------ 
  X Energy            :        -35.929826517 Ha           -977.700324379 eV
  C Energy GGA        :         -1.306726949 Ha            -35.557849441 eV
  Total XC Energy     :        -37.236553466 Ha          -1013.258173820 eV
  LDA X and C from self-consistent density 
  X Energy LDA        :        -32.375161656 Ha           -880.972972058 eV
  C Energy LDA        :         -2.637742370 Ha            -71.776621853 eV
  ------------------------------------ 
  End decomposition of the XC Energy 
  ------------------------------------ 
  Performing Hirshfeld analysis of fragment charges and moments.
  ----------------------------------------------------------------------
  | Atom     1: O
  |   Hirshfeld charge        :     -0.36207069
  |   Free atom volume        :     23.95238533
  |   Hirshfeld volume        :     24.18442532
  |   Hirshfeld dipole vector :      0.04393637       0.05946272      -0.02002876
  |   Hirshfeld dipole moment :      0.07659876
  |   Hirshfeld second moments:     -0.00199454      -0.03599370       0.02977859
  |                                 -0.03599370      -0.04290014      -0.02765034
  |                                  0.02977859      -0.02765034      -0.10137747
  ----------------------------------------------------------------------
  | Atom     2: H
  |   Hirshfeld charge        :      0.12059592
  |   Free atom volume        :     10.44207651
  |   Hirshfeld volume        :      7.70071397
  |   Hirshfeld dipole vector :     -0.05754130       0.09009576      -0.04347869
  |   Hirshfeld dipole moment :      0.11540643
  |   Hirshfeld second moments:      0.10777992       0.00215743       0.00689672
  |                                  0.00215743       0.06114631      -0.00241514
  |                                  0.00689672      -0.00241514       0.07486540
  ----------------------------------------------------------------------
  | Atom     3: H
  |   Hirshfeld charge        :      0.05758102
  |   Free atom volume        :     10.44207651
  |   Hirshfeld volume        :      8.58742261
  |   Hirshfeld dipole vector :      0.04650497       0.00803007       0.00536245
  |   Hirshfeld dipole moment :      0.04749684
  |   Hirshfeld second moments:      0.01820676      -0.03010247       0.00544862
  |                                 -0.03010247       0.07394334      -0.00496941
  |                                  0.00544862      -0.00496941       0.05689333
  ----------------------------------------------------------------------
  | Atom     4: O
  |   Hirshfeld charge        :     -0.20721823
  |   Free atom volume        :     23.95238533
  |   Hirshfeld volume        :     20.88785534
  |   Hirshfeld dipole vector :     -0.01852204      -0.02446397       0.02687969
  |   Hirshfeld dipole moment :      0.04079301
  |   Hirshfeld second moments:      0.06856569      -0.02574307       0.00826546
  |                                 -0.02574307       0.06605175       0.02961735
  |                                  0.00826546       0.02961735       0.03079930
  ----------------------------------------------------------------------
  | Atom     5: H
  |   Hirshfeld charge        :      0.11070206
  |   Free atom volume        :     10.44207651
  |   Hirshfeld volume        :      7.25485543
  |   Hirshfeld dipole vector :      0.01157757       0.02679862       0.04640059
  |   Hirshfeld dipole moment :      0.05481990
  |   Hirshfeld second moments:      0.11096571      -0.00085434       0.00803780
  |                                 -0.00085434       0.07808571      -0.02629379
  |                                  0.00803780      -0.02629379       0.06577861
  ----------------------------------------------------------------------
  | Atom     6: H
  |   Hirshfeld charge        :      0.16240942
  |   Free atom volume        :     10.44207651
  |   Hirshfeld volume        :      5.92484757
  |   Hirshfeld dipole vector :      0.09135386      -0.07700733       0.01185062
  |   Hirshfeld dipole moment :      0.12006704
  |   Hirshfeld second moments:      0.12223176       0.00238556       0.00117601
  |                                  0.00238556       0.12497665       0.01349012
  |                                  0.00117601       0.01349012       0.12541665
  ----------------------------------------------------------------------
  | Atom     7: O
  |   Hirshfeld charge        :     -0.17445574
  |   Free atom volume        :     23.95238533
  |   Hirshfeld volume        :     19.32384188
  |   Hirshfeld dipole vector :     -0.00914737       0.00139177       0.00673631
  |   Hirshfeld dipole moment :      0.01144506
  |   Hirshfeld second moments:      0.11447115       0.03104117      -0.00931334
  |                                  0.03104117       0.08568149      -0.00168060
  |                                 -0.00931334      -0.00168060       0.09861514
  ----------------------------------------------------------------------
  | Atom     8: H
  |   Hirshfeld charge        :      0.18659436
  |   Free atom volume        :     10.44207651
  |   Hirshfeld volume        :      5.25689808
  |   Hirshfeld dipole vector :      0.09604747       0.06713163       0.03234584
  |   Hirshfeld dipole moment :      0.12156490
  |   Hirshfeld second moments:      0.14005457       0.00406964      -0.00988338
  |                                  0.00406964       0.13518252      -0.00504932
  |                                 -0.00988338      -0.00504932       0.14894199
  ----------------------------------------------------------------------
  | Atom     9: H
  |   Hirshfeld charge        :      0.18870999
  |   Free atom volume        :     10.44207651
  |   Hirshfeld volume        :      5.68484112
  |   Hirshfeld dipole vector :     -0.07497101      -0.03924266       0.08559774
  |   Hirshfeld dipole moment :      0.12036450
  |   Hirshfeld second moments:      0.13530564       0.00785066       0.00286815
  |                                  0.00785066       0.13100167       0.00310798
  |                                  0.00286815       0.00310798       0.13795359
  ----------------------------------------------------------------------
  | Atom    10: O
  |   Hirshfeld charge        :     -0.30961989
  |   Free atom volume        :     23.95238533
  |   Hirshfeld volume        :     22.44403527
  |   Hirshfeld dipole vector :      0.05124162       0.01160387      -0.00937922
  |   Hirshfeld dipole moment :      0.05336969
  |   Hirshfeld second moments:     -0.00675564      -0.00893925       0.01548610
  |                                 -0.00893925       0.03764164      -0.04978931
  |                                  0.01548610      -0.04978931      -0.03059145
  ----------------------------------------------------------------------
  | Atom    11: H
  |   Hirshfeld charge        :      0.09063236
  |   Free atom volume        :     10.44207651
  |   Hirshfeld volume        :      7.58884342
  |   Hirshfeld dipole vector :      0.06176025      -0.02249441       0.01128292
  |   Hirshfeld dipole moment :      0.06669057
  |   Hirshfeld second moments:      0.06181187       0.02803620      -0.01912462
  |                                  0.02803620       0.09090823      -0.00242155
  |                                 -0.01912462      -0.00242155       0.07455330
  ----------------------------------------------------------------------
  | Atom    12: H
  |   Hirshfeld charge        :      0.13615389
  |   Free atom volume        :     10.44207651
  |   Hirshfeld volume        :      6.47366029
  |   Hirshfeld dipole vector :      0.03819596       0.10453733      -0.05450518
  |   Hirshfeld dipole moment :      0.12392659
  |   Hirshfeld second moments:      0.11716634      -0.00942369       0.00964150
  |                                 -0.00942369       0.10953226      -0.00874420
  |                                  0.00964150      -0.00874420       0.09846016
  ----------------------------------------------------------------------


------------------------------------------------------------------------------
  Final output of selected total energy values:

  The following output summarizes some interesting total energy values
  at the end of a run (AFTER all relaxation, molecular dynamics, etc.).

  | Total energy of the DFT / Hartree-Fock s.c.f. calculation      :          -8332.216929716 eV
  | Final zero-broadening corrected energy (caution - metals only) :          -8332.216929716 eV
  | For reference only, the value of 1 Hartree used in FHI-aims is :             27.211384500 eV

  Before relying on these values, please be sure to understand exactly which
  total energy value is referred to by a given number. Different objects may
  all carry the same name 'total energy'. Definitions:

  Total energy of the DFT / Hartree-Fock s.c.f. calculation:
  | Note that this energy does not include ANY quantities calculated after the
  | s.c.f. cycle, in particular not ANY RPA, MP2, etc. many-body perturbation terms.

  Final zero-broadening corrected energy:
  | For metallic systems only, a broadening of the occupation numbers at the Fermi
  | level can be extrapolated back to zero broadening by an electron-gas inspired
  | formula. For all systems that are not real metals, this value can be
  | meaningless and should be avoided.

------------------------------------------------------------------------------

------------------------------------------------------------
          Leaving FHI-aims.
          Date     :  20150727, Time     :  123629.809

          Computational steps:
          | Number of self-consistency cycles          :           15

          Detailed time accounting                     :  max(cpu_time)    wall_clock(cpu1)
          | Total time                                 :       22.890 s          22.917 s
          | Preparation time                           :        0.171 s           0.402 s
          | Grid partitioning                          :        0.115 s           0.116 s
          | Preloading free-atom quantities on grid    :        0.013 s           0.013 s
          | Free-atom superposition energy             :        0.046 s           0.046 s
          | Total time for integrations                :       10.036 s          10.035 s
          | Total time for solution of K.-S. equations :        0.573 s           0.580 s
          | Total time for density & force components  :        7.433 s           7.425 s
          | Total time for mixing                      :        0.145 s           0.146 s
          | Total time for Hartree multipole update    :        0.062 s           0.064 s
          | Total time for Hartree multipole sum       :        3.821 s           3.823 s
          | Total time for total energy evaluation     :        0.006 s           0.018 s
          | Total time for scaled ZORA corrections     :        0.000 s           0.000 s
          | Total time for TS (2009) vdW correction    :        0.038 s           0.041 s

          Have a nice day.
------------------------------------------------------------
