  MPI-parallelism will be employed.
------------------------------------------------------------
          Invoking FHI-aims ...
          Version 081213
          Compiled on 2013/08/29 at 17:41:06 on host generoso.

          When using FHI-aims, please cite the following reference:

          Volker Blum, Ralf Gehrke, Felix Hanke, Paula Havu,
          Ville Havu, Xinguo Ren, Karsten Reuter, and Matthias Scheffler,
          'Ab Initio Molecular Simulations with Numeric Atom-Centered Orbitals: FHI-aims',
          Computer Physics Communications 180, 2175-2196 (2009)

          For any questions about FHI-aims, please visit the aimsclub website
          with its forums and wiki. Contributions to both the forums and the
          wiki are warmly encouraged - they are for you, and everyone is welcome there.

------------------------------------------------------------

  Date     :  20150727, Time     :  122220.203
  Time zero on CPU 1             :   0.489920000000000E-01  s.
  Internal wall clock time zero  :           207231740.203  s.

  Using        8 parallel tasks.
  Task        0 on host gen60 reporting.
  Task        1 on host gen60 reporting.
  Task        2 on host gen60 reporting.
  Task        3 on host gen60 reporting.
  Task        4 on host gen60 reporting.
  Task        5 on host gen60 reporting.
  Task        6 on host gen60 reporting.
  Task        7 on host gen60 reporting.

  Performing system and environment tests:
  | Environment variable OMP_NUM_THREADS correctly set to 1.
  | Checking for scalapack...
  | No scalapack compiled in.

  Obtaining array dimensions for all initial allocations:
  
  -----------------------------------------------------------------------
  Parsing control.in (first pass over file, find array dimensions only).
  The contents of control.in will be repeated verbatim below
  unless switched off by setting 'verbatim_writeout .false.' .
  in the first line of control.in .
  -----------------------------------------------------------------------
  
  #########################################################################################
  #
  #  Volker Blum, FHI 2008 : Test run input file control.in
  #
  #########################################################################################
  #
  #  Physical model
  #
    xc                 rpbe
    spin               none
    relativistic       atomic_zora scalar
    charge             0.
   vdw_correction_hirshfeld
  #
  #  SCF convergence
  #
    occupation_type    gaussian 0.01
    mixer              pulay
      n_max_pulay        10
      charge_mix_param   0.1
    sc_accuracy_rho    5E-5
    sc_accuracy_eev    5E-3
    sc_accuracy_etot   5E-6
    sc_iter_limit      3000
  #
  #  Eigenvalue solver
  #
    KS_method          lapack
      empty_states       8
      basis_threshold    0.e-5
  #
  #  Efficiency
  #
  #   all previous settings are now default, except stratmann still
  #   undecided. Continue to handle stratmann with care, if at all.
  #
  #  partition_type stratmann
    partition_type rho_r2
  #  hartree_partition_type stratmann
  #
  #  Oprions for large clusters (100's of atoms: memory saving / better scaling)
  #
  # for periodic systems:
  #
    density_update_method orbital
    packed_matrix_format none
  #  k_grid 6 6 6
  #  output k_eigenvalue 1
  #  distributed_spline_storage .true.
  #
  #  Relaxation
  #
  #  relax_geometry   bfgs 5.e-3
    sc_accuracy_forces 5.E-4
    final_forces_cleaned .true.
  #
  #  Output options
  #
  #  output mulliken
    output Hirshfeld
  #  output dipole
  
  #harmonic_length_scale 0.001
  
  ################################################################################
  #
  #  FHI-aims code project
  #  VB, Fritz-Haber Institut, 2007
  #
  #  Suggested "safe" defaults for H atom (to be pasted into control.in file)
  #  Basis constructed for a non-relativistic H2 molecule using the
  #  PW-LDA functional.
  #
  ################################################################################
    species        H
  #     global species definitions
      nucleus             1
      cut_pot             4.0  2.0  1.0
      cut_free_atom       finite 8.0
      logarithmic         0.00010000 100.00  1.0123
      basis_dep_cutoff    1d-4  # 1d-4 is safe default - please check 5d-4 if you wish!
      radial_base         24 7.0
      radial_multiplier   2
      angular_grids       specified
        division   0.2783  110
        division   0.3822  194
        division   0.5626  302
  #      division   0.5922  434
  #      division   0.6227  590
  #      division   0.7206  770
        outer_grid  302
      l_hartree           4
  ################################################################################
  #
  #  Definition of "minimal" basis
  #
  ################################################################################
  #     valence basis states
      valence      1  s   1.
  #     ion occupancy
      ion_occ      1  s   0.5
  ################################################################################
  #
  #  Suggested additional basis functions. For production calculations,
  #  uncomment them one after another (the most important basis functions are
  #  listed first).
  #
  ################################################################################
  #  "First tier" - improvements: -1014.90 meV to -62.69 meV
       hydro 2 s 2.1
       hydro 2 p 3.5
  #  "Second tier" - improvements: -12.89 meV to -1.83 meV
       hydro 1 s 0.85
       hydro 2 p 3.7
       hydro 2 s 1.2
       hydro 3 d 7
  #  "Third tier" - improvements: -0.25 meV to -0.12 meV
  #     hydro 4 f 11.2
  #     hydro 3 p 4.8
  #     hydro 4 d 9
  #     hydro 3 s 3.2
  
  ################################################################################
  #
  #  FHI-aims code project
  #  VB, Fritz-Haber Institut, 2007
  #
  #  Suggested "safe" defaults for O atom (to be pasted into control.in file)
  #  All values have been tested for a non-relativistic, non-spinpolarized O2
  #  molecule using the PW-LDA functional. Validity for PBE is expected.
  #
  #  Constructed for dimers: 1.0 A, 1.208 A, 1.5 A, 2.0 A, 3.0 A
  #
  ################################################################################
    species        O
  #     global species definitions
      nucleus             8
      mass                15.9994
      l_hartree           4
      cut_pot             4.0  2.0  1.0
      cut_free_atom       finite 8.0
      basis_dep_cutoff    1d-4  # 1d-4 is safe default - please check 5d-4 if you wish!
      logarithmic         0.00010000 100.00  1.0123
      radial_base         36 7.0
      radial_multiplier   2
       angular_grids specified
        division   0.4087  110
        division   0.5181  194
        division   0.6184  302
  #      division   0.7315  434
  #      division   0.7934  590
  #      division   0.9656  770
  #      division   1.4041  974
  #      outer_grid 974
        outer_grid 302
  ################################################################################
  #
  #  Definition of "minimal" basis
  #
  ################################################################################
  #     valence basis states
      valence      2  s   2.
      valence      2  p   4.
  #     ion occupancy
      ion_occ      2  s   1.
      ion_occ      2  p   3.
  ################################################################################
  #
  #  Suggested additional basis functions. For production calculations,
  #  uncomment them one after another (the most important basis functions are
  #  listed first).
  #
  ################################################################################
  #  "First tier" - improvements: -699.05 meV to -159.38 meV
       hydro 2 p 1.8
       hydro 3 d 7.6
       hydro 3 s 6.4
  #  "Second tier" - improvements: -49.91 meV to -5.39 meV
       hydro 4 f 11.6
       hydro 3 p 6.2
       hydro 3 d 5.6
       hydro 5 g 17.6
       hydro 1 s 0.75
  #  "Third tier" - improvements: -2.83 meV to -0.50 meV
  #     ionic 2 p auto
  #     hydro 4 f 10.8
  #     hydro 4 d 4.7
  #     hydro 2 s 6.8
  #  "Fourth tier" - improvements: -0.40 meV to -0.12 meV
  #     hydro 3 p 5
  #     hydro 3 s 3.3
  #     hydro 5 g 15.6
  #     hydro 4 f 17.6
  #     hydro 4 d 14
  # Further basis functions - -0.08 meV and below
  #     hydro 3 s 2.1
  #     hydro 4 d 11.6
  #     hydro 3 p 16
  #     hydro 2 s 17.2
  
  
  -----------------------------------------------------------------------
  Completed first pass over input file control.in .
  -----------------------------------------------------------------------
  
  
  -----------------------------------------------------------------------
  Parsing geometry.in (first pass over file, find array dimensions only).
  The contents of geometry.in will be repeated verbatim below
  unless switched off by setting 'verbatim_writeout .false.' .
  in the first line of geometry.in .
  -----------------------------------------------------------------------
  
  atom      -4.053030000      0.065001000     -1.525160000  O
  atom      -4.566710000      0.974813000     -1.912820000  H
  atom      -3.067820000      0.330172000     -1.477310000  H
  atom      -5.293160000      2.192130000     -2.328800000  O
  atom      -4.829300000      2.988660000     -1.973850000  H
  atom      -5.428570000      2.328640000     -3.235170000  H
  atom      -1.645860000      0.870179000     -1.502250000  O
  atom      -1.568890000      1.501730000     -0.721051000  H
  atom      -0.824432000      0.282220000     -1.377720000  H
  atom      -1.975360000      2.858040000      0.453140000  O
  atom      -1.223550000      3.375850000      0.786238000  H
  atom      -2.537520000      2.567960000      1.156120000  H
  
  -----------------------------------------------------------------------
  Completed first pass over input file geometry.in .
  -----------------------------------------------------------------------
  
 
  Basic array size parameters: 
  | Number of species                 :        2
  | Number of atoms                   :       12
  | Max. basis fn. angular momentum   :        4
  | Max. atomic/ionic basis occupied n:        2
  | Max. number of basis fn. types    :        2
  | Max. radial fns per species/type  :        8
  | Max. logarithmic grid size        :     1301
  | Max. radial integration grid size :       73
  | Max. angular integration grid size:      302
  | Max. angular grid division number :        8
  | Radial grid for Hartree potential :     1301
  | Number of spin channels           :        1

------------------------------------------------------------
          Reading file control.in.
------------------------------------------------------------
  XC: Using RPBE gradient-corrected functionals.
  Spin treatment: No spin polarisation.
  Scalar relativistic treatment of kinetic energy: on-site free-atom approximation to ZORA.
  Charge =   0.000000E+00: Neutral system requested explicitly.
  Using non-empirical van der Waals correction (Hirshfeld partitioning):
  Occupation type: Gaussian broadening, width =   0.100000E-01 eV.
  Using pulay charge density mixing.
  Pulay mixing - number of memorized iterations:   10
  Charge density mixing - mixing parameter:     0.1000
  Convergence accuracy of self-consistent charge density: 0.5000E-04
  Convergence accuracy of sum of eigenvalues: 0.5000E-02
  Convergence accuracy of total energy: 0.5000E-05
  Maximum number of s.-c. iterations  :  3000
  Kohn-Sham eigenvalues and eigenfunctions calculated by lapack diagonalisation (D&C).
  Number of empty states per atom:        8
  Threshold for basis singularities: 0.0000E+00
  Partition function in integrals calculations: rho / r^2
 Using packed matrix format           0
  Convergence accuracy of forces: 0.5000E-03
  Cleaning forces before final output.
  Hirshfeld charge analysis will be performed.
 
  Reading configuration options for species H                   .
  | Found nuclear charge :   1.0000
  | Found cutoff potl. onset [A], width [A], scale factor :    4.00000    2.00000    1.00000
  | Found cutoff specification for free atom: Cutoff potential begins at    8.00000 A.
  | Found logarithmic grid data [bohr] : 0.1000E-03 0.1000E+03 0.1012E+01
  | Threshold for basis-dependent cutoff potential is   0.100000E-03
  | Found data for basic radial integration grid :    24 points, outermost radius =    7.000 A
  | Found multiplier for basic radial grid :   2
  | Found angular grid specification: user-specified.
  | Specified grid contains     4 separate shells.
  | Check grid settings after all constraints further below.
  | Found l_max for Hartree potential  :   4
  | Found free-atom valence shell :  1 s   1.000
  | No ionic wave fns used. Skipping ion_occ.
  | Found hydrogenic basis function :  2 s   2.100
  | Found hydrogenic basis function :  2 p   3.500
  | Found hydrogenic basis function :  1 s   0.850
  | Found hydrogenic basis function :  2 p   3.700
  | Found hydrogenic basis function :  2 s   1.200
  | Found hydrogenic basis function :  3 d   7.000
  Species H                   : Missing cutoff potential type.
  Defaulting to exp(1/x)/(1-x)^2 type cutoff potential.
  Species H : On-site basis accuracy parameter (for Gram-Schmidt orthonormalisation) not specified.
  Using default value basis_acc =  0.1000000E-03.
  Species H                   : Using default innermost maximum threshold i_radial=  2 for radial functions.
  Species H                   : Basic radial grid will be enhanced according to radial_multiplier =   2, to contain    49 grid points.
 
  Reading configuration options for species O                   .
  | Found nuclear charge :   8.0000
  | Found atomic mass :    15.9994000000000      amu
  | Found l_max for Hartree potential  :   4
  | Found cutoff potl. onset [A], width [A], scale factor :    4.00000    2.00000    1.00000
  | Found cutoff specification for free atom: Cutoff potential begins at    8.00000 A.
  | Threshold for basis-dependent cutoff potential is   0.100000E-03
  | Found logarithmic grid data [bohr] : 0.1000E-03 0.1000E+03 0.1012E+01
  | Found data for basic radial integration grid :    36 points, outermost radius =    7.000 A
  | Found multiplier for basic radial grid :   2
  | Found angular grid specification: user-specified.
  | Specified grid contains     4 separate shells.
  | Check grid settings after all constraints further below.
  | Found free-atom valence shell :  2 s   2.000
  | Found free-atom valence shell :  2 p   4.000
  | No ionic wave fns used. Skipping ion_occ.
  | No ionic wave fns used. Skipping ion_occ.
  | Found hydrogenic basis function :  2 p   1.800
  | Found hydrogenic basis function :  3 d   7.600
  | Found hydrogenic basis function :  3 s   6.400
  | Found hydrogenic basis function :  4 f  11.600
  | Found hydrogenic basis function :  3 p   6.200
  | Found hydrogenic basis function :  3 d   5.600
  | Found hydrogenic basis function :  5 g  17.600
  | Found hydrogenic basis function :  1 s   0.750
  Species O                   : Missing cutoff potential type.
  Defaulting to exp(1/x)/(1-x)^2 type cutoff potential.
  Species O : On-site basis accuracy parameter (for Gram-Schmidt orthonormalisation) not specified.
  Using default value basis_acc =  0.1000000E-03.
  Species O                   : Using default innermost maximum threshold i_radial=  2 for radial functions.
  Species O                   : Basic radial grid will be enhanced according to radial_multiplier =   2, to contain    73 grid points.
 
  Finished reading input file 'control.in'. Consistency checks are next.
 
  Target number of points in a grid batch is not set. Defaulting to  100
  Method for grid partitioning is not set. Defaulting to parallel hash+maxmin partitioning.
  Batch size limit is not set. Defaulting to    200
  By default, will store active basis functions for each batch.
  If in need of memory, prune_basis_once .false. can be used to disable this option.
  communication_type for Hartree potential was not specified.
  Defaulting to calc_hartree .
  Pulay mixer: Number of initial linear mixing iterations not set.
  Defaulting to    0 iterations.
  Work space size for distributed Hartree potential not set.
  Defaulting to   0.200000E+03 MB.
  Algorithm-dependent basis array size parameters:
  | n_max_pulay                         :       10
  Geometry relaxation not requested: no relaxation will be performed.
  Handling of forces: Unphysical translation and rotation will be removed from forces.
  No accuracy limit for integral partition fn. given. Defaulting to 0.1000E-14.
  No threshold value for u(r) in integrations given. Defaulting to 0.1000E-05.
  No accuracy for occupation numbers given. Defaulting to 0.1000E-07.
  No threshold value for occupation numbers given. Defaulting to 0.0000E+00.
  No accuracy for fermi level given. Defaulting to 0.1000E-19.
  Maximum # of iterations to find E_F not set. Defaulting to  200.
  Will not use alltoall communication since running on < 1024 CPUs.
  Partitioning for Hartree potential was not defined. Using partition_type for integrals.
  | Reporting present value of keyword multip_moments_threshold  :       0.10000000E-09
  | This value may affect high angular momentum components of the Hartree potential in periodic systems.
  No q(lm)/r^(l+1) cutoff set for long-range Hartree potential.
  | Using default value of  0.100000E-09 .
  | Verify using the multipole_threshold keyword.
  Defaulting to new monopole extrapolation.
  Density update method: Loop over occupied states selected for charge density update.
------------------------------------------------------------


------------------------------------------------------------
          Reading geometry description geometry.in.
------------------------------------------------------------
  Input structure read successfully.
  The structure contains       12 atoms,  and a total of         40.000 electrons.

  Input geometry:
  | No unit cell requested.
  | Atomic structure:
  |       Atom                x [A]            y [A]            z [A]
  |    1: Species O             -4.053030         0.065001        -1.525160
  |    2: Species H             -4.566710         0.974813        -1.912820
  |    3: Species H             -3.067820         0.330172        -1.477310
  |    4: Species O             -5.293160         2.192130        -2.328800
  |    5: Species H             -4.829300         2.988660        -1.973850
  |    6: Species H             -5.428570         2.328640        -3.235170
  |    7: Species O             -1.645860         0.870179        -1.502250
  |    8: Species H             -1.568890         1.501730        -0.721051
  |    9: Species H             -0.824432         0.282220        -1.377720
  |   10: Species O             -1.975360         2.858040         0.453140
  |   11: Species H             -1.223550         3.375850         0.786238
  |   12: Species H             -2.537520         2.567960         1.156120
  |

  | The smallest distance between any two atoms is         0.92654057 AA.
  |
  | The first atom of this pair is atom number                      4 .
  | The second atom of this pair is atom number                     6 .

  Structure-dependent array size parameters: 
  | Maximum number of distinct radial functions  :       18
  | Maximum number of basis functions            :      276
  | Number of Kohn-Sham states (occupied + empty):       68
------------------------------------------------------------

------------------------------------------------------------
          Preparing all fixed parts of the calculation.
------------------------------------------------------------
  Determining machine precision:
    2.225073858507201E-308
  Setting up grids for atomic and cluster calculations.

  Creating wave function, potential, and density for free atoms.

  Species: H

  List of occupied orbitals and eigenvalues:
    n    l              occ      energy [Ha]    energy [eV]
    1    0           1.0000        -0.241408        -6.5691


  Species: O

  List of occupied orbitals and eigenvalues:
    n    l              occ      energy [Ha]    energy [eV]
    1    0           2.0000       -18.944147      -515.4965
    2    0           2.0000        -0.883529       -24.0421
    2    1           4.0000        -0.330176        -8.9845

  Creating fixed part of basis set: Ionic, confined, hydrogenic.
 
  H                    hydrogenic:
 
  List of hydrogenic basis orbitals: 
    n    l      effective z      eigenvalue [eV]  inner max. [A]     outer max. [A]     outer radius [A]   
    2    0         2.100000       -14.9965           0.193241           1.317192           5.372934
    2    1         3.500000       -41.6672           0.602363           0.602363           4.056010
    1    0         0.850000        -9.8292           0.624864           0.624864           5.372934
    2    1         3.700000       -46.5653           0.573616           0.573616           3.909951
    2    0         1.200000        -4.5995           0.334977           2.228160           5.505921
    3    2         7.000000       -74.0753           0.680692           0.680692           3.769152
 
 
  O                    hydrogenic:
 
  List of hydrogenic basis orbitals: 
    n    l      effective z      eigenvalue [eV]  inner max. [A]     outer max. [A]     outer radius [A]   
    2    1         1.800000       -11.0118           1.178546           1.178546           5.432516
    3    2         7.600000       -87.3182           0.624117           0.624117           3.541422
    3    0         6.400000       -61.9209           0.061166           1.081887           4.306510
    4    3        11.600000      -114.4238           0.731621           0.731621           3.584982
    3    1         6.200000       -58.1113           0.255677           1.030255           4.306510
    3    2         5.600000       -47.4081           0.847222           0.847222           4.413102
    5    4        17.600000      -168.5799           0.749730           0.749730           3.372413
    1    0         0.750000        -7.6499           0.705275           0.705275           5.366508
 

  Adding cutoff potential to free-atom effective potential.
  Creating atomic-like basis functions for current effective potential.

  Species H                   :

  List of atomic basis orbitals and eigenvalues:
    n    l      energy [Ha]    energy [eV]    outer radius [A]
    1    0        -0.241374        -6.5681       5.372934


  Species O                   :

  List of atomic basis orbitals and eigenvalues:
    n    l      energy [Ha]    energy [eV]    outer radius [A]
    1    0       -18.944147      -515.4965       1.415745
    2    0        -0.883529       -24.0421       5.048305
    2    1        -0.330173        -8.9845       5.301302

  Assembling full basis from fixed parts.
  | Species H :   atomic orbital   1 s accepted.
  | Species H :    hydro orbital   2 s accepted.
  | Species H :    hydro orbital   1 s accepted.
  | Species H :    hydro orbital   2 s accepted.
  | Species H :    hydro orbital   2 p accepted.
  | Species H :    hydro orbital   2 p accepted.
  | Species H :    hydro orbital   3 d accepted.
  | Species O :   atomic orbital   1 s accepted.
  | Species O :    hydro orbital   3 s accepted.
  | Species O :   atomic orbital   2 s accepted.
  | Species O :    hydro orbital   1 s accepted.
  | Species O :    hydro orbital   3 p accepted.
  | Species O :   atomic orbital   2 p accepted.
  | Species O :    hydro orbital   2 p accepted.
  | Species O :    hydro orbital   3 d accepted.
  | Species O :    hydro orbital   3 d accepted.
  | Species O :    hydro orbital   4 f accepted.
  | Species O :    hydro orbital   5 g accepted.
 
  Basis size parameters after reduction:
  | Total number of radial functions:       18
  | Total number of basis functions :      276
 
  Testing on-site integration grid accuracy.
  |  Species  Function  <phi|h_atom|phi> (log., in eV)  <phi|h_atom|phi> (rad., in eV)
           1        1                 -6.5683835025                 -6.5684759159
           1        2                 13.3711789951                 13.3708738703
           1        3                 23.6590910787                 23.6532055418
           1        4                 16.2963827186                 16.1870710655 ***
           1        5                 28.7627214838                 28.7627215090
           1        6                 59.5965249172                 59.5965950857
           1        7                 60.2220506392                 60.2220503827
           2        8               -515.4964576505               -515.4964530710
           2        9                 15.3030791347                 15.3030722972
           2       10                -21.7296094581                -21.7296135470
           2       11                 14.2969371730                 14.2969701621
           2       12                 21.0679693190                 21.0679697493
           2       13                 -2.3833606469                 -2.3833613176
           2       14                 13.7067136422                 13.7066766629
           2       15                 45.8013116808                 45.8013116965
           2       16                 52.2309815402                 52.2309831494
           2       17                 85.4120732416                 85.4120732763
           2       18                142.1019167745                142.1019167817
 * Note: Onsite integrals marked "***" above are less accurate than
 * onsite_accuracy_threshold =    0.03000 eV. Usually, this is harmless.
 * When in doubt, tighten the "radial" and/or "radial_multiplier" flags to check.

  Preparing densities etc. for the partition functions (integrals / Hartree potential).

  Preparations completed.
  max(cpu_time)          :      0.170 s.
  Wall clock time (cpu1) :      0.476 s.
------------------------------------------------------------

------------------------------------------------------------
          Begin self-consistency loop: Initialization.

          Date     :  20150727, Time     :  122220.721
------------------------------------------------------------

  Initializing index lists of integration centers etc. from given atomic structure:
  | Number of centers in hartree potential         :        12
  | Number of centers in hartree multipole         :        12
  | Number of centers in electron density summation:        12
  | Number of centers in basis integrals           :        12
  | Number of centers in integrals                 :        12
  Partitioning the integration grid into batches with parallel hashing+maxmin method.
  | Number of batches:     1784
  | Maximal batch size:     136
  | Minimal batch size:      51
  | Average batch size:      88.211
  | Standard deviation of batch sizes:      28.597

  Integration load balanced across     8 MPI tasks.
  Work distribution over tasks is as follows:
  Task     0 has      19666 integration points.
  Task     1 has      19667 integration points.
  Task     2 has      19712 integration points.
  Task     3 has      19631 integration points.
  Task     4 has      19738 integration points.
  Task     5 has      19611 integration points.
  Task     6 has      19712 integration points.
  Task     7 has      19631 integration points.
  Initializing partition tables, free-atom densities, potentials, etc. across the integration grid (initialize_grid_storage).
  | Net number of integration points:   157368
  | of which are non-zero points    :   156830
  Obtaining max. number of non-zero basis functions in each batch (get_n_compute_maxes).
  | Maximal number of non-zero basis functions:      274 in task     0
  | Maximal number of non-zero basis functions:      274 in task     1
  | Maximal number of non-zero basis functions:      274 in task     2
  | Maximal number of non-zero basis functions:      274 in task     3
  | Maximal number of non-zero basis functions:      274 in task     4
  | Maximal number of non-zero basis functions:      274 in task     5
  | Maximal number of non-zero basis functions:      274 in task     6
  | Maximal number of non-zero basis functions:      274 in task     7
  Integrating Hamiltonian matrix: batch-based integration.
  Time summed over all CPUs for integration: real work        4.662 s, elapsed        4.776 s
  Integrating overlap matrix.
  Time summed over all CPUs for integration: real work        2.447 s, elapsed        2.511 s

  Updating Kohn-Sham eigenvalues, eigenvectors, occupation numbers, and Fermi level.
  Solving generalized eigenproblem
  Updating Kohn-Sham eigenvalues and eigenfunctions.
  Transforming overlap matrix and checking for singularities.
  Overlap matrix is nonsingular:
  | Lowest eigenvalue:  0.239732E-03
  Solving real generalised eigenvalue problem by standard LAPACK (fast)
  Determining occupation numbers for Kohn-Sham eigenstates.
  | Chemical potential (Fermi level) in eV                 : -.32951346E+01
  | Error in electron count due to remaining E_F inaccuracy: 0.00000000E+00
  | Maximum occupation number of highest empty state:  0.00E+00

  Writing Kohn-Sham eigenvalues.

  State    Occupation    Eigenvalue [Ha]    Eigenvalue [eV]
      1       2.00000         -19.064786         -518.77921
      2       2.00000         -19.057192         -518.57259
      3       2.00000         -19.042520         -518.17334
      4       2.00000         -19.019679         -517.55179
      5       2.00000          -1.121190          -30.50913
      6       2.00000          -1.107873          -30.14676
      7       2.00000          -1.086405          -29.56258
      8       2.00000          -1.042035          -28.35522
      9       2.00000          -0.650145          -17.69135
     10       2.00000          -0.649183          -17.66517
     11       2.00000          -0.610424          -16.61047
     12       2.00000          -0.604099          -16.43837
     13       2.00000          -0.549830          -14.96164
     14       2.00000          -0.509665          -13.86869
     15       2.00000          -0.497898          -13.54850
     16       2.00000          -0.476458          -12.96507
     17       2.00000          -0.443306          -12.06298
     18       2.00000          -0.441010          -12.00050
     19       2.00000          -0.431489          -11.74142
     20       2.00000          -0.409726          -11.14920
     21       0.00000          -0.088351           -2.40416
     22       0.00000          -0.064172           -1.74622
     23       0.00000          -0.049874           -1.35715
     24       0.00000          -0.007822           -0.21285
     25       0.00000          -0.003904           -0.10623
     26       0.00000           0.016515            0.44940
     27       0.00000           0.038971            1.06045
     28       0.00000           0.061028            1.66066
     29       0.00000           0.075920            2.06589
     30       0.00000           0.078878            2.14637
     31       0.00000           0.096303            2.62055
     32       0.00000           0.099204            2.69949
     33       0.00000           0.107933            2.93702
     34       0.00000           0.111225            3.02659
     35       0.00000           0.119224            3.24424
     36       0.00000           0.133126            3.62254
     37       0.00000           0.150496            4.09520
     38       0.00000           0.155077            4.21985
     39       0.00000           0.169792            4.62029
     40       0.00000           0.176951            4.81509
     41       0.00000           0.184200            5.01233
     42       0.00000           0.231279            6.29342
     43       0.00000           0.236464            6.43451
     44       0.00000           0.246986            6.72084
     45       0.00000           0.262777            7.15052
     46       0.00000           0.282956            7.69961
     47       0.00000           0.290913            7.91615
     48       0.00000           0.309381            8.41868
     49       0.00000           0.350072            9.52594
     50       0.00000           0.353677            9.62405
     51       0.00000           0.372473           10.13552
     52       0.00000           0.379635           10.33039
     53       0.00000           0.388278           10.56558
     54       0.00000           0.406417           11.05918
     55       0.00000           0.410900           11.18115
     56       0.00000           0.418923           11.39948
     57       0.00000           0.435488           11.85022
     58       0.00000           0.446828           12.15880
     59       0.00000           0.477058           12.98141
     60       0.00000           0.514600           14.00297
     61       0.00000           0.550077           14.96836
     62       0.00000           0.558752           15.20442
     63       0.00000           0.571177           15.54252
     64       0.00000           0.644940           17.54970
     65       0.00000           0.667777           18.17113
     66       0.00000           0.673693           18.33212
     67       0.00000           0.718803           19.55962
     68       0.00000           0.757213           20.60481

  Highest occupied state (VBM) at    -11.14920273 eV
  | Occupation number:      2.00000000

  Lowest unoccupied state (CBM) at    -2.40416222 eV
  | Occupation number:      0.00000000

  Overall HOMO-LUMO gap:      8.74504050 eV.
  Calculating total energy contributions from superposition of free atom densities.

  Total energy components:
  | Sum of eigenvalues            :        -173.62982659 Ha       -4724.70797206 eV
  | XC energy correction          :         -36.47962027 Ha        -992.66097367 eV
  | XC potential correction       :          46.61828505 Ha        1268.54807919 eV
  | Free-atom electrostatic energy:        -142.97785383 Ha       -3890.62535547 eV
  | Hartree energy correction     :           0.00000000 Ha           0.00000000 eV
  | van der Waals energy corr.    :           0.00000000 Ha           0.00000000 eV
  | Entropy correction            :           0.00000000 Ha           0.00000000 eV
  | ---------------------------
  | Total energy                  :        -306.46901564 Ha       -8339.44622200 eV
  | Total energy, T -> 0          :        -306.46901564 Ha       -8339.44622200 eV  <-- do not rely on this value for anything but (periodic) metals
  | Electronic free energy        :        -306.46901564 Ha       -8339.44622200 eV

  Derived energy quantities:
  | Kinetic energy                :         303.37247259 Ha        8255.18499840 eV
  | Electrostatic energy          :        -573.36186796 Ha      -15601.97024674 eV
  | Energy correction for multipole
  | error in Hartree potential    :           0.00000000 Ha           0.00000000 eV
  | Sum of eigenvalues per atom                           :        -393.72566434 eV
  | Total energy (T->0) per atom                          :        -694.95385183 eV  <-- do not rely on this value for anything but (periodic) metals
  | Electronic free energy per atom                       :        -694.95385183 eV
  Initialize hartree_potential_storage
  Max. number of atoms included in rho_multipole:           12

  End scf initialization - timings             :  max(cpu_time)    wall_clock(cpu1)
  | Time for scf. initialization               :        1.291 s           1.290 s
  | Boundary condition initialization          :        0.000 s           0.000 s
  | Integration                                :        0.914 s           0.914 s
  | Solution of K.-S. eqns.                    :        0.120 s           0.120 s
  | Grid partitioning                          :        0.109 s           0.109 s
  | Preloading free-atom quantities on grid    :        0.013 s           0.013 s
  | Free-atom superposition energy             :        0.046 s           0.046 s
  | Total energy evaluation                    :        0.001 s           0.000 s
------------------------------------------------------------

------------------------------------------------------------
          Begin self-consistency iteration #    1

  Date     :  20150727, Time     :  122222.012
------------------------------------------------------------
  Evaluating new KS density.
  Integration grid: deviation in total charge (<rho> - N_e) =   1.421085E-14
  Pulay mixing of updated and previous charge densities.

  Evaluating partitioned Hartree potential by multipole expansion.
  | Analytical far-field extrapolation by fixed multipoles:
  | Hartree multipole sum: apparent total charge =  -0.182183E-05
  Summing up the Hartree potential.
  Time summed over all CPUs for potential: real work        1.656 s, elapsed        1.663 s
  | RMS charge density error from multipole expansion :   0.148063E-02

  Integrating Hamiltonian matrix: batch-based integration.
  Time summed over all CPUs for integration: real work        4.662 s, elapsed        4.768 s

  Updating Kohn-Sham eigenvalues, eigenvectors, occupation numbers, and Fermi level.
  Solving generalized eigenproblem
  Updating Kohn-Sham eigenvalues and eigenfunctions.
  Solving real generalised eigenvalue problem by standard LAPACK (fast)
  Determining occupation numbers for Kohn-Sham eigenstates.
  | Chemical potential (Fermi level) in eV                 : -.29607861E+01
  | Error in electron count due to remaining E_F inaccuracy: 0.00000000E+00
  | Maximum occupation number of highest empty state:  0.00E+00

  Writing Kohn-Sham eigenvalues.

  State    Occupation    Eigenvalue [Ha]    Eigenvalue [eV]
      1       2.00000         -18.996190         -516.91262
      2       2.00000         -18.985940         -516.63372
      3       2.00000         -18.971942         -516.25282
      4       2.00000         -18.922292         -514.90176
      5       2.00000          -1.088309          -29.61438
      6       2.00000          -1.074986          -29.25185
      7       2.00000          -1.050007          -28.57213
      8       2.00000          -0.987700          -26.87669
      9       2.00000          -0.621931          -16.92359
     10       2.00000          -0.621367          -16.90826
     11       2.00000          -0.578574          -15.74379
     12       2.00000          -0.565098          -15.37710
     13       2.00000          -0.512904          -13.95683
     14       2.00000          -0.474347          -12.90763
     15       2.00000          -0.459314          -12.49856
     16       2.00000          -0.435165          -11.84144
     17       2.00000          -0.408184          -11.10724
     18       2.00000          -0.398404          -10.84111
     19       2.00000          -0.388022          -10.55863
     20       2.00000          -0.354103           -9.63562
     21       0.00000          -0.080884           -2.20096
     22       0.00000          -0.057576           -1.56672
     23       0.00000          -0.043032           -1.17097
     24       0.00000          -0.003054           -0.08309
     25       0.00000           0.002762            0.07517
     26       0.00000           0.028948            0.78771
     27       0.00000           0.048781            1.32740
     28       0.00000           0.069454            1.88993
     29       0.00000           0.086031            2.34103
     30       0.00000           0.089502            2.43548
     31       0.00000           0.103595            2.81898
     32       0.00000           0.110521            3.00743
     33       0.00000           0.118007            3.21115
     34       0.00000           0.122824            3.34221
     35       0.00000           0.132751            3.61235
     36       0.00000           0.142981            3.89070
     37       0.00000           0.159999            4.35379
     38       0.00000           0.175062            4.76367
     39       0.00000           0.182542            4.96722
     40       0.00000           0.189033            5.14385
     41       0.00000           0.196877            5.35731
     42       0.00000           0.241790            6.57944
     43       0.00000           0.246182            6.69894
     44       0.00000           0.253293            6.89244
     45       0.00000           0.271175            7.37906
     46       0.00000           0.290833            7.91398
     47       0.00000           0.300231            8.16971
     48       0.00000           0.321334            8.74394
     49       0.00000           0.361487            9.83655
     50       0.00000           0.364533            9.91943
     51       0.00000           0.381177           10.37234
     52       0.00000           0.388867           10.58160
     53       0.00000           0.401015           10.91217
     54       0.00000           0.417324           11.35595
     55       0.00000           0.420032           11.42965
     56       0.00000           0.427674           11.63760
     57       0.00000           0.443204           12.06019
     58       0.00000           0.454840           12.37684
     59       0.00000           0.489794           13.32798
     60       0.00000           0.523515           14.24557
     61       0.00000           0.559826           15.23365
     62       0.00000           0.571732           15.55762
     63       0.00000           0.587295           15.98111
     64       0.00000           0.658724           17.92480
     65       0.00000           0.683085           18.58770
     66       0.00000           0.685173           18.64450
     67       0.00000           0.733130           19.94947
     68       0.00000           0.766889           20.86812

  Highest occupied state (VBM) at     -9.63562307 eV
  | Occupation number:      2.00000000

  Lowest unoccupied state (CBM) at    -2.20095948 eV
  | Occupation number:      0.00000000

  Overall HOMO-LUMO gap:      7.43466359 eV.

  Total energy components:
  | Sum of eigenvalues            :        -171.78955178 Ha       -4674.63154665 eV
  | XC energy correction          :         -36.67235756 Ha        -997.90562199 eV
  | XC potential correction       :          46.87042732 Ha        1275.40921948 eV
  | Free-atom electrostatic energy:        -142.97785383 Ha       -3890.62535547 eV
  | Hartree energy correction     :          -1.78201854 Ha         -48.49119178 eV
  | van der Waals energy corr.    :           0.00000000 Ha           0.00000000 eV
  | Entropy correction            :           0.00000000 Ha           0.00000000 eV
  | ---------------------------
  | Total energy                  :        -306.35135439 Ha       -8336.24449640 eV
  | Total energy, T -> 0          :        -306.35135439 Ha       -8336.24449640 eV  <-- do not rely on this value for anything but (periodic) metals
  | Electronic free energy        :        -306.35135439 Ha       -8336.24449640 eV

  Derived energy quantities:
  | Kinetic energy                :         304.52279446 Ha        8286.48684905 eV
  | Electrostatic energy          :        -574.20179129 Ha      -15624.82572347 eV
  | Energy correction for multipole
  | error in Hartree potential    :          -0.00009797 Ha          -0.00266585 eV
  | Sum of eigenvalues per atom                           :        -389.55262889 eV
  | Total energy (T->0) per atom                          :        -694.68704137 eV  <-- do not rely on this value for anything but (periodic) metals
  | Electronic free energy per atom                       :        -694.68704137 eV

  Self-consistency convergence accuracy:
  | Change of charge density      : 0.5919E+00
  | Change of sum of eigenvalues  : 0.5008E+02 eV
  | Change of total energy        : 0.3202E+01 eV

  End self-consistency iteration #     1       :  max(cpu_time)    wall_clock(cpu1)
  | Time for this iteration                    :        1.227 s           1.226 s
  | Charge density update                      :        0.382 s           0.381 s
  | Density mixing                             :        0.002 s           0.003 s
  | Hartree multipole update                   :        0.005 s           0.005 s
  | Hartree multipole summation                :        0.209 s           0.208 s
  | Integration                                :        0.597 s           0.597 s
  | Solution of K.-S. eqns.                    :        0.031 s           0.031 s
  | Total energy evaluation                    :        0.001 s           0.000 s
------------------------------------------------------------

------------------------------------------------------------
          Begin self-consistency iteration #    2

  Date     :  20150727, Time     :  122223.238
------------------------------------------------------------
  Evaluating new KS density.
  Integration grid: deviation in total charge (<rho> - N_e) =   2.131628E-14
  Pulay mixing of updated and previous charge densities.

  Evaluating partitioned Hartree potential by multipole expansion.
  | Analytical far-field extrapolation by fixed multipoles:
  | Hartree multipole sum: apparent total charge =  -0.561471E-05
  Summing up the Hartree potential.
  Time summed over all CPUs for potential: real work        1.656 s, elapsed        1.663 s
  | RMS charge density error from multipole expansion :   0.600762E-02

  Integrating Hamiltonian matrix: batch-based integration.
  Time summed over all CPUs for integration: real work        4.657 s, elapsed        4.784 s

  Updating Kohn-Sham eigenvalues, eigenvectors, occupation numbers, and Fermi level.
  Solving generalized eigenproblem
  Updating Kohn-Sham eigenvalues and eigenfunctions.
  Solving real generalised eigenvalue problem by standard LAPACK (fast)
  Determining occupation numbers for Kohn-Sham eigenstates.
  | Chemical potential (Fermi level) in eV                 : -.21005444E+01
  | Error in electron count due to remaining E_F inaccuracy: 0.00000000E+00
  | Maximum occupation number of highest empty state:  0.00E+00

  Highest occupied state (VBM) at     -5.91835631 eV
  | Occupation number:      2.00000000

  Lowest unoccupied state (CBM) at    -1.77124499 eV
  | Occupation number:      0.00000000

  Overall HOMO-LUMO gap:      4.14711132 eV.

  Total energy components:
  | Sum of eigenvalues            :        -167.30992526 Ha       -4552.73470699 eV
  | XC energy correction          :         -37.16015715 Ha       -1011.17932434 eV
  | XC potential correction       :          47.50801144 Ha        1292.75876615 eV
  | Free-atom electrostatic energy:        -142.97785383 Ha       -3890.62535547 eV
  | Hartree energy correction     :          -6.26918368 Ha        -170.59316755 eV
  | van der Waals energy corr.    :           0.00000000 Ha           0.00000000 eV
  | Entropy correction            :           0.00000000 Ha           0.00000000 eV
  | ---------------------------
  | Total energy                  :        -306.20910848 Ha       -8332.37378819 eV
  | Total energy, T -> 0          :        -306.20910848 Ha       -8332.37378819 eV  <-- do not rely on this value for anything but (periodic) metals
  | Electronic free energy        :        -306.20910848 Ha       -8332.37378819 eV

  Derived energy quantities:
  | Kinetic energy                :         306.89794563 Ha        8351.11800079 eV
  | Electrostatic energy          :        -575.94689696 Ha      -15672.31246464 eV
  | Energy correction for multipole
  | error in Hartree potential    :          -0.00102594 Ha          -0.02791736 eV
  | Sum of eigenvalues per atom                           :        -379.39455892 eV
  | Total energy (T->0) per atom                          :        -694.36448235 eV  <-- do not rely on this value for anything but (periodic) metals
  | Electronic free energy per atom                       :        -694.36448235 eV

  Self-consistency convergence accuracy:
  | Change of charge density      : 0.4485E+00
  | Change of sum of eigenvalues  : 0.1219E+03 eV
  | Change of total energy        : 0.3871E+01 eV

  End self-consistency iteration #     2       :  max(cpu_time)    wall_clock(cpu1)
  | Time for this iteration                    :        1.227 s           1.228 s
  | Charge density update                      :        0.379 s           0.380 s
  | Density mixing                             :        0.004 s           0.004 s
  | Hartree multipole update                   :        0.004 s           0.005 s
  | Hartree multipole summation                :        0.209 s           0.208 s
  | Integration                                :        0.599 s           0.599 s
  | Solution of K.-S. eqns.                    :        0.031 s           0.031 s
  | Total energy evaluation                    :        0.000 s           0.000 s
------------------------------------------------------------

------------------------------------------------------------
          Begin self-consistency iteration #    3

  Date     :  20150727, Time     :  122224.466
------------------------------------------------------------
  Evaluating new KS density.
  Integration grid: deviation in total charge (<rho> - N_e) =   1.421085E-14
  Pulay mixing of updated and previous charge densities.

  Evaluating partitioned Hartree potential by multipole expansion.
  | Analytical far-field extrapolation by fixed multipoles:
  | Hartree multipole sum: apparent total charge =  -0.634688E-05
  Summing up the Hartree potential.
  Time summed over all CPUs for potential: real work        1.657 s, elapsed        1.663 s
  | RMS charge density error from multipole expansion :   0.118469E-01

  Integrating Hamiltonian matrix: batch-based integration.
  Time summed over all CPUs for integration: real work        4.654 s, elapsed        4.778 s

  Updating Kohn-Sham eigenvalues, eigenvectors, occupation numbers, and Fermi level.
  Solving generalized eigenproblem
  Updating Kohn-Sham eigenvalues and eigenfunctions.
  Solving real generalised eigenvalue problem by standard LAPACK (fast)
  Determining occupation numbers for Kohn-Sham eigenstates.
  | Chemical potential (Fermi level) in eV                 : -.19349490E+01
  | Error in electron count due to remaining E_F inaccuracy: 0.00000000E+00
  | Maximum occupation number of highest empty state:  0.00E+00

  Highest occupied state (VBM) at     -5.60672625 eV
  | Occupation number:      2.00000000

  Lowest unoccupied state (CBM) at    -1.72146958 eV
  | Occupation number:      0.00000000

  Overall HOMO-LUMO gap:      3.88525667 eV.

  Total energy components:
  | Sum of eigenvalues            :        -167.42598431 Ha       -4555.89283436 eV
  | XC energy correction          :         -37.13270081 Ha       -1010.43219928 eV
  | XC potential correction       :          47.46828728 Ha        1291.67781670 eV
  | Free-atom electrostatic energy:        -142.97785383 Ha       -3890.62535547 eV
  | Hartree energy correction     :          -6.13568397 Ha        -166.96045574 eV
  | van der Waals energy corr.    :           0.00000000 Ha           0.00000000 eV
  | Entropy correction            :           0.00000000 Ha           0.00000000 eV
  | ---------------------------
  | Total energy                  :        -306.20393564 Ha       -8332.23302815 eV
  | Total energy, T -> 0          :        -306.20393564 Ha       -8332.23302815 eV  <-- do not rely on this value for anything but (periodic) metals
  | Electronic free energy        :        -306.20393564 Ha       -8332.23302815 eV

  Derived energy quantities:
  | Kinetic energy                :         305.24854736 Ha        8306.23559028 eV
  | Electrostatic energy          :        -574.31978219 Ha      -15628.03641915 eV
  | Energy correction for multipole
  | error in Hartree potential    :          -0.00469680 Ha          -0.12780652 eV
  | Sum of eigenvalues per atom                           :        -379.65773620 eV
  | Total energy (T->0) per atom                          :        -694.35275235 eV  <-- do not rely on this value for anything but (periodic) metals
  | Electronic free energy per atom                       :        -694.35275235 eV

  Self-consistency convergence accuracy:
  | Change of charge density      : 0.2188E+00
  | Change of sum of eigenvalues  : -.3158E+01 eV
  | Change of total energy        : 0.1408E+00 eV

  End self-consistency iteration #     3       :  max(cpu_time)    wall_clock(cpu1)
  | Time for this iteration                    :        1.226 s           1.226 s
  | Charge density update                      :        0.378 s           0.378 s
  | Density mixing                             :        0.005 s           0.006 s
  | Hartree multipole update                   :        0.005 s           0.004 s
  | Hartree multipole summation                :        0.208 s           0.209 s
  | Integration                                :        0.599 s           0.598 s
  | Solution of K.-S. eqns.                    :        0.031 s           0.031 s
  | Total energy evaluation                    :        0.000 s           0.000 s
------------------------------------------------------------

------------------------------------------------------------
          Begin self-consistency iteration #    4

  Date     :  20150727, Time     :  122225.692
------------------------------------------------------------
  Evaluating new KS density.
  Integration grid: deviation in total charge (<rho> - N_e) =   0.000000E+00
  Pulay mixing of updated and previous charge densities.

  Evaluating partitioned Hartree potential by multipole expansion.
  | Analytical far-field extrapolation by fixed multipoles:
  | Hartree multipole sum: apparent total charge =  -0.779646E-05
  Summing up the Hartree potential.
  Time summed over all CPUs for potential: real work        1.655 s, elapsed        1.662 s
  | RMS charge density error from multipole expansion :   0.156152E-01

  Integrating Hamiltonian matrix: batch-based integration.
  Time summed over all CPUs for integration: real work        4.644 s, elapsed        4.762 s

  Updating Kohn-Sham eigenvalues, eigenvectors, occupation numbers, and Fermi level.
  Solving generalized eigenproblem
  Updating Kohn-Sham eigenvalues and eigenfunctions.
  Solving real generalised eigenvalue problem by standard LAPACK (fast)
  Determining occupation numbers for Kohn-Sham eigenstates.
  | Chemical potential (Fermi level) in eV                 : -.31269905E+01
  | Error in electron count due to remaining E_F inaccuracy: 0.00000000E+00
  | Maximum occupation number of highest empty state:  0.00E+00

  Highest occupied state (VBM) at     -4.28215097 eV
  | Occupation number:      2.00000000

  Lowest unoccupied state (CBM) at    -1.57683094 eV
  | Occupation number:      0.00000000

  Overall HOMO-LUMO gap:      2.70532004 eV.

  Total energy components:
  | Sum of eigenvalues            :        -166.03281527 Ha       -4517.98277606 eV
  | XC energy correction          :         -37.29635483 Ha       -1014.88545168 eV
  | XC potential correction       :          47.68137560 Ha        1297.47624497 eV
  | Free-atom electrostatic energy:        -142.97785383 Ha       -3890.62535547 eV
  | Hartree energy correction     :          -7.56890875 Ha        -205.96048637 eV
  | van der Waals energy corr.    :           0.00000000 Ha           0.00000000 eV
  | Entropy correction            :           0.00000000 Ha           0.00000000 eV
  | ---------------------------
  | Total energy                  :        -306.19455708 Ha       -8331.97782460 eV
  | Total energy, T -> 0          :        -306.19455708 Ha       -8331.97782460 eV  <-- do not rely on this value for anything but (periodic) metals
  | Electronic free energy        :        -306.19455708 Ha       -8331.97782460 eV

  Derived energy quantities:
  | Kinetic energy                :         305.34656552 Ha        8308.90280009 eV
  | Electrostatic energy          :        -574.24476777 Ha      -15625.99517301 eV
  | Energy correction for multipole
  | error in Hartree potential    :          -0.00650646 Ha          -0.17704985 eV
  | Sum of eigenvalues per atom                           :        -376.49856467 eV
  | Total energy (T->0) per atom                          :        -694.33148538 eV  <-- do not rely on this value for anything but (periodic) metals
  | Electronic free energy per atom                       :        -694.33148538 eV

  Self-consistency convergence accuracy:
  | Change of charge density      : 0.1217E+00
  | Change of sum of eigenvalues  : 0.3791E+02 eV
  | Change of total energy        : 0.2552E+00 eV

  End self-consistency iteration #     4       :  max(cpu_time)    wall_clock(cpu1)
  | Time for this iteration                    :        1.226 s           1.226 s
  | Charge density update                      :        0.379 s           0.379 s
  | Density mixing                             :        0.006 s           0.006 s
  | Hartree multipole update                   :        0.005 s           0.004 s
  | Hartree multipole summation                :        0.208 s           0.208 s
  | Integration                                :        0.597 s           0.597 s
  | Solution of K.-S. eqns.                    :        0.031 s           0.031 s
  | Total energy evaluation                    :        0.000 s           0.000 s
------------------------------------------------------------

------------------------------------------------------------
          Begin self-consistency iteration #    5

  Date     :  20150727, Time     :  122226.918
------------------------------------------------------------
  Evaluating new KS density.
  Integration grid: deviation in total charge (<rho> - N_e) =   1.421085E-14
  Pulay mixing of updated and previous charge densities.

  Evaluating partitioned Hartree potential by multipole expansion.
  | Analytical far-field extrapolation by fixed multipoles:
  | Hartree multipole sum: apparent total charge =  -0.787222E-05
  Summing up the Hartree potential.
  Time summed over all CPUs for potential: real work        1.656 s, elapsed        1.662 s
  | RMS charge density error from multipole expansion :   0.161109E-01

  Integrating Hamiltonian matrix: batch-based integration.
  Time summed over all CPUs for integration: real work        4.640 s, elapsed        4.765 s

  Updating Kohn-Sham eigenvalues, eigenvectors, occupation numbers, and Fermi level.
  Solving generalized eigenproblem
  Updating Kohn-Sham eigenvalues and eigenfunctions.
  Solving real generalised eigenvalue problem by standard LAPACK (fast)
  Determining occupation numbers for Kohn-Sham eigenstates.
  | Chemical potential (Fermi level) in eV                 : -.31074522E+01
  | Error in electron count due to remaining E_F inaccuracy: 0.00000000E+00
  | Maximum occupation number of highest empty state:  0.00E+00

  Highest occupied state (VBM) at     -4.16735455 eV
  | Occupation number:      2.00000000

  Lowest unoccupied state (CBM) at    -1.56671599 eV
  | Occupation number:      0.00000000

  Overall HOMO-LUMO gap:      2.60063855 eV.

  Total energy components:
  | Sum of eigenvalues            :        -165.96666244 Ha       -4516.18266575 eV
  | XC energy correction          :         -37.30943165 Ha       -1015.24129001 eV
  | XC potential correction       :          47.69796601 Ha        1297.92769283 eV
  | Free-atom electrostatic energy:        -142.97785383 Ha       -3890.62535547 eV
  | Hartree energy correction     :          -7.63849459 Ha        -207.85401315 eV
  | van der Waals energy corr.    :           0.00000000 Ha           0.00000000 eV
  | Entropy correction            :           0.00000000 Ha           0.00000000 eV
  | ---------------------------
  | Total energy                  :        -306.19447649 Ha       -8331.97563154 eV
  | Total energy, T -> 0          :        -306.19447649 Ha       -8331.97563154 eV  <-- do not rely on this value for anything but (periodic) metals
  | Electronic free energy        :        -306.19447649 Ha       -8331.97563154 eV

  Derived energy quantities:
  | Kinetic energy                :         305.39665227 Ha        8310.26572994 eV
  | Electrostatic energy          :        -574.28169711 Ha      -15627.00007147 eV
  | Energy correction for multipole
  | error in Hartree potential    :          -0.00661941 Ha          -0.18012319 eV
  | Sum of eigenvalues per atom                           :        -376.34855548 eV
  | Total energy (T->0) per atom                          :        -694.33130263 eV  <-- do not rely on this value for anything but (periodic) metals
  | Electronic free energy per atom                       :        -694.33130263 eV

  Self-consistency convergence accuracy:
  | Change of charge density      : 0.2361E-01
  | Change of sum of eigenvalues  : 0.1800E+01 eV
  | Change of total energy        : 0.2193E-02 eV

  End self-consistency iteration #     5       :  max(cpu_time)    wall_clock(cpu1)
  | Time for this iteration                    :        1.227 s           1.227 s
  | Charge density update                      :        0.379 s           0.379 s
  | Density mixing                             :        0.007 s           0.007 s
  | Hartree multipole update                   :        0.004 s           0.005 s
  | Hartree multipole summation                :        0.208 s           0.208 s
  | Integration                                :        0.597 s           0.597 s
  | Solution of K.-S. eqns.                    :        0.031 s           0.031 s
  | Total energy evaluation                    :        0.000 s           0.000 s
------------------------------------------------------------

------------------------------------------------------------
          Begin self-consistency iteration #    6

  Date     :  20150727, Time     :  122228.145
------------------------------------------------------------
  Evaluating new KS density.
  Integration grid: deviation in total charge (<rho> - N_e) =   2.131628E-14
  Pulay mixing of updated and previous charge densities.

  Evaluating partitioned Hartree potential by multipole expansion.
  | Analytical far-field extrapolation by fixed multipoles:
  | Hartree multipole sum: apparent total charge =  -0.787097E-05
  Summing up the Hartree potential.
  Time summed over all CPUs for potential: real work        1.655 s, elapsed        1.662 s
  | RMS charge density error from multipole expansion :   0.163111E-01

  Integrating Hamiltonian matrix: batch-based integration.
  Time summed over all CPUs for integration: real work        4.638 s, elapsed        4.756 s

  Updating Kohn-Sham eigenvalues, eigenvectors, occupation numbers, and Fermi level.
  Solving generalized eigenproblem
  Updating Kohn-Sham eigenvalues and eigenfunctions.
  Solving real generalised eigenvalue problem by standard LAPACK (fast)
  Determining occupation numbers for Kohn-Sham eigenstates.
  | Chemical potential (Fermi level) in eV                 : -.31059796E+01
  | Error in electron count due to remaining E_F inaccuracy: 0.00000000E+00
  | Maximum occupation number of highest empty state:  0.00E+00

  Highest occupied state (VBM) at     -4.15948265 eV
  | Occupation number:      2.00000000

  Lowest unoccupied state (CBM) at    -1.56380184 eV
  | Occupation number:      0.00000000

  Overall HOMO-LUMO gap:      2.59568081 eV.

  Total energy components:
  | Sum of eigenvalues            :        -165.95893023 Ha       -4515.97226175 eV
  | XC energy correction          :         -37.31252294 Ha       -1015.32540825 eV
  | XC potential correction       :          47.70176750 Ha        1298.03113688 eV
  | Free-atom electrostatic energy:        -142.97785383 Ha       -3890.62535547 eV
  | Hartree energy correction     :          -7.64695568 Ha        -208.08425117 eV
  | van der Waals energy corr.    :           0.00000000 Ha           0.00000000 eV
  | Entropy correction            :           0.00000000 Ha           0.00000000 eV
  | ---------------------------
  | Total energy                  :        -306.19449517 Ha       -8331.97613976 eV
  | Total energy, T -> 0          :        -306.19449517 Ha       -8331.97613976 eV  <-- do not rely on this value for anything but (periodic) metals
  | Electronic free energy        :        -306.19449517 Ha       -8331.97613976 eV

  Derived energy quantities:
  | Kinetic energy                :         305.41028288 Ha        8310.63663759 eV
  | Electrostatic energy          :        -574.29225511 Ha      -15627.28736909 eV
  | Energy correction for multipole
  | error in Hartree potential    :          -0.00665634 Ha          -0.18112828 eV
  | Sum of eigenvalues per atom                           :        -376.33102181 eV
  | Total energy (T->0) per atom                          :        -694.33134498 eV  <-- do not rely on this value for anything but (periodic) metals
  | Electronic free energy per atom                       :        -694.33134498 eV

  Self-consistency convergence accuracy:
  | Change of charge density      : 0.1121E-01
  | Change of sum of eigenvalues  : 0.2104E+00 eV
  | Change of total energy        : -.5082E-03 eV

  End self-consistency iteration #     6       :  max(cpu_time)    wall_clock(cpu1)
  | Time for this iteration                    :        1.227 s           1.227 s
  | Charge density update                      :        0.378 s           0.378 s
  | Density mixing                             :        0.009 s           0.009 s
  | Hartree multipole update                   :        0.004 s           0.004 s
  | Hartree multipole summation                :        0.209 s           0.208 s
  | Integration                                :        0.595 s           0.595 s
  | Solution of K.-S. eqns.                    :        0.031 s           0.031 s
  | Total energy evaluation                    :        0.000 s           0.000 s
------------------------------------------------------------

------------------------------------------------------------
          Begin self-consistency iteration #    7

  Date     :  20150727, Time     :  122229.372
------------------------------------------------------------
  Evaluating new KS density.
  Integration grid: deviation in total charge (<rho> - N_e) =   1.421085E-14
  Pulay mixing of updated and previous charge densities.

  Evaluating partitioned Hartree potential by multipole expansion.
  | Analytical far-field extrapolation by fixed multipoles:
  | Hartree multipole sum: apparent total charge =  -0.769645E-05
  Summing up the Hartree potential.
  Time summed over all CPUs for potential: real work        1.656 s, elapsed        1.662 s
  | RMS charge density error from multipole expansion :   0.161916E-01

  Integrating Hamiltonian matrix: batch-based integration.
  Time summed over all CPUs for integration: real work        4.635 s, elapsed        4.755 s

  Updating Kohn-Sham eigenvalues, eigenvectors, occupation numbers, and Fermi level.
  Solving generalized eigenproblem
  Updating Kohn-Sham eigenvalues and eigenfunctions.
  Solving real generalised eigenvalue problem by standard LAPACK (fast)
  Determining occupation numbers for Kohn-Sham eigenstates.
  | Chemical potential (Fermi level) in eV                 : -.28117908E+01
  | Error in electron count due to remaining E_F inaccuracy: 0.00000000E+00
  | Maximum occupation number of highest empty state:  0.00E+00

  Highest occupied state (VBM) at     -4.35477956 eV
  | Occupation number:      2.00000000

  Lowest unoccupied state (CBM) at    -1.58344318 eV
  | Occupation number:      0.00000000

  Overall HOMO-LUMO gap:      2.77133638 eV.

  Total energy components:
  | Sum of eigenvalues            :        -166.10912428 Ha       -4520.05924979 eV
  | XC energy correction          :         -37.29766825 Ha       -1014.92119175 eV
  | XC potential correction       :          47.68196607 Ha        1297.49231242 eV
  | Free-atom electrostatic energy:        -142.97785383 Ha       -3890.62535547 eV
  | Hartree energy correction     :          -7.49168737 Ha        -203.85918564 eV
  | van der Waals energy corr.    :           0.00000000 Ha           0.00000000 eV
  | Entropy correction            :           0.00000000 Ha           0.00000000 eV
  | ---------------------------
  | Total energy                  :        -306.19436766 Ha       -8331.97267023 eV
  | Total energy, T -> 0          :        -306.19436766 Ha       -8331.97267023 eV  <-- do not rely on this value for anything but (periodic) metals
  | Electronic free energy        :        -306.19436766 Ha       -8331.97267023 eV

  Derived energy quantities:
  | Kinetic energy                :         305.44293659 Ha        8311.52519036 eV
  | Electrostatic energy          :        -574.33963600 Ha      -15628.57666883 eV
  | Energy correction for multipole
  | error in Hartree potential    :          -0.00646441 Ha          -0.17590545 eV
  | Sum of eigenvalues per atom                           :        -376.67160415 eV
  | Total energy (T->0) per atom                          :        -694.33105585 eV  <-- do not rely on this value for anything but (periodic) metals
  | Electronic free energy per atom                       :        -694.33105585 eV

  Self-consistency convergence accuracy:
  | Change of charge density      : 0.1091E-01
  | Change of sum of eigenvalues  : -.4087E+01 eV
  | Change of total energy        : 0.3470E-02 eV

  End self-consistency iteration #     7       :  max(cpu_time)    wall_clock(cpu1)
  | Time for this iteration                    :        1.227 s           1.226 s
  | Charge density update                      :        0.377 s           0.377 s
  | Density mixing                             :        0.010 s           0.010 s
  | Hartree multipole update                   :        0.004 s           0.004 s
  | Hartree multipole summation                :        0.209 s           0.208 s
  | Integration                                :        0.595 s           0.596 s
  | Solution of K.-S. eqns.                    :        0.031 s           0.031 s
  | Total energy evaluation                    :        0.000 s           0.000 s
------------------------------------------------------------

------------------------------------------------------------
          Begin self-consistency iteration #    8

  Date     :  20150727, Time     :  122230.598
------------------------------------------------------------
  Evaluating new KS density.
  Integration grid: deviation in total charge (<rho> - N_e) =   2.131628E-14
  Pulay mixing of updated and previous charge densities.

  Evaluating partitioned Hartree potential by multipole expansion.
  | Analytical far-field extrapolation by fixed multipoles:
  | Hartree multipole sum: apparent total charge =  -0.771825E-05
  Summing up the Hartree potential.
  Time summed over all CPUs for potential: real work        1.656 s, elapsed        1.662 s
  | RMS charge density error from multipole expansion :   0.162620E-01

  Integrating Hamiltonian matrix: batch-based integration.
  Time summed over all CPUs for integration: real work        4.633 s, elapsed        4.744 s

  Updating Kohn-Sham eigenvalues, eigenvectors, occupation numbers, and Fermi level.
  Solving generalized eigenproblem
  Updating Kohn-Sham eigenvalues and eigenfunctions.
  Solving real generalised eigenvalue problem by standard LAPACK (fast)
  Determining occupation numbers for Kohn-Sham eigenstates.
  | Chemical potential (Fermi level) in eV                 : -.30259130E+01
  | Error in electron count due to remaining E_F inaccuracy: 0.00000000E+00
  | Maximum occupation number of highest empty state:  0.00E+00

  Highest occupied state (VBM) at     -4.31660884 eV
  | Occupation number:      2.00000000

  Lowest unoccupied state (CBM) at    -1.58123858 eV
  | Occupation number:      0.00000000

  Overall HOMO-LUMO gap:      2.73537026 eV.

  Total energy components:
  | Sum of eigenvalues            :        -166.08506771 Ha       -4519.40463710 eV
  | XC energy correction          :         -37.30011473 Ha       -1014.98776391 eV
  | XC potential correction       :          47.68514337 Ha        1297.57877120 eV
  | Free-atom electrostatic energy:        -142.97785383 Ha       -3890.62535547 eV
  | Hartree energy correction     :          -7.51647271 Ha        -204.53362897 eV
  | van der Waals energy corr.    :           0.00000000 Ha           0.00000000 eV
  | Entropy correction            :           0.00000000 Ha           0.00000000 eV
  | ---------------------------
  | Total energy                  :        -306.19436561 Ha       -8331.97261424 eV
  | Total energy, T -> 0          :        -306.19436561 Ha       -8331.97261424 eV  <-- do not rely on this value for anything but (periodic) metals
  | Electronic free energy        :        -306.19436561 Ha       -8331.97261424 eV

  Derived energy quantities:
  | Kinetic energy                :         305.44501369 Ha        8311.58171108 eV
  | Electrostatic energy          :        -574.33926456 Ha      -15628.56656142 eV
  | Energy correction for multipole
  | error in Hartree potential    :          -0.00651468 Ha          -0.17727344 eV
  | Sum of eigenvalues per atom                           :        -376.61705309 eV
  | Total energy (T->0) per atom                          :        -694.33105119 eV  <-- do not rely on this value for anything but (periodic) metals
  | Electronic free energy per atom                       :        -694.33105119 eV

  Self-consistency convergence accuracy:
  | Change of charge density      : 0.2482E-02
  | Change of sum of eigenvalues  : 0.6546E+00 eV
  | Change of total energy        : 0.5598E-04 eV

  End self-consistency iteration #     8       :  max(cpu_time)    wall_clock(cpu1)
  | Time for this iteration                    :        1.226 s           1.226 s
  | Charge density update                      :        0.377 s           0.377 s
  | Density mixing                             :        0.010 s           0.011 s
  | Hartree multipole update                   :        0.005 s           0.004 s
  | Hartree multipole summation                :        0.208 s           0.209 s
  | Integration                                :        0.594 s           0.594 s
  | Solution of K.-S. eqns.                    :        0.031 s           0.031 s
  | Total energy evaluation                    :        0.001 s           0.000 s
------------------------------------------------------------

------------------------------------------------------------
          Begin self-consistency iteration #    9

  Date     :  20150727, Time     :  122231.824
------------------------------------------------------------
  Evaluating new KS density.
  Integration grid: deviation in total charge (<rho> - N_e) =   7.105427E-15
  Pulay mixing of updated and previous charge densities.

  Evaluating partitioned Hartree potential by multipole expansion.
  | Analytical far-field extrapolation by fixed multipoles:
  | Hartree multipole sum: apparent total charge =  -0.771577E-05
  Summing up the Hartree potential.
  Time summed over all CPUs for potential: real work        1.656 s, elapsed        1.662 s
  | RMS charge density error from multipole expansion :   0.162624E-01

  Integrating Hamiltonian matrix: batch-based integration.
  Time summed over all CPUs for integration: real work        4.635 s, elapsed        4.733 s

  Updating Kohn-Sham eigenvalues, eigenvectors, occupation numbers, and Fermi level.
  Solving generalized eigenproblem
  Updating Kohn-Sham eigenvalues and eigenfunctions.
  Solving real generalised eigenvalue problem by standard LAPACK (fast)
  Determining occupation numbers for Kohn-Sham eigenstates.
  | Chemical potential (Fermi level) in eV                 : -.30282037E+01
  | Error in electron count due to remaining E_F inaccuracy: 0.00000000E+00
  | Maximum occupation number of highest empty state:  0.00E+00

  Highest occupied state (VBM) at     -4.31850722 eV
  | Occupation number:      2.00000000

  Lowest unoccupied state (CBM) at    -1.58131818 eV
  | Occupation number:      0.00000000

  Overall HOMO-LUMO gap:      2.73718904 eV.

  Total energy components:
  | Sum of eigenvalues            :        -166.08392147 Ha       -4519.37344642 eV
  | XC energy correction          :         -37.30019426 Ha       -1014.98992789 eV
  | XC potential correction       :          47.68523777 Ha        1297.58133985 eV
  | Free-atom electrostatic energy:        -142.97785383 Ha       -3890.62535547 eV
  | Hartree energy correction     :          -7.51763324 Ha        -204.56520853 eV
  | van der Waals energy corr.    :           0.00000000 Ha           0.00000000 eV
  | Entropy correction            :           0.00000000 Ha           0.00000000 eV
  | ---------------------------
  | Total energy                  :        -306.19436503 Ha       -8331.97259846 eV
  | Total energy, T -> 0          :        -306.19436503 Ha       -8331.97259846 eV  <-- do not rely on this value for anything but (periodic) metals
  | Electronic free energy        :        -306.19436503 Ha       -8331.97259846 eV

  Derived energy quantities:
  | Kinetic energy                :         305.44931846 Ha        8311.69884983 eV
  | Electrostatic energy          :        -574.34348923 Ha      -15628.68152040 eV
  | Energy correction for multipole
  | error in Hartree potential    :          -0.00651323 Ha          -0.17723411 eV
  | Sum of eigenvalues per atom                           :        -376.61445387 eV
  | Total energy (T->0) per atom                          :        -694.33104987 eV  <-- do not rely on this value for anything but (periodic) metals
  | Electronic free energy per atom                       :        -694.33104987 eV

  Self-consistency convergence accuracy:
  | Change of charge density      : 0.8678E-03
  | Change of sum of eigenvalues  : 0.3119E-01 eV
  | Change of total energy        : 0.1579E-04 eV

  End self-consistency iteration #     9       :  max(cpu_time)    wall_clock(cpu1)
  | Time for this iteration                    :        1.226 s           1.226 s
  | Charge density update                      :        0.377 s           0.377 s
  | Density mixing                             :        0.012 s           0.012 s
  | Hartree multipole update                   :        0.004 s           0.004 s
  | Hartree multipole summation                :        0.208 s           0.209 s
  | Integration                                :        0.593 s           0.592 s
  | Solution of K.-S. eqns.                    :        0.031 s           0.031 s
  | Total energy evaluation                    :        0.000 s           0.000 s
------------------------------------------------------------

------------------------------------------------------------
          Begin self-consistency iteration #   10

  Date     :  20150727, Time     :  122233.050
------------------------------------------------------------
  Evaluating new KS density.
  Integration grid: deviation in total charge (<rho> - N_e) =   2.842171E-14
  Pulay mixing of updated and previous charge densities.

  Evaluating partitioned Hartree potential by multipole expansion.
  | Analytical far-field extrapolation by fixed multipoles:
  | Hartree multipole sum: apparent total charge =  -0.770879E-05
  Summing up the Hartree potential.
  Time summed over all CPUs for potential: real work        1.656 s, elapsed        1.662 s
  | RMS charge density error from multipole expansion :   0.162654E-01

  Integrating Hamiltonian matrix: batch-based integration.
  Time summed over all CPUs for integration: real work        4.635 s, elapsed        4.737 s

  Updating Kohn-Sham eigenvalues, eigenvectors, occupation numbers, and Fermi level.
  Solving generalized eigenproblem
[...]
  |                                  0.00521565       0.12037700       0.00583426
  |                                  0.00193955       0.00583426       0.12874509
  ----------------------------------------------------------------------


  Total energy components:
  | Sum of eigenvalues            :        -166.08870876 Ha       -4519.50371531 eV
  | XC energy correction          :         -37.29960340 Ha       -1014.97384989 eV
  | XC potential correction       :          47.68443983 Ha        1297.55962677 eV
  | Free-atom electrostatic energy:        -142.97785383 Ha       -3890.62535547 eV
  | Hartree energy correction     :          -7.51263798 Ha        -204.42928063 eV
  | van der Waals energy corr.    :          -0.00150824 Ha          -0.04104132 eV
  | Entropy correction            :           0.00000000 Ha           0.00000000 eV
  | ---------------------------
  | Total energy                  :        -306.19587239 Ha       -8332.01361583 eV
  | Total energy, T -> 0          :        -306.19587239 Ha       -8332.01361583 eV  <-- do not rely on this value for anything but (periodic) metals
  | Electronic free energy        :        -306.19587239 Ha       -8332.01361583 eV

  Derived energy quantities:
  | Kinetic energy                :         305.45025518 Ha        8311.72433944 eV
  | Electrostatic energy          :        -574.34501593 Ha      -15628.72306407 eV
  | Energy correction for multipole
  | error in Hartree potential    :          -0.00652036 Ha          -0.17742797 eV
  | Sum of eigenvalues per atom                           :        -376.62530961 eV
  | Total energy (T->0) per atom                          :        -694.33446799 eV  <-- do not rely on this value for anything but (periodic) metals
  | Electronic free energy per atom                       :        -694.33446799 eV

  atomic forces [eV/Ang]:
  -----------------------
  atom #    1
   Hellmann-Feynman + Multipole  : -.649973E+01 -.101395E+02 0.242242E+01
   Pulay + GGA                   : 0.573735E+01 0.125961E+02 -.323830E+01
   Van der Waals               : -.201843E-03 -.395632E-02 0.273373E-02
   ----------------------------------------------------------------
   Total forces(   1)            : -.762580E+00 0.245271E+01 -.813151E+00
  atom #    2
   Hellmann-Feynman + Multipole  : 0.194214E+01 -.338804E+01 0.137162E+01
   Pulay + GGA                   : -.621212E-02 0.560671E-01 -.193020E-01
   Van der Waals               : -.307896E-03 0.788577E-03 0.173452E-02
   ----------------------------------------------------------------
   Total forces(   2)            : 0.193562E+01 -.333119E+01 0.135405E+01
  atom #    3
   Hellmann-Feynman + Multipole  : -.189487E+01 -.568987E+00 -.265713E+00
   Pulay + GGA                   : 0.589705E-01 0.155987E-01 0.321933E-01
   Van der Waals               : 0.125152E-02 0.152747E-02 0.208904E-02
   ----------------------------------------------------------------
   Total forces(   3)            : -.183464E+01 -.551860E+00 -.231431E+00
  atom #    4
   Hellmann-Feynman + Multipole  : -.593549E+01 -.920136E+01 0.920667E+01
   Pulay + GGA                   : 0.601385E+01 0.103634E+02 -.666691E+01
   Van der Waals               : 0.123568E-02 0.270834E-02 0.690470E-03
   ----------------------------------------------------------------
   Total forces(   4)            : 0.795961E-01 0.116475E+01 0.254046E+01
  atom #    5
   Hellmann-Feynman + Multipole  : -.430630E+00 -.757840E+00 -.471594E+00
   Pulay + GGA                   : 0.473213E-01 0.121942E+00 0.357407E-01
   Van der Waals               : 0.369923E-02 0.724728E-03 0.186095E-02
   ----------------------------------------------------------------
   Total forces(   5)            : -.379610E+00 -.635174E+00 -.433992E+00
  atom #    6
   Hellmann-Feynman + Multipole  : -.229346E+00 0.401623E+00 -.231442E+01
   Pulay + GGA                   : -.390356E-01 0.445741E-01 -.128531E+00
   Van der Waals               : 0.121179E-02 -.135130E-03 0.466282E-03
   ----------------------------------------------------------------
   Total forces(   6)            : -.267170E+00 0.446062E+00 -.244249E+01
  atom #    7
   Hellmann-Feynman + Multipole  : -.600060E+01 0.100206E+01 -.965149E+01
   Pulay + GGA                   : 0.910318E+01 -.109063E+01 0.107875E+02
   Van der Waals               : 0.102783E-02 0.218796E-02 0.414065E-03
   ----------------------------------------------------------------
   Total forces(   7)            : 0.310361E+01 -.863804E-01 0.113647E+01
  atom #    8
   Hellmann-Feynman + Multipole  : -.326160E+00 -.529132E+00 -.909712E+00
   Pulay + GGA                   : 0.509603E-01 0.468968E-01 0.703353E-01
   Van der Waals               : 0.764281E-03 0.722858E-04 -.255982E-02
   ----------------------------------------------------------------
   Total forces(   8)            : -.274435E+00 -.482163E+00 -.841936E+00
  atom #    9
   Hellmann-Feynman + Multipole  : -.171956E+01 0.100758E+01 -.395613E+00
   Pulay + GGA                   : 0.123350E+00 -.499249E-01 0.234365E-01
   Van der Waals               : -.190990E-02 0.312920E-02 0.195605E-02
   ----------------------------------------------------------------
   Total forces(   9)            : -.159812E+01 0.960779E+00 -.370221E+00
  atom #   10
   Hellmann-Feynman + Multipole  : -.283882E+01 -.122403E+01 -.152807E+02
   Pulay + GGA                   : 0.367613E+01 0.166066E+01 0.138655E+02
   Van der Waals               : -.464808E-02 -.265303E-02 -.342302E-02
   ----------------------------------------------------------------
   Total forces(  10)            : 0.832658E+00 0.433977E+00 -.141867E+01
  atom #   11
   Hellmann-Feynman + Multipole  : -.476037E+00 -.242856E+00 0.307327E+00
   Pulay + GGA                   : 0.929686E-01 0.738222E-01 0.571786E-01
   Van der Waals               : -.612625E-03 -.135695E-02 -.143036E-02
   ----------------------------------------------------------------
   Total forces(  11)            : -.383681E+00 -.170391E+00 0.363076E+00
  atom #   12
   Hellmann-Feynman + Multipole  : -.367221E+00 -.169269E+00 0.105972E+01
   Pulay + GGA                   : -.823156E-01 -.303402E-01 0.975433E-01
   Van der Waals               : -.150998E-02 -.303712E-02 -.453191E-02
   ----------------------------------------------------------------
   Total forces(  12)            : -.451047E+00 -.202646E+00 0.115273E+01
  Timings for vdw_correction_hirshfeld (Tkatchenko-Scheffler 2009):
  | CPU time:        3.162 s, Wall clock time:        3.161 s.
  Removing unitary transformations (pure translations, rotations) from forces on atoms.
  Atomic forces before filtering:
  | Net force on center of mass :  0.195605E-03 -.151702E-02 -.510024E-02 eV/A
  | Net torque on center of mass:  0.988665E-02 -.123568E-01 -.143438E-03 eV
  Atomic forces after filtering:
  | Net force on center of mass :  -.892031E-15 -.312211E-15 0.178406E-15 eV/A
  | Net torque on center of mass:  -.377634E-15 0.226580E-14 -.226580E-14 eV
 
  Energy and forces in a compact form:
  | Total energy uncorrected      :         -0.833201361583452E+04 eV
  | Total energy corrected        :         -0.833201361583452E+04 eV  <-- do not rely on this value for anything but (periodic) metals
  | Electronic free energy        :         -0.833201361583452E+04 eV
  Total atomic forces (unitary forces cleaned) [eV/Ang]:
  |   1         -0.762836182728846E+00          0.245279234501015E+01         -0.811921007365647E+00
  |   2          0.193534847562489E+01         -0.333119866531797E+01          0.135509575492343E+01
  |   3         -0.183486479008120E+01         -0.551852826793032E+00         -0.230537744871340E+00
  |   4          0.793278838219149E-01          0.116466181618117E+01          0.254125733753981E+01
  |   5         -0.379719207567031E+00         -0.635182159467950E+00         -0.433581147325026E+00
  |   6         -0.267650998719040E+00          0.445670166055081E+00         -0.244169770425434E+01
  |   7          0.310342901342284E+01         -0.865071120883439E-01          0.113682733358291E+01
  |   8         -0.274365045459764E+00         -0.482026230102453E+00         -0.841821210559802E+00
  |   9         -0.159832237494587E+01          0.960623178618246E+00         -0.369868517223155E+00
  |  10          0.833139715045721E+00          0.434555946450950E+00         -0.141892696612565E+01
  |  11         -0.383070934678175E+00         -0.169762441003502E+00          0.362456284180027E+00
  |  12         -0.450415553735444E+00         -0.201774017542338E+00          0.115271758749878E+01
 
  ------------------------------------ 
  Start decomposition of the XC Energy 
  ------------------------------------ 
  Hartree-Fock part   :          0.000000000 Ha              0.000000000 eV
  ------------------------------------ 
  X Energy            :        -35.985866821 Ha           -979.225258638 eV
  C Energy GGA        :         -1.313736581 Ha            -35.748591250 eV
  Total XC Energy     :        -37.299603403 Ha          -1014.973849888 eV
  LDA X and C from self-consistent density 
  X Energy LDA        :        -32.441090442 Ha           -882.766985607 eV
  C Energy LDA        :         -2.641825490 Ha            -71.887729192 eV
  ------------------------------------ 
  End decomposition of the XC Energy 
  ------------------------------------ 
  Performing Hirshfeld analysis of fragment charges and moments.
  ----------------------------------------------------------------------
  | Atom     1: O
  |   Hirshfeld charge        :     -0.43513944
  |   Free atom volume        :     23.95238533
  |   Hirshfeld volume        :     25.53684559
  |   Hirshfeld dipole vector :      0.04330342       0.07840635      -0.02626175
  |   Hirshfeld dipole moment :      0.09334036
  |   Hirshfeld second moments:     -0.02940541      -0.02977799       0.02976791
  |                                 -0.02977799      -0.09312134      -0.02151273
  |                                  0.02976791      -0.02151273      -0.14020560
  ----------------------------------------------------------------------
  | Atom     2: H
  |   Hirshfeld charge        :      0.05345572
  |   Free atom volume        :     10.44207651
  |   Hirshfeld volume        :      8.90127493
  |   Hirshfeld dipole vector :     -0.01970408       0.04621656      -0.02212034
  |   Hirshfeld dipole moment :      0.05489564
  |   Hirshfeld second moments:      0.06209940       0.02520645       0.00248462
  |                                  0.02520645       0.01734248       0.01542353
  |                                  0.00248462       0.01542353       0.04807967
  ----------------------------------------------------------------------
  | Atom     3: H
  |   Hirshfeld charge        :      0.03824213
  |   Free atom volume        :     10.44207651
  |   Hirshfeld volume        :      9.17278140
  |   Hirshfeld dipole vector :      0.05092027       0.01601691       0.00416913
  |   Hirshfeld dipole moment :      0.05354248
  |   Hirshfeld second moments:      0.01020483      -0.03129586       0.00701473
  |                                 -0.03129586       0.05657464      -0.00404648
  |                                  0.00701473      -0.00404648       0.04052360
  ----------------------------------------------------------------------
  | Atom     4: O
  |   Hirshfeld charge        :     -0.17563239
  |   Free atom volume        :     23.95238533
  |   Hirshfeld volume        :     20.00315673
  |   Hirshfeld dipole vector :      0.03244633      -0.00962614      -0.01749619
  |   Hirshfeld dipole moment :      0.03809913
  |   Hirshfeld second moments:      0.04835559       0.02027574       0.02861038
  |                                  0.02027574       0.09227911       0.01426805
  |                                  0.02861038       0.01426805       0.10921077
  ----------------------------------------------------------------------
  | Atom     5: H
  |   Hirshfeld charge        :      0.17896181
  |   Free atom volume        :     10.44207651
  |   Hirshfeld volume        :      6.02757883
  |   Hirshfeld dipole vector :      0.05586473       0.09102379       0.04270509
  |   Hirshfeld dipole moment :      0.11502141
  |   Hirshfeld second moments:      0.11095424      -0.00295088      -0.00152399
  |                                 -0.00295088       0.12423726      -0.00307348
  |                                 -0.00152399      -0.00307348       0.14207408
  ----------------------------------------------------------------------
  | Atom     6: H
  |   Hirshfeld charge        :      0.17333680
  |   Free atom volume        :     10.44207651
  |   Hirshfeld volume        :      5.68761065
  |   Hirshfeld dipole vector :     -0.01714294       0.00809896      -0.12035161
  |   Hirshfeld dipole moment :      0.12183589
  |   Hirshfeld second moments:      0.12679010       0.01117279       0.00821257
  |                                  0.01117279       0.14082800       0.00508727
  |                                  0.00821257       0.00508727       0.12956930
  ----------------------------------------------------------------------
  | Atom     7: O
  |   Hirshfeld charge        :     -0.21419476
  |   Free atom volume        :     23.95238533
  |   Hirshfeld volume        :     21.15712858
  |   Hirshfeld dipole vector :     -0.02019300      -0.02743138       0.03114119
  |   Hirshfeld dipole moment :      0.04615205
  |   Hirshfeld second moments:      0.06193016      -0.02725637       0.00902120
  |                                 -0.02725637       0.05899930       0.03033226
  |                                  0.00902120       0.03033226       0.02396219
  ----------------------------------------------------------------------
  | Atom     8: H
  |   Hirshfeld charge        :      0.10517855
  |   Free atom volume        :     10.44207651
  |   Hirshfeld volume        :      7.48381217
  |   Hirshfeld dipole vector :      0.01182492       0.02359125       0.04644712
  |   Hirshfeld dipole moment :      0.05342013
  |   Hirshfeld second moments:      0.10556061      -0.00088459       0.00914018
  |                                 -0.00088459       0.07159483      -0.02523484
  |                                  0.00914018      -0.02523484       0.06075782
  ----------------------------------------------------------------------
  | Atom     9: H
  |   Hirshfeld charge        :      0.15593158
  |   Free atom volume        :     10.44207651
  |   Hirshfeld volume        :      6.13651318
  |   Hirshfeld dipole vector :      0.08933706      -0.07749343       0.01312639
  |   Hirshfeld dipole moment :      0.11899010
  |   Hirshfeld second moments:      0.11737603       0.00092959       0.00117715
  |                                  0.00092959       0.12017211       0.01398294
  |                                  0.00117715       0.01398294       0.12067597
  ----------------------------------------------------------------------
  | Atom    10: O
  |   Hirshfeld charge        :     -0.22396467
  |   Free atom volume        :     23.95238533
  |   Hirshfeld volume        :     20.14407153
  |   Hirshfeld dipole vector :      0.01203002      -0.01999271       0.02500755
  |   Hirshfeld dipole moment :      0.03420244
  |   Hirshfeld second moments:      0.08873564       0.04266401      -0.01954372
  |                                  0.04266401       0.05327813       0.01074390
  |                                 -0.01954372       0.01074390       0.06864223
  ----------------------------------------------------------------------
  | Atom    11: H
  |   Hirshfeld charge        :      0.17202758
  |   Free atom volume        :     10.44207651
  |   Hirshfeld volume        :      5.57027288
  |   Hirshfeld dipole vector :      0.09994787       0.06426507       0.03443493
  |   Hirshfeld dipole moment :      0.12371476
  |   Hirshfeld second moments:      0.13084004       0.00798842      -0.01335352
  |                                  0.00798842       0.12651574      -0.00181438
  |                                 -0.01335352      -0.00181438       0.13869615
  ----------------------------------------------------------------------
  | Atom    12: H
  |   Hirshfeld charge        :      0.17185052
  |   Free atom volume        :     10.44207651
  |   Hirshfeld volume        :      5.86986679
  |   Hirshfeld dipole vector :     -0.07441102      -0.04082839       0.08731150
  |   Hirshfeld dipole moment :      0.12176722
  |   Hirshfeld second moments:      0.13267708       0.00521565       0.00193955
  |                                  0.00521565       0.12037700       0.00583426
  |                                  0.00193955       0.00583426       0.12874509
  ----------------------------------------------------------------------


------------------------------------------------------------------------------
  Final output of selected total energy values:

  The following output summarizes some interesting total energy values
  at the end of a run (AFTER all relaxation, molecular dynamics, etc.).

  | Total energy of the DFT / Hartree-Fock s.c.f. calculation      :          -8332.013615835 eV
  | Final zero-broadening corrected energy (caution - metals only) :          -8332.013615835 eV
  | For reference only, the value of 1 Hartree used in FHI-aims is :             27.211384500 eV

  Before relying on these values, please be sure to understand exactly which
  total energy value is referred to by a given number. Different objects may
  all carry the same name 'total energy'. Definitions:

  Total energy of the DFT / Hartree-Fock s.c.f. calculation:
  | Note that this energy does not include ANY quantities calculated after the
  | s.c.f. cycle, in particular not ANY RPA, MP2, etc. many-body perturbation terms.

  Final zero-broadening corrected energy:
  | For metallic systems only, a broadening of the occupation numbers at the Fermi
  | level can be extrapolated back to zero broadening by an electron-gas inspired
  | formula. For all systems that are not real metals, this value can be
  | meaningless and should be avoided.

------------------------------------------------------------------------------

------------------------------------------------------------
          Leaving FHI-aims.
          Date     :  20150727, Time     :  122244.033

          Computational steps:
          | Number of self-consistency cycles          :           16

          Detailed time accounting                     :  max(cpu_time)    wall_clock(cpu1)
          | Total time                                 :       23.780 s          23.830 s
          | Preparation time                           :        0.170 s           0.476 s
          | Grid partitioning                          :        0.109 s           0.109 s
          | Preloading free-atom quantities on grid    :        0.013 s           0.013 s
          | Free-atom superposition energy             :        0.046 s           0.046 s
          | Total time for integrations                :       10.447 s          10.445 s
          | Total time for solution of K.-S. equations :        0.616 s           0.615 s
          | Total time for density & force components  :        7.629 s           7.628 s
          | Total time for mixing                      :        0.160 s           0.165 s
          | Total time for Hartree multipole update    :        0.070 s           0.067 s
          | Total time for Hartree multipole sum       :        4.025 s           4.028 s
          | Total time for total energy evaluation     :        0.006 s           0.001 s
          | Total time for scaled ZORA corrections     :        0.000 s           0.000 s
          | Total time for TS (2009) vdW correction    :        0.034 s           0.034 s

          Have a nice day.
------------------------------------------------------------
