  MPI-parallelism will be employed.
------------------------------------------------------------
          Invoking FHI-aims ...
          Version 081213
          Compiled on 2013/08/29 at 17:41:06 on host generoso.

          When using FHI-aims, please cite the following reference:

          Volker Blum, Ralf Gehrke, Felix Hanke, Paula Havu,
          Ville Havu, Xinguo Ren, Karsten Reuter, and Matthias Scheffler,
          'Ab Initio Molecular Simulations with Numeric Atom-Centered Orbitals: FHI-aims',
          Computer Physics Communications 180, 2175-2196 (2009)

          For any questions about FHI-aims, please visit the aimsclub website
          with its forums and wiki. Contributions to both the forums and the
          wiki are warmly encouraged - they are for you, and everyone is welcome there.

------------------------------------------------------------

  Date     :  20150727, Time     :  120425.702
  Time zero on CPU 1             :   0.429930000000000E-01  s.
  Internal wall clock time zero  :           207230665.702  s.

  Using        8 parallel tasks.
  Task        0 on host gen60 reporting.
  Task        1 on host gen60 reporting.
  Task        2 on host gen60 reporting.
  Task        3 on host gen60 reporting.
  Task        4 on host gen60 reporting.
  Task        5 on host gen60 reporting.
  Task        6 on host gen60 reporting.
  Task        7 on host gen60 reporting.

  Performing system and environment tests:
  | Environment variable OMP_NUM_THREADS correctly set to 1.
  | Checking for scalapack...
  | No scalapack compiled in.

  Obtaining array dimensions for all initial allocations:
  
  -----------------------------------------------------------------------
  Parsing control.in (first pass over file, find array dimensions only).
  The contents of control.in will be repeated verbatim below
  unless switched off by setting 'verbatim_writeout .false.' .
  in the first line of control.in .
  -----------------------------------------------------------------------
  
  #########################################################################################
  #
  #  Volker Blum, FHI 2008 : Test run input file control.in
  #
  #########################################################################################
  #
  #  Physical model
  #
    xc                 rpbe
    spin               none
    relativistic       atomic_zora scalar
    charge             0.
   vdw_correction_hirshfeld
  #
  #  SCF convergence
  #
    occupation_type    gaussian 0.01
    mixer              pulay
      n_max_pulay        10
      charge_mix_param   0.1
    sc_accuracy_rho    5E-5
    sc_accuracy_eev    5E-3
    sc_accuracy_etot   5E-6
    sc_iter_limit      3000
  #
  #  Eigenvalue solver
  #
    KS_method          lapack
      empty_states       8
      basis_threshold    0.e-5
  #
  #  Efficiency
  #
  #   all previous settings are now default, except stratmann still
  #   undecided. Continue to handle stratmann with care, if at all.
  #
  #  partition_type stratmann
    partition_type rho_r2
  #  hartree_partition_type stratmann
  #
  #  Oprions for large clusters (100's of atoms: memory saving / better scaling)
  #
  # for periodic systems:
  #
    density_update_method orbital
    packed_matrix_format none
  #  k_grid 6 6 6
  #  output k_eigenvalue 1
  #  distributed_spline_storage .true.
  #
  #  Relaxation
  #
  #  relax_geometry   bfgs 5.e-3
    sc_accuracy_forces 5.E-4
    final_forces_cleaned .true.
  #
  #  Output options
  #
  #  output mulliken
    output Hirshfeld
  #  output dipole
  
  #harmonic_length_scale 0.001
  
  ################################################################################
  #
  #  FHI-aims code project
  #  VB, Fritz-Haber Institut, 2007
  #
  #  Suggested "safe" defaults for H atom (to be pasted into control.in file)
  #  Basis constructed for a non-relativistic H2 molecule using the
  #  PW-LDA functional.
  #
  ################################################################################
    species        H
  #     global species definitions
      nucleus             1
      cut_pot             4.0  2.0  1.0
      cut_free_atom       finite 8.0
      logarithmic         0.00010000 100.00  1.0123
      basis_dep_cutoff    1d-4  # 1d-4 is safe default - please check 5d-4 if you wish!
      radial_base         24 7.0
      radial_multiplier   2
      angular_grids       specified
        division   0.2783  110
        division   0.3822  194
        division   0.5626  302
  #      division   0.5922  434
  #      division   0.6227  590
  #      division   0.7206  770
        outer_grid  302
      l_hartree           4
  ################################################################################
  #
  #  Definition of "minimal" basis
  #
  ################################################################################
  #     valence basis states
      valence      1  s   1.
  #     ion occupancy
      ion_occ      1  s   0.5
  ################################################################################
  #
  #  Suggested additional basis functions. For production calculations,
  #  uncomment them one after another (the most important basis functions are
  #  listed first).
  #
  ################################################################################
  #  "First tier" - improvements: -1014.90 meV to -62.69 meV
       hydro 2 s 2.1
       hydro 2 p 3.5
  #  "Second tier" - improvements: -12.89 meV to -1.83 meV
       hydro 1 s 0.85
       hydro 2 p 3.7
       hydro 2 s 1.2
       hydro 3 d 7
  #  "Third tier" - improvements: -0.25 meV to -0.12 meV
  #     hydro 4 f 11.2
  #     hydro 3 p 4.8
  #     hydro 4 d 9
  #     hydro 3 s 3.2
  
  ################################################################################
  #
  #  FHI-aims code project
  #  VB, Fritz-Haber Institut, 2007
  #
  #  Suggested "safe" defaults for O atom (to be pasted into control.in file)
  #  All values have been tested for a non-relativistic, non-spinpolarized O2
  #  molecule using the PW-LDA functional. Validity for PBE is expected.
  #
  #  Constructed for dimers: 1.0 A, 1.208 A, 1.5 A, 2.0 A, 3.0 A
  #
  ################################################################################
    species        O
  #     global species definitions
      nucleus             8
      mass                15.9994
      l_hartree           4
      cut_pot             4.0  2.0  1.0
      cut_free_atom       finite 8.0
      basis_dep_cutoff    1d-4  # 1d-4 is safe default - please check 5d-4 if you wish!
      logarithmic         0.00010000 100.00  1.0123
      radial_base         36 7.0
      radial_multiplier   2
       angular_grids specified
        division   0.4087  110
        division   0.5181  194
        division   0.6184  302
  #      division   0.7315  434
  #      division   0.7934  590
  #      division   0.9656  770
  #      division   1.4041  974
  #      outer_grid 974
        outer_grid 302
  ################################################################################
  #
  #  Definition of "minimal" basis
  #
  ################################################################################
  #     valence basis states
      valence      2  s   2.
      valence      2  p   4.
  #     ion occupancy
      ion_occ      2  s   1.
      ion_occ      2  p   3.
  ################################################################################
  #
  #  Suggested additional basis functions. For production calculations,
  #  uncomment them one after another (the most important basis functions are
  #  listed first).
  #
  ################################################################################
  #  "First tier" - improvements: -699.05 meV to -159.38 meV
       hydro 2 p 1.8
       hydro 3 d 7.6
       hydro 3 s 6.4
  #  "Second tier" - improvements: -49.91 meV to -5.39 meV
       hydro 4 f 11.6
       hydro 3 p 6.2
       hydro 3 d 5.6
       hydro 5 g 17.6
       hydro 1 s 0.75
  #  "Third tier" - improvements: -2.83 meV to -0.50 meV
  #     ionic 2 p auto
  #     hydro 4 f 10.8
  #     hydro 4 d 4.7
  #     hydro 2 s 6.8
  #  "Fourth tier" - improvements: -0.40 meV to -0.12 meV
  #     hydro 3 p 5
  #     hydro 3 s 3.3
  #     hydro 5 g 15.6
  #     hydro 4 f 17.6
  #     hydro 4 d 14
  # Further basis functions - -0.08 meV and below
  #     hydro 3 s 2.1
  #     hydro 4 d 11.6
  #     hydro 3 p 16
  #     hydro 2 s 17.2
  
  
  -----------------------------------------------------------------------
  Completed first pass over input file control.in .
  -----------------------------------------------------------------------
  
  
  -----------------------------------------------------------------------
  Parsing geometry.in (first pass over file, find array dimensions only).
  The contents of geometry.in will be repeated verbatim below
  unless switched off by setting 'verbatim_writeout .false.' .
  in the first line of geometry.in .
  -----------------------------------------------------------------------
  
  atom      -4.053030000      0.065001000     -1.525160000  O
  atom      -4.566710000      0.974813000     -1.912820000  H
  atom      -3.067820000      0.330172000     -1.477310000  H
  atom      -4.581760000     -0.256435000      0.939478000  O
  atom      -4.349860000      0.471090000      1.504340000  H
  atom      -5.393870000     -0.726611000      1.228070000  H
  atom      -1.645860000      0.870179000     -1.502250000  O
  atom      -1.568890000      1.501730000     -0.721051000  H
  atom      -0.824432000      0.282220000     -1.377720000  H
  atom      -1.975360000      2.858040000      0.453140000  O
  atom      -1.223550000      3.375850000      0.786238000  H
  atom      -2.537520000      2.567960000      1.156120000  H
  atom      -5.628340000      3.730740000      1.385610000  O
  atom      -6.090650000      4.418470000      1.860350000  H
  atom      -5.158540000      4.200260000      0.615875000  H
  
  -----------------------------------------------------------------------
  Completed first pass over input file geometry.in .
  -----------------------------------------------------------------------
  
 
  Basic array size parameters: 
  | Number of species                 :        2
  | Number of atoms                   :       15
  | Max. basis fn. angular momentum   :        4
  | Max. atomic/ionic basis occupied n:        2
  | Max. number of basis fn. types    :        2
  | Max. radial fns per species/type  :        8
  | Max. logarithmic grid size        :     1301
  | Max. radial integration grid size :       73
  | Max. angular integration grid size:      302
  | Max. angular grid division number :        8
  | Radial grid for Hartree potential :     1301
  | Number of spin channels           :        1

------------------------------------------------------------
          Reading file control.in.
------------------------------------------------------------
  XC: Using RPBE gradient-corrected functionals.
  Spin treatment: No spin polarisation.
  Scalar relativistic treatment of kinetic energy: on-site free-atom approximation to ZORA.
  Charge =   0.000000E+00: Neutral system requested explicitly.
  Using non-empirical van der Waals correction (Hirshfeld partitioning):
  Occupation type: Gaussian broadening, width =   0.100000E-01 eV.
  Using pulay charge density mixing.
  Pulay mixing - number of memorized iterations:   10
  Charge density mixing - mixing parameter:     0.1000
  Convergence accuracy of self-consistent charge density: 0.5000E-04
  Convergence accuracy of sum of eigenvalues: 0.5000E-02
  Convergence accuracy of total energy: 0.5000E-05
  Maximum number of s.-c. iterations  :  3000
  Kohn-Sham eigenvalues and eigenfunctions calculated by lapack diagonalisation (D&C).
  Number of empty states per atom:        8
  Threshold for basis singularities: 0.0000E+00
  Partition function in integrals calculations: rho / r^2
 Using packed matrix format           0
  Convergence accuracy of forces: 0.5000E-03
  Cleaning forces before final output.
  Hirshfeld charge analysis will be performed.
 
  Reading configuration options for species H                   .
  | Found nuclear charge :   1.0000
  | Found cutoff potl. onset [A], width [A], scale factor :    4.00000    2.00000    1.00000
  | Found cutoff specification for free atom: Cutoff potential begins at    8.00000 A.
  | Found logarithmic grid data [bohr] : 0.1000E-03 0.1000E+03 0.1012E+01
  | Threshold for basis-dependent cutoff potential is   0.100000E-03
  | Found data for basic radial integration grid :    24 points, outermost radius =    7.000 A
  | Found multiplier for basic radial grid :   2
  | Found angular grid specification: user-specified.
  | Specified grid contains     4 separate shells.
  | Check grid settings after all constraints further below.
  | Found l_max for Hartree potential  :   4
  | Found free-atom valence shell :  1 s   1.000
  | No ionic wave fns used. Skipping ion_occ.
  | Found hydrogenic basis function :  2 s   2.100
  | Found hydrogenic basis function :  2 p   3.500
  | Found hydrogenic basis function :  1 s   0.850
  | Found hydrogenic basis function :  2 p   3.700
  | Found hydrogenic basis function :  2 s   1.200
  | Found hydrogenic basis function :  3 d   7.000
  Species H                   : Missing cutoff potential type.
  Defaulting to exp(1/x)/(1-x)^2 type cutoff potential.
  Species H : On-site basis accuracy parameter (for Gram-Schmidt orthonormalisation) not specified.
  Using default value basis_acc =  0.1000000E-03.
  Species H                   : Using default innermost maximum threshold i_radial=  2 for radial functions.
  Species H                   : Basic radial grid will be enhanced according to radial_multiplier =   2, to contain    49 grid points.
 
  Reading configuration options for species O                   .
  | Found nuclear charge :   8.0000
  | Found atomic mass :    15.9994000000000      amu
  | Found l_max for Hartree potential  :   4
  | Found cutoff potl. onset [A], width [A], scale factor :    4.00000    2.00000    1.00000
  | Found cutoff specification for free atom: Cutoff potential begins at    8.00000 A.
  | Threshold for basis-dependent cutoff potential is   0.100000E-03
  | Found logarithmic grid data [bohr] : 0.1000E-03 0.1000E+03 0.1012E+01
  | Found data for basic radial integration grid :    36 points, outermost radius =    7.000 A
  | Found multiplier for basic radial grid :   2
  | Found angular grid specification: user-specified.
  | Specified grid contains     4 separate shells.
  | Check grid settings after all constraints further below.
  | Found free-atom valence shell :  2 s   2.000
  | Found free-atom valence shell :  2 p   4.000
  | No ionic wave fns used. Skipping ion_occ.
  | No ionic wave fns used. Skipping ion_occ.
  | Found hydrogenic basis function :  2 p   1.800
  | Found hydrogenic basis function :  3 d   7.600
  | Found hydrogenic basis function :  3 s   6.400
  | Found hydrogenic basis function :  4 f  11.600
  | Found hydrogenic basis function :  3 p   6.200
  | Found hydrogenic basis function :  3 d   5.600
  | Found hydrogenic basis function :  5 g  17.600
  | Found hydrogenic basis function :  1 s   0.750
  Species O                   : Missing cutoff potential type.
  Defaulting to exp(1/x)/(1-x)^2 type cutoff potential.
  Species O : On-site basis accuracy parameter (for Gram-Schmidt orthonormalisation) not specified.
  Using default value basis_acc =  0.1000000E-03.
  Species O                   : Using default innermost maximum threshold i_radial=  2 for radial functions.
  Species O                   : Basic radial grid will be enhanced according to radial_multiplier =   2, to contain    73 grid points.
 
  Finished reading input file 'control.in'. Consistency checks are next.
 
  Target number of points in a grid batch is not set. Defaulting to  100
  Method for grid partitioning is not set. Defaulting to parallel hash+maxmin partitioning.
  Batch size limit is not set. Defaulting to    200
  By default, will store active basis functions for each batch.
  If in need of memory, prune_basis_once .false. can be used to disable this option.
  communication_type for Hartree potential was not specified.
  Defaulting to calc_hartree .
  Pulay mixer: Number of initial linear mixing iterations not set.
  Defaulting to    0 iterations.
  Work space size for distributed Hartree potential not set.
  Defaulting to   0.200000E+03 MB.
  Algorithm-dependent basis array size parameters:
  | n_max_pulay                         :       10
  Geometry relaxation not requested: no relaxation will be performed.
  Handling of forces: Unphysical translation and rotation will be removed from forces.
  No accuracy limit for integral partition fn. given. Defaulting to 0.1000E-14.
  No threshold value for u(r) in integrations given. Defaulting to 0.1000E-05.
  No accuracy for occupation numbers given. Defaulting to 0.1000E-07.
  No threshold value for occupation numbers given. Defaulting to 0.0000E+00.
  No accuracy for fermi level given. Defaulting to 0.1000E-19.
  Maximum # of iterations to find E_F not set. Defaulting to  200.
  Will not use alltoall communication since running on < 1024 CPUs.
  Partitioning for Hartree potential was not defined. Using partition_type for integrals.
  | Reporting present value of keyword multip_moments_threshold  :       0.10000000E-09
  | This value may affect high angular momentum components of the Hartree potential in periodic systems.
  No q(lm)/r^(l+1) cutoff set for long-range Hartree potential.
  | Using default value of  0.100000E-09 .
  | Verify using the multipole_threshold keyword.
  Defaulting to new monopole extrapolation.
  Density update method: Loop over occupied states selected for charge density update.
------------------------------------------------------------


------------------------------------------------------------
          Reading geometry description geometry.in.
------------------------------------------------------------
  Input structure read successfully.
  The structure contains       15 atoms,  and a total of         50.000 electrons.

  Input geometry:
  | No unit cell requested.
  | Atomic structure:
  |       Atom                x [A]            y [A]            z [A]
  |    1: Species O             -4.053030         0.065001        -1.525160
  |    2: Species H             -4.566710         0.974813        -1.912820
  |    3: Species H             -3.067820         0.330172        -1.477310
  |    4: Species O             -4.581760        -0.256435         0.939478
  |    5: Species H             -4.349860         0.471090         1.504340
  |    6: Species H             -5.393870        -0.726611         1.228070
  |    7: Species O             -1.645860         0.870179        -1.502250
  |    8: Species H             -1.568890         1.501730        -0.721051
  |    9: Species H             -0.824432         0.282220        -1.377720
  |   10: Species O             -1.975360         2.858040         0.453140
  |   11: Species H             -1.223550         3.375850         0.786238
  |   12: Species H             -2.537520         2.567960         1.156120
  |   13: Species O             -5.628340         3.730740         1.385610
  |   14: Species H             -6.090650         4.418470         1.860350
  |   15: Species H             -5.158540         4.200260         0.615875
  |

  | The smallest distance between any two atoms is         0.94570141 AA.
  |
  | The first atom of this pair is atom number                     10 .
  | The second atom of this pair is atom number                    12 .

  Structure-dependent array size parameters: 
  | Maximum number of distinct radial functions  :       18
  | Maximum number of basis functions            :      345
  | Number of Kohn-Sham states (occupied + empty):       85
------------------------------------------------------------

------------------------------------------------------------
          Preparing all fixed parts of the calculation.
------------------------------------------------------------
  Determining machine precision:
    2.225073858507201E-308
  Setting up grids for atomic and cluster calculations.

  Creating wave function, potential, and density for free atoms.

  Species: H

  List of occupied orbitals and eigenvalues:
    n    l              occ      energy [Ha]    energy [eV]
    1    0           1.0000        -0.241408        -6.5691


  Species: O

  List of occupied orbitals and eigenvalues:
    n    l              occ      energy [Ha]    energy [eV]
    1    0           2.0000       -18.944147      -515.4965
    2    0           2.0000        -0.883529       -24.0421
    2    1           4.0000        -0.330176        -8.9845

  Creating fixed part of basis set: Ionic, confined, hydrogenic.
 
  H                    hydrogenic:
 
  List of hydrogenic basis orbitals: 
    n    l      effective z      eigenvalue [eV]  inner max. [A]     outer max. [A]     outer radius [A]   
    2    0         2.100000       -14.9965           0.193241           1.317192           5.372934
    2    1         3.500000       -41.6672           0.602363           0.602363           4.056010
    1    0         0.850000        -9.8292           0.624864           0.624864           5.372934
    2    1         3.700000       -46.5653           0.573616           0.573616           3.909951
    2    0         1.200000        -4.5995           0.334977           2.228160           5.505921
    3    2         7.000000       -74.0753           0.680692           0.680692           3.769152
 
 
  O                    hydrogenic:
 
  List of hydrogenic basis orbitals: 
    n    l      effective z      eigenvalue [eV]  inner max. [A]     outer max. [A]     outer radius [A]   
    2    1         1.800000       -11.0118           1.178546           1.178546           5.432516
    3    2         7.600000       -87.3182           0.624117           0.624117           3.541422
    3    0         6.400000       -61.9209           0.061166           1.081887           4.306510
    4    3        11.600000      -114.4238           0.731621           0.731621           3.584982
    3    1         6.200000       -58.1113           0.255677           1.030255           4.306510
    3    2         5.600000       -47.4081           0.847222           0.847222           4.413102
    5    4        17.600000      -168.5799           0.749730           0.749730           3.372413
    1    0         0.750000        -7.6499           0.705275           0.705275           5.366508
 

  Adding cutoff potential to free-atom effective potential.
  Creating atomic-like basis functions for current effective potential.

  Species H                   :

  List of atomic basis orbitals and eigenvalues:
    n    l      energy [Ha]    energy [eV]    outer radius [A]
    1    0        -0.241374        -6.5681       5.372934


  Species O                   :

  List of atomic basis orbitals and eigenvalues:
    n    l      energy [Ha]    energy [eV]    outer radius [A]
    1    0       -18.944147      -515.4965       1.415745
    2    0        -0.883529       -24.0421       5.048305
    2    1        -0.330173        -8.9845       5.301302

  Assembling full basis from fixed parts.
  | Species H :   atomic orbital   1 s accepted.
  | Species H :    hydro orbital   2 s accepted.
  | Species H :    hydro orbital   1 s accepted.
  | Species H :    hydro orbital   2 s accepted.
  | Species H :    hydro orbital   2 p accepted.
  | Species H :    hydro orbital   2 p accepted.
  | Species H :    hydro orbital   3 d accepted.
  | Species O :   atomic orbital   1 s accepted.
  | Species O :    hydro orbital   3 s accepted.
  | Species O :   atomic orbital   2 s accepted.
  | Species O :    hydro orbital   1 s accepted.
  | Species O :    hydro orbital   3 p accepted.
  | Species O :   atomic orbital   2 p accepted.
  | Species O :    hydro orbital   2 p accepted.
  | Species O :    hydro orbital   3 d accepted.
  | Species O :    hydro orbital   3 d accepted.
  | Species O :    hydro orbital   4 f accepted.
  | Species O :    hydro orbital   5 g accepted.
 
  Basis size parameters after reduction:
  | Total number of radial functions:       18
  | Total number of basis functions :      345
 
  Testing on-site integration grid accuracy.
  |  Species  Function  <phi|h_atom|phi> (log., in eV)  <phi|h_atom|phi> (rad., in eV)
           1        1                 -6.5683835025                 -6.5684759159
           1        2                 13.3711789951                 13.3708738703
           1        3                 23.6590910787                 23.6532055418
           1        4                 16.2963827186                 16.1870710655 ***
           1        5                 28.7627214838                 28.7627215090
           1        6                 59.5965249172                 59.5965950857
           1        7                 60.2220506392                 60.2220503827
           2        8               -515.4964576505               -515.4964530710
           2        9                 15.3030791347                 15.3030722972
           2       10                -21.7296094581                -21.7296135470
           2       11                 14.2969371730                 14.2969701621
           2       12                 21.0679693190                 21.0679697493
           2       13                 -2.3833606469                 -2.3833613176
           2       14                 13.7067136422                 13.7066766629
           2       15                 45.8013116808                 45.8013116965
           2       16                 52.2309815402                 52.2309831494
           2       17                 85.4120732416                 85.4120732763
           2       18                142.1019167745                142.1019167817
 * Note: Onsite integrals marked "***" above are less accurate than
 * onsite_accuracy_threshold =    0.03000 eV. Usually, this is harmless.
 * When in doubt, tighten the "radial" and/or "radial_multiplier" flags to check.

  Preparing densities etc. for the partition functions (integrals / Hartree potential).

  Preparations completed.
  max(cpu_time)          :      0.172 s.
  Wall clock time (cpu1) :      0.492 s.
------------------------------------------------------------

------------------------------------------------------------
          Begin self-consistency loop: Initialization.

          Date     :  20150727, Time     :  120426.207
------------------------------------------------------------

  Initializing index lists of integration centers etc. from given atomic structure:
  | Number of centers in hartree potential         :        15
  | Number of centers in hartree multipole         :        15
  | Number of centers in electron density summation:        15
  | Number of centers in basis integrals           :        15
  | Number of centers in integrals                 :        15
  Partitioning the integration grid into batches with parallel hashing+maxmin method.
  | Number of batches:     1973
  | Maximal batch size:     185
  | Minimal batch size:      51
  | Average batch size:      99.701
  | Standard deviation of batch sizes:      29.777

  Integration load balanced across     8 MPI tasks.
  Work distribution over tasks is as follows:
  Task     0 has      24566 integration points.
  Task     1 has      24585 integration points.
  Task     2 has      24613 integration points.
  Task     3 has      24582 integration points.
  Task     4 has      24566 integration points.
  Task     5 has      24652 integration points.
  Task     6 has      24612 integration points.
  Task     7 has      24534 integration points.
  Initializing partition tables, free-atom densities, potentials, etc. across the integration grid (initialize_grid_storage).
  | Net number of integration points:   196710
  | of which are non-zero points    :   196132
  Obtaining max. number of non-zero basis functions in each batch (get_n_compute_maxes).
  | Maximal number of non-zero basis functions:      341 in task     0
  | Maximal number of non-zero basis functions:      341 in task     1
  | Maximal number of non-zero basis functions:      341 in task     2
  | Maximal number of non-zero basis functions:      341 in task     3
  | Maximal number of non-zero basis functions:      341 in task     4
  | Maximal number of non-zero basis functions:      341 in task     5
  | Maximal number of non-zero basis functions:      341 in task     6
  | Maximal number of non-zero basis functions:      341 in task     7
  Integrating Hamiltonian matrix: batch-based integration.
  Time summed over all CPUs for integration: real work        6.809 s, elapsed        6.941 s
  Integrating overlap matrix.
  Time summed over all CPUs for integration: real work        3.635 s, elapsed        3.729 s

  Updating Kohn-Sham eigenvalues, eigenvectors, occupation numbers, and Fermi level.
  Solving generalized eigenproblem
  Updating Kohn-Sham eigenvalues and eigenfunctions.
  Transforming overlap matrix and checking for singularities.
  Overlap matrix is nonsingular:
  | Lowest eigenvalue:  0.296030E-03
  Solving real generalised eigenvalue problem by standard LAPACK (fast)
  Determining occupation numbers for Kohn-Sham eigenstates.
  | Chemical potential (Fermi level) in eV                 : -.45100971E+01
  | Error in electron count due to remaining E_F inaccuracy: 0.00000000E+00
  | Maximum occupation number of highest empty state:  0.00E+00

  Writing Kohn-Sham eigenvalues.

  State    Occupation    Eigenvalue [Ha]    Eigenvalue [eV]
      1       2.00000         -19.057216         -518.57323
      2       2.00000         -19.051954         -518.43005
      3       2.00000         -19.044521         -518.22779
      4       2.00000         -19.042518         -518.17327
      5       2.00000         -19.019703         -517.55246
      6       2.00000          -1.107947          -30.14877
      7       2.00000          -1.098594          -29.89426
      8       2.00000          -1.089113          -29.63629
      9       2.00000          -1.086426          -29.56317
     10       2.00000          -1.042032          -28.35513
     11       2.00000          -0.649549          -17.67513
     12       2.00000          -0.644421          -17.53559
     13       2.00000          -0.618275          -16.82411
     14       2.00000          -0.608915          -16.56943
     15       2.00000          -0.590565          -16.07008
     16       2.00000          -0.522346          -14.21375
     17       2.00000          -0.505932          -13.76712
     18       2.00000          -0.501681          -13.65143
     19       2.00000          -0.498802          -13.57310
     20       2.00000          -0.469980          -12.78880
     21       2.00000          -0.443038          -12.05567
     22       2.00000          -0.439661          -11.96378
     23       2.00000          -0.430674          -11.71923
     24       2.00000          -0.430170          -11.70551
     25       2.00000          -0.402575          -10.95462
     26       0.00000          -0.099089           -2.69635
     27       0.00000          -0.068402           -1.86132
     28       0.00000          -0.064559           -1.75675
     29       0.00000          -0.057896           -1.57542
     30       0.00000          -0.041764           -1.13645
     31       0.00000          -0.012184           -0.33154
     32       0.00000          -0.003393           -0.09233
     33       0.00000           0.037389            1.01741
     34       0.00000           0.040629            1.10558
     35       0.00000           0.049768            1.35426
     36       0.00000           0.068614            1.86709
     37       0.00000           0.073800            2.00819
     38       0.00000           0.084380            2.29609
     39       0.00000           0.095776            2.60620
     40       0.00000           0.102641            2.79301
     41       0.00000           0.107955            2.93761
     42       0.00000           0.109820            2.98836
     43       0.00000           0.113296            3.08294
     44       0.00000           0.122491            3.33315
     45       0.00000           0.132560            3.60713
     46       0.00000           0.139802            3.80420
     47       0.00000           0.146820            3.99517
     48       0.00000           0.147841            4.02295
     49       0.00000           0.165930            4.51519
     50       0.00000           0.183386            4.99020
     51       0.00000           0.199449            5.42728
     52       0.00000           0.210240            5.72091
     53       0.00000           0.221421            6.02517
     54       0.00000           0.236830            6.44446
     55       0.00000           0.237483            6.46225
     56       0.00000           0.262853            7.15260
     57       0.00000           0.273145            7.43265
     58       0.00000           0.284916            7.75295
     59       0.00000           0.306420            8.33810
     60       0.00000           0.330771            9.00075
     61       0.00000           0.338695            9.21636
     62       0.00000           0.354704            9.65199
     63       0.00000           0.362734            9.87050
     64       0.00000           0.374251           10.18390
     65       0.00000           0.387232           10.53713
     66       0.00000           0.394460           10.73380
     67       0.00000           0.405793           11.04219
     68       0.00000           0.413637           11.25563
     69       0.00000           0.415742           11.31291
     70       0.00000           0.431407           11.73918
     71       0.00000           0.445010           12.10935
     72       0.00000           0.456962           12.43457
     73       0.00000           0.474929           12.92347
     74       0.00000           0.482342           13.12520
     75       0.00000           0.500658           13.62360
     76       0.00000           0.515103           14.01665
     77       0.00000           0.526452           14.32548
     78       0.00000           0.547945           14.91035
     79       0.00000           0.556675           15.14791
     80       0.00000           0.585493           15.93208
     81       0.00000           0.599310           16.30805
     82       0.00000           0.641345           17.45189
     83       0.00000           0.681103           18.53376
     84       0.00000           0.701419           19.08657
     85       0.00000           0.709339           19.30209

  Highest occupied state (VBM) at    -10.95461720 eV
  | Occupation number:      2.00000000

  Lowest unoccupied state (CBM) at    -2.69635092 eV
  | Occupation number:      0.00000000

  Overall HOMO-LUMO gap:      8.25826628 eV.
  Calculating total energy contributions from superposition of free atom densities.

  Total energy components:
  | Sum of eigenvalues            :        -216.79321487 Ha       -5899.24352686 eV
  | XC energy correction          :         -45.53775078 Ha       -1239.14524577 eV
  | XC potential correction       :          58.18142634 Ha        1583.19716299 eV
  | Free-atom electrostatic energy:        -178.93273034 Ha       -4869.00732504 eV
  | Hartree energy correction     :           0.00000000 Ha           0.00000000 eV
  | van der Waals energy corr.    :           0.00000000 Ha           0.00000000 eV
  | Entropy correction            :           0.00000000 Ha           0.00000000 eV
  | ---------------------------
  | Total energy                  :        -383.08226965 Ha      -10424.19893467 eV
  | Total energy, T -> 0          :        -383.08226965 Ha      -10424.19893467 eV  <-- do not rely on this value for anything but (periodic) metals
  | Electronic free energy        :        -383.08226965 Ha      -10424.19893467 eV

  Derived energy quantities:
  | Kinetic energy                :         379.08785222 Ha       10315.50530611 eV
  | Electrostatic energy          :        -716.63237110 Ha      -19500.55899502 eV
  | Energy correction for multipole
  | error in Hartree potential    :           0.00000000 Ha           0.00000000 eV
  | Sum of eigenvalues per atom                           :        -393.28290179 eV
  | Total energy (T->0) per atom                          :        -694.94659564 eV  <-- do not rely on this value for anything but (periodic) metals
  | Electronic free energy per atom                       :        -694.94659564 eV
  Initialize hartree_potential_storage
  Max. number of atoms included in rho_multipole:           15

  End scf initialization - timings             :  max(cpu_time)    wall_clock(cpu1)
  | Time for scf. initialization               :        1.893 s           1.893 s
  | Boundary condition initialization          :        0.000 s           0.000 s
  | Integration                                :        1.338 s           1.336 s
  | Solution of K.-S. eqns.                    :        0.195 s           0.196 s
  | Grid partitioning                          :        0.147 s           0.146 s
  | Preloading free-atom quantities on grid    :        0.013 s           0.013 s
  | Free-atom superposition energy             :        0.065 s           0.065 s
  | Total energy evaluation                    :        0.001 s           0.001 s
------------------------------------------------------------

------------------------------------------------------------
          Begin self-consistency iteration #    1

  Date     :  20150727, Time     :  120428.100
------------------------------------------------------------
  Evaluating new KS density.
  Integration grid: deviation in total charge (<rho> - N_e) =  -7.105427E-15
  Pulay mixing of updated and previous charge densities.

  Evaluating partitioned Hartree potential by multipole expansion.
  | Analytical far-field extrapolation by fixed multipoles:
  | Hartree multipole sum: apparent total charge =  -0.164050E-05
  Summing up the Hartree potential.
  Time summed over all CPUs for potential: real work        2.565 s, elapsed        2.576 s
  | RMS charge density error from multipole expansion :   0.162704E-02

  Integrating Hamiltonian matrix: batch-based integration.
  Time summed over all CPUs for integration: real work        6.789 s, elapsed        6.939 s

  Updating Kohn-Sham eigenvalues, eigenvectors, occupation numbers, and Fermi level.
  Solving generalized eigenproblem
  Updating Kohn-Sham eigenvalues and eigenfunctions.
  Solving real generalised eigenvalue problem by standard LAPACK (fast)
  Determining occupation numbers for Kohn-Sham eigenstates.
  | Chemical potential (Fermi level) in eV                 : -.40654183E+01
  | Error in electron count due to remaining E_F inaccuracy: 0.00000000E+00
  | Maximum occupation number of highest empty state:  0.00E+00

  Writing Kohn-Sham eigenvalues.

  State    Occupation    Eigenvalue [Ha]    Eigenvalue [eV]
      1       2.00000         -18.985597         -516.62438
      2       2.00000         -18.971638         -516.24453
      3       2.00000         -18.968412         -516.15674
      4       2.00000         -18.965258         -516.07092
      5       2.00000         -18.929365         -515.09423
      6       2.00000          -1.074687          -29.24372
      7       2.00000          -1.053570          -28.66911
      8       2.00000          -1.052213          -28.63216
      9       2.00000          -1.049710          -28.56408
     10       2.00000          -0.991560          -26.98173
     11       2.00000          -0.621294          -16.90628
     12       2.00000          -0.605516          -16.47694
     13       2.00000          -0.586997          -15.97301
     14       2.00000          -0.577944          -15.72666
     15       2.00000          -0.550156          -14.97050
     16       2.00000          -0.483908          -13.16781
     17       2.00000          -0.468141          -12.73876
     18       2.00000          -0.464573          -12.64168
     19       2.00000          -0.454499          -12.36754
     20       2.00000          -0.424268          -11.54492
     21       2.00000          -0.407567          -11.09046
     22       2.00000          -0.393493          -10.70749
     23       2.00000          -0.391362          -10.64949
     24       2.00000          -0.387720          -10.55039
     25       2.00000          -0.349735           -9.51678
     26       0.00000          -0.089888           -2.44599
     27       0.00000          -0.059292           -1.61343
     28       0.00000          -0.053882           -1.46620
     29       0.00000          -0.048333           -1.31520
     30       0.00000          -0.033660           -0.91594
     31       0.00000          -0.004479           -0.12188
     32       0.00000           0.003202            0.08713
     33       0.00000           0.047885            1.30302
     34       0.00000           0.049431            1.34508
     35       0.00000           0.060074            1.63469
     36       0.00000           0.078755            2.14303
     37       0.00000           0.082544            2.24614
     38       0.00000           0.094311            2.56634
     39       0.00000           0.104075            2.83202
     40       0.00000           0.112588            3.06369
     41       0.00000           0.114679            3.12059
     42       0.00000           0.119651            3.25586
     43       0.00000           0.123375            3.35719
     44       0.00000           0.133208            3.62477
     45       0.00000           0.140897            3.83401
     46       0.00000           0.149147            4.05850
     47       0.00000           0.156116            4.24814
     48       0.00000           0.168053            4.57297
     49       0.00000           0.175100            4.76472
     50       0.00000           0.193224            5.25789
     51       0.00000           0.213762            5.81676
     52       0.00000           0.220207            5.99213
     53       0.00000           0.231139            6.28962
     54       0.00000           0.247526            6.73553
     55       0.00000           0.248440            6.76041
     56       0.00000           0.273533            7.44320
     57       0.00000           0.284740            7.74816
     58       0.00000           0.294475            8.01308
     59       0.00000           0.316561            8.61407
     60       0.00000           0.338881            9.22142
     61       0.00000           0.353724            9.62532
     62       0.00000           0.361844            9.84628
     63       0.00000           0.371040           10.09652
     64       0.00000           0.386133           10.50721
     65       0.00000           0.398558           10.84533
     66       0.00000           0.405146           11.02458
     67       0.00000           0.417036           11.34813
     68       0.00000           0.422989           11.51012
     69       0.00000           0.424759           11.55827
     70       0.00000           0.441443           12.01228
     71       0.00000           0.456114           12.41148
     72       0.00000           0.466237           12.68696
     73       0.00000           0.488187           13.28425
     74       0.00000           0.492882           13.41200
     75       0.00000           0.513255           13.96637
     76       0.00000           0.526452           14.32548
     77       0.00000           0.538257           14.64673
     78       0.00000           0.560734           15.25836
     79       0.00000           0.571184           15.54272
     80       0.00000           0.600149           16.33088
     81       0.00000           0.612599           16.66967
     82       0.00000           0.655533           17.83797
     83       0.00000           0.696224           18.94522
     84       0.00000           0.717019           19.51108
     85       0.00000           0.723120           19.67709

  Highest occupied state (VBM) at     -9.51677564 eV
  | Occupation number:      2.00000000

  Lowest unoccupied state (CBM) at    -2.44598967 eV
  | Occupation number:      0.00000000

  Overall HOMO-LUMO gap:      7.07078597 eV.

  Total energy components:
  | Sum of eigenvalues            :        -214.41836692 Ha       -5834.62062608 eV
  | XC energy correction          :         -45.78474994 Ha       -1245.86643480 eV
  | XC potential correction       :          58.50492951 Ha        1592.00013205 eV
  | Free-atom electrostatic energy:        -178.93273034 Ha       -4869.00732504 eV
  | Hartree energy correction     :          -2.29778536 Ha         -62.52592083 eV
  | van der Waals energy corr.    :           0.00000000 Ha           0.00000000 eV
  | Entropy correction            :           0.00000000 Ha           0.00000000 eV
  | ---------------------------
  | Total energy                  :        -382.92870305 Ha      -10420.02017469 eV
  | Total energy, T -> 0          :        -382.92870305 Ha      -10420.02017469 eV  <-- do not rely on this value for anything but (periodic) metals
  | Electronic free energy        :        -382.92870305 Ha      -10420.02017469 eV

  Derived energy quantities:
  | Kinetic energy                :         380.55740824 Ha       10355.49395999 eV
  | Electrostatic energy          :        -717.70136135 Ha      -19529.64769989 eV
  | Energy correction for multipole
  | error in Hartree potential    :          -0.00007725 Ha          -0.00210210 eV
  | Sum of eigenvalues per atom                           :        -388.97470841 eV
  | Total energy (T->0) per atom                          :        -694.66801165 eV  <-- do not rely on this value for anything but (periodic) metals
  | Electronic free energy per atom                       :        -694.66801165 eV

  Self-consistency convergence accuracy:
  | Change of charge density      : 0.6748E+00
  | Change of sum of eigenvalues  : 0.6462E+02 eV
  | Change of total energy        : 0.4179E+01 eV

  End self-consistency iteration #     1       :  max(cpu_time)    wall_clock(cpu1)
  | Time for this iteration                    :        1.863 s           1.863 s
  | Charge density update                      :        0.608 s           0.608 s
  | Density mixing                             :        0.004 s           0.004 s
  | Hartree multipole update                   :        0.005 s           0.004 s
  | Hartree multipole summation                :        0.322 s           0.323 s
  | Integration                                :        0.869 s           0.869 s
  | Solution of K.-S. eqns.                    :        0.054 s           0.054 s
  | Total energy evaluation                    :        0.000 s           0.000 s
------------------------------------------------------------

------------------------------------------------------------
          Begin self-consistency iteration #    2

  Date     :  20150727, Time     :  120429.963
------------------------------------------------------------
  Evaluating new KS density.
  Integration grid: deviation in total charge (<rho> - N_e) =   3.552714E-14
  Pulay mixing of updated and previous charge densities.

  Evaluating partitioned Hartree potential by multipole expansion.
  | Analytical far-field extrapolation by fixed multipoles:
  | Hartree multipole sum: apparent total charge =  -0.432794E-05
  Summing up the Hartree potential.
  Time summed over all CPUs for potential: real work        2.565 s, elapsed        2.576 s
  | RMS charge density error from multipole expansion :   0.646424E-02

  Integrating Hamiltonian matrix: batch-based integration.
  Time summed over all CPUs for integration: real work        6.783 s, elapsed        6.902 s

  Updating Kohn-Sham eigenvalues, eigenvectors, occupation numbers, and Fermi level.
  Solving generalized eigenproblem
  Updating Kohn-Sham eigenvalues and eigenfunctions.
  Solving real generalised eigenvalue problem by standard LAPACK (fast)
  Determining occupation numbers for Kohn-Sham eigenstates.
  | Chemical potential (Fermi level) in eV                 : -.28043345E+01
  | Error in electron count due to remaining E_F inaccuracy: 0.00000000E+00
  | Maximum occupation number of highest empty state:  0.00E+00

  Highest occupied state (VBM) at     -6.13111737 eV
  | Occupation number:      2.00000000

  Lowest unoccupied state (CBM) at    -1.93622891 eV
  | Occupation number:      0.00000000

  Overall HOMO-LUMO gap:      4.19488846 eV.

  Total energy components:
  | Sum of eigenvalues            :        -208.88994917 Ha       -5684.18472492 eV
  | XC energy correction          :         -46.38472094 Ha       -1262.19247643 eV
  | XC potential correction       :          59.29015060 Ha        1613.36708506 eV
  | Free-atom electrostatic energy:        -178.93273034 Ha       -4869.00732504 eV
  | Hartree energy correction     :          -7.83619008 Ha        -213.23358118 eV
  | van der Waals energy corr.    :           0.00000000 Ha           0.00000000 eV
  | Entropy correction            :           0.00000000 Ha           0.00000000 eV
  | ---------------------------
  | Total energy                  :        -382.75343993 Ha      -10415.25102251 eV
  | Total energy, T -> 0          :        -382.75343993 Ha      -10415.25102251 eV  <-- do not rely on this value for anything but (periodic) metals
  | Electronic free energy        :        -382.75343993 Ha      -10415.25102251 eV

  Derived energy quantities:
  | Kinetic energy                :         383.45846562 Ha       10434.43574774 eV
  | Electrostatic energy          :        -719.82718460 Ha      -19587.49429381 eV
  | Energy correction for multipole
  | error in Hartree potential    :          -0.00104562 Ha          -0.02845267 eV
  | Sum of eigenvalues per atom                           :        -378.94564833 eV
  | Total energy (T->0) per atom                          :        -694.35006817 eV  <-- do not rely on this value for anything but (periodic) metals
  | Electronic free energy per atom                       :        -694.35006817 eV

  Self-consistency convergence accuracy:
  | Change of charge density      : 0.5094E+00
  | Change of sum of eigenvalues  : 0.1504E+03 eV
  | Change of total energy        : 0.4769E+01 eV

  End self-consistency iteration #     2       :  max(cpu_time)    wall_clock(cpu1)
  | Time for this iteration                    :        1.861 s           1.860 s
  | Charge density update                      :        0.609 s           0.608 s
  | Density mixing                             :        0.005 s           0.006 s
  | Hartree multipole update                   :        0.005 s           0.005 s
  | Hartree multipole summation                :        0.323 s           0.322 s
  | Integration                                :        0.864 s           0.865 s
  | Solution of K.-S. eqns.                    :        0.054 s           0.054 s
  | Total energy evaluation                    :        0.001 s           0.000 s
------------------------------------------------------------

------------------------------------------------------------
          Begin self-consistency iteration #    3

  Date     :  20150727, Time     :  120431.823
------------------------------------------------------------
  Evaluating new KS density.
  Integration grid: deviation in total charge (<rho> - N_e) =   1.421085E-14
  Pulay mixing of updated and previous charge densities.

  Evaluating partitioned Hartree potential by multipole expansion.
  | Analytical far-field extrapolation by fixed multipoles:
  | Hartree multipole sum: apparent total charge =  -0.285945E-05
  Summing up the Hartree potential.
  Time summed over all CPUs for potential: real work        2.564 s, elapsed        2.576 s
  | RMS charge density error from multipole expansion :   0.132086E-01

  Integrating Hamiltonian matrix: batch-based integration.
  Time summed over all CPUs for integration: real work        6.790 s, elapsed        6.890 s

  Updating Kohn-Sham eigenvalues, eigenvectors, occupation numbers, and Fermi level.
  Solving generalized eigenproblem
  Updating Kohn-Sham eigenvalues and eigenfunctions.
  Solving real generalised eigenvalue problem by standard LAPACK (fast)
  Determining occupation numbers for Kohn-Sham eigenstates.
  | Chemical potential (Fermi level) in eV                 : -.24982461E+01
  | Error in electron count due to remaining E_F inaccuracy: 0.00000000E+00
  | Maximum occupation number of highest empty state:  0.00E+00

  Highest occupied state (VBM) at     -6.01136080 eV
  | Occupation number:      2.00000000

  Lowest unoccupied state (CBM) at    -1.87157130 eV
  | Occupation number:      0.00000000

  Overall HOMO-LUMO gap:      4.13978950 eV.

  Total energy components:
  | Sum of eigenvalues            :        -209.20525686 Ha       -5692.76468386 eV
  | XC energy correction          :         -46.34581574 Ha       -1261.13381197 eV
  | XC potential correction       :          59.23444331 Ha        1611.85121268 eV
  | Free-atom electrostatic energy:        -178.93273034 Ha       -4869.00732504 eV
  | Hartree energy correction     :          -7.50023184 Ha        -204.09169234 eV
  | van der Waals energy corr.    :           0.00000000 Ha           0.00000000 eV
  | Entropy correction            :           0.00000000 Ha           0.00000000 eV
  | ---------------------------
  | Total energy                  :        -382.74959146 Ha      -10415.14630053 eV
  | Total energy, T -> 0          :        -382.74959146 Ha      -10415.14630053 eV  <-- do not rely on this value for anything but (periodic) metals
  | Electronic free energy        :        -382.74959146 Ha      -10415.14630053 eV

  Derived energy quantities:
  | Kinetic energy                :         381.30710007 Ha       10375.89411269 eV
  | Electrostatic energy          :        -717.71087580 Ha      -19529.90660124 eV
  | Energy correction for multipole
  | error in Hartree potential    :          -0.00544580 Ha          -0.14818777 eV
  | Sum of eigenvalues per atom                           :        -379.51764559 eV
  | Total energy (T->0) per atom                          :        -694.34308670 eV  <-- do not rely on this value for anything but (periodic) metals
  | Electronic free energy per atom                       :        -694.34308670 eV

  Self-consistency convergence accuracy:
  | Change of charge density      : 0.2582E+00
  | Change of sum of eigenvalues  : -.8580E+01 eV
  | Change of total energy        : 0.1047E+00 eV

  End self-consistency iteration #     3       :  max(cpu_time)    wall_clock(cpu1)
  | Time for this iteration                    :        1.854 s           1.854 s
  | Charge density update                      :        0.602 s           0.602 s
  | Density mixing                             :        0.007 s           0.007 s
  | Hartree multipole update                   :        0.004 s           0.005 s
  | Hartree multipole summation                :        0.323 s           0.322 s
  | Integration                                :        0.863 s           0.862 s
  | Solution of K.-S. eqns.                    :        0.054 s           0.054 s
  | Total energy evaluation                    :        0.000 s           0.001 s
------------------------------------------------------------

------------------------------------------------------------
          Begin self-consistency iteration #    4

  Date     :  20150727, Time     :  120433.677
------------------------------------------------------------
  Evaluating new KS density.
  Integration grid: deviation in total charge (<rho> - N_e) =  -7.105427E-15
  Pulay mixing of updated and previous charge densities.

  Evaluating partitioned Hartree potential by multipole expansion.
  | Analytical far-field extrapolation by fixed multipoles:
  | Hartree multipole sum: apparent total charge =  -0.324541E-05
  Summing up the Hartree potential.
  Time summed over all CPUs for potential: real work        2.564 s, elapsed        2.576 s
  | RMS charge density error from multipole expansion :   0.170187E-01

  Integrating Hamiltonian matrix: batch-based integration.
  Time summed over all CPUs for integration: real work        6.787 s, elapsed        6.894 s

  Updating Kohn-Sham eigenvalues, eigenvectors, occupation numbers, and Fermi level.
  Solving generalized eigenproblem
  Updating Kohn-Sham eigenvalues and eigenfunctions.
  Solving real generalised eigenvalue problem by standard LAPACK (fast)
  Determining occupation numbers for Kohn-Sham eigenstates.
  | Chemical potential (Fermi level) in eV                 : -.19635716E+01
  | Error in electron count due to remaining E_F inaccuracy: 0.00000000E+00
  | Maximum occupation number of highest empty state:  0.00E+00

  Highest occupied state (VBM) at     -4.78727314 eV
  | Occupation number:      2.00000000

  Lowest unoccupied state (CBM) at    -1.72603883 eV
  | Occupation number:      0.00000000

  Overall HOMO-LUMO gap:      3.06123431 eV.

  Total energy components:
  | Sum of eigenvalues            :        -207.44863928 Ha       -5644.96468753 eV
  | XC energy correction          :         -46.55502837 Ha       -1266.82677729 eV
  | XC potential correction       :          59.50763819 Ha        1619.28522358 eV
  | Free-atom electrostatic energy:        -178.93273034 Ha       -4869.00732504 eV
  | Hartree energy correction     :          -9.30664297 Ha        -253.24664018 eV
  | van der Waals energy corr.    :           0.00000000 Ha           0.00000000 eV
  | Entropy correction            :           0.00000000 Ha           0.00000000 eV
  | ---------------------------
  | Total energy                  :        -382.73540277 Ha      -10414.76020646 eV
  | Total energy, T -> 0          :        -382.73540277 Ha      -10414.76020646 eV  <-- do not rely on this value for anything but (periodic) metals
  | Electronic free energy        :        -382.73540277 Ha      -10414.76020646 eV

  Derived energy quantities:
  | Kinetic energy                :         381.55989379 Ha       10382.77297962 eV
  | Electrostatic energy          :        -717.74026819 Ha      -19530.70640878 eV
  | Energy correction for multipole
  | error in Hartree potential    :          -0.00725911 Ha          -0.19753041 eV
  | Sum of eigenvalues per atom                           :        -376.33097917 eV
  | Total energy (T->0) per atom                          :        -694.31734710 eV  <-- do not rely on this value for anything but (periodic) metals
  | Electronic free energy per atom                       :        -694.31734710 eV

  Self-consistency convergence accuracy:
  | Change of charge density      : 0.1484E+00
  | Change of sum of eigenvalues  : 0.4780E+02 eV
  | Change of total energy        : 0.3861E+00 eV

  End self-consistency iteration #     4       :  max(cpu_time)    wall_clock(cpu1)
  | Time for this iteration                    :        1.856 s           1.855 s
  | Charge density update                      :        0.602 s           0.602 s
  | Density mixing                             :        0.008 s           0.008 s
  | Hartree multipole update                   :        0.005 s           0.005 s
  | Hartree multipole summation                :        0.323 s           0.323 s
  | Integration                                :        0.863 s           0.863 s
  | Solution of K.-S. eqns.                    :        0.054 s           0.054 s
  | Total energy evaluation                    :        0.000 s           0.000 s
------------------------------------------------------------

------------------------------------------------------------
          Begin self-consistency iteration #    5

  Date     :  20150727, Time     :  120435.532
------------------------------------------------------------
  Evaluating new KS density.
  Integration grid: deviation in total charge (<rho> - N_e) =   7.105427E-15
  Pulay mixing of updated and previous charge densities.

  Evaluating partitioned Hartree potential by multipole expansion.
  | Analytical far-field extrapolation by fixed multipoles:
  | Hartree multipole sum: apparent total charge =  -0.312825E-05
  Summing up the Hartree potential.
  Time summed over all CPUs for potential: real work        2.564 s, elapsed        2.576 s
  | RMS charge density error from multipole expansion :   0.176119E-01

  Integrating Hamiltonian matrix: batch-based integration.
  Time summed over all CPUs for integration: real work        6.786 s, elapsed        6.918 s

  Updating Kohn-Sham eigenvalues, eigenvectors, occupation numbers, and Fermi level.
  Solving generalized eigenproblem
  Updating Kohn-Sham eigenvalues and eigenfunctions.
  Solving real generalised eigenvalue problem by standard LAPACK (fast)
  Determining occupation numbers for Kohn-Sham eigenstates.
  | Chemical potential (Fermi level) in eV                 : -.19266382E+01
  | Error in electron count due to remaining E_F inaccuracy: 0.00000000E+00
  | Maximum occupation number of highest empty state:  0.00E+00

  Highest occupied state (VBM) at     -4.55777228 eV
  | Occupation number:      2.00000000

  Lowest unoccupied state (CBM) at    -1.72180679 eV
  | Occupation number:      0.00000000

  Overall HOMO-LUMO gap:      2.83596549 eV.

  Total energy components:
  | Sum of eigenvalues            :        -207.31268474 Ha       -5641.26517609 eV
  | XC energy correction          :         -46.57396935 Ha       -1267.34218763 eV
  | XC potential correction       :          59.53201717 Ha        1619.94860941 eV
  | Free-atom electrostatic energy:        -178.93273034 Ha       -4869.00732504 eV
  | Hartree energy correction     :          -9.44778769 Ha        -257.08738345 eV
  | van der Waals energy corr.    :           0.00000000 Ha           0.00000000 eV
  | Entropy correction            :           0.00000000 Ha           0.00000000 eV
  | ---------------------------
  | Total energy                  :        -382.73515494 Ha      -10414.75346279 eV
  | Total energy, T -> 0          :        -382.73515494 Ha      -10414.75346279 eV  <-- do not rely on this value for anything but (periodic) metals
  | Electronic free energy        :        -382.73515494 Ha      -10414.75346279 eV

  Derived energy quantities:
  | Kinetic energy                :         381.60772584 Ha       10384.07455596 eV
  | Electrostatic energy          :        -717.76891143 Ha      -19531.48583112 eV
  | Energy correction for multipole
  | error in Hartree potential    :          -0.00746304 Ha          -0.20307966 eV
  | Sum of eigenvalues per atom                           :        -376.08434507 eV
  | Total energy (T->0) per atom                          :        -694.31689752 eV  <-- do not rely on this value for anything but (periodic) metals
  | Electronic free energy per atom                       :        -694.31689752 eV

  Self-consistency convergence accuracy:
  | Change of charge density      : 0.3113E-01
  | Change of sum of eigenvalues  : 0.3700E+01 eV
  | Change of total energy        : 0.6744E-02 eV

  End self-consistency iteration #     5       :  max(cpu_time)    wall_clock(cpu1)
  | Time for this iteration                    :        1.863 s           1.863 s
  | Charge density update                      :        0.605 s           0.606 s
  | Density mixing                             :        0.010 s           0.009 s
  | Hartree multipole update                   :        0.004 s           0.005 s
  | Hartree multipole summation                :        0.323 s           0.323 s
  | Integration                                :        0.866 s           0.866 s
  | Solution of K.-S. eqns.                    :        0.053 s           0.054 s
  | Total energy evaluation                    :        0.000 s           0.000 s
------------------------------------------------------------

------------------------------------------------------------
          Begin self-consistency iteration #    6

  Date     :  20150727, Time     :  120437.396
------------------------------------------------------------
  Evaluating new KS density.
  Integration grid: deviation in total charge (<rho> - N_e) =   2.842171E-14
  Pulay mixing of updated and previous charge densities.

  Evaluating partitioned Hartree potential by multipole expansion.
  | Analytical far-field extrapolation by fixed multipoles:
  | Hartree multipole sum: apparent total charge =  -0.308980E-05
  Summing up the Hartree potential.
  Time summed over all CPUs for potential: real work        2.563 s, elapsed        2.575 s
  | RMS charge density error from multipole expansion :   0.179714E-01

  Integrating Hamiltonian matrix: batch-based integration.
  Time summed over all CPUs for integration: real work        6.787 s, elapsed        6.930 s

  Updating Kohn-Sham eigenvalues, eigenvectors, occupation numbers, and Fermi level.
  Solving generalized eigenproblem
  Updating Kohn-Sham eigenvalues and eigenfunctions.
  Solving real generalised eigenvalue problem by standard LAPACK (fast)
  Determining occupation numbers for Kohn-Sham eigenstates.
  | Chemical potential (Fermi level) in eV                 : -.18963357E+01
  | Error in electron count due to remaining E_F inaccuracy: 0.00000000E+00
  | Maximum occupation number of highest empty state:  0.00E+00

  Highest occupied state (VBM) at     -4.48687131 eV
  | Occupation number:      2.00000000

  Lowest unoccupied state (CBM) at    -1.71243591 eV
  | Occupation number:      0.00000000

  Overall HOMO-LUMO gap:      2.77443540 eV.

  Total energy components:
  | Sum of eigenvalues            :        -207.21287764 Ha       -5638.54928678 eV
  | XC energy correction          :         -46.58716999 Ha       -1267.70139524 eV
  | XC potential correction       :          59.54912165 Ha        1620.41404595 eV
  | Free-atom electrostatic energy:        -178.93273034 Ha       -4869.00732504 eV
  | Hartree energy correction     :          -9.55163207 Ha        -259.91313283 eV
  | van der Waals energy corr.    :           0.00000000 Ha           0.00000000 eV
  | Entropy correction            :           0.00000000 Ha           0.00000000 eV
  | ---------------------------
  | Total energy                  :        -382.73528838 Ha      -10414.75709394 eV
  | Total energy, T -> 0          :        -382.73528838 Ha      -10414.75709394 eV  <-- do not rely on this value for anything but (periodic) metals
  | Electronic free energy        :        -382.73528838 Ha      -10414.75709394 eV

  Derived energy quantities:
  | Kinetic energy                :         381.62585846 Ha       10384.56796964 eV
  | Electrostatic energy          :        -717.77397686 Ha      -19531.62366833 eV
  | Energy correction for multipole
  | error in Hartree potential    :          -0.00759962 Ha          -0.20679614 eV
  | Sum of eigenvalues per atom                           :        -375.90328579 eV
  | Total energy (T->0) per atom                          :        -694.31713960 eV  <-- do not rely on this value for anything but (periodic) metals
  | Electronic free energy per atom                       :        -694.31713960 eV

  Self-consistency convergence accuracy:
  | Change of charge density      : 0.9694E-02
  | Change of sum of eigenvalues  : 0.2716E+01 eV
  | Change of total energy        : -.3631E-02 eV

  End self-consistency iteration #     6       :  max(cpu_time)    wall_clock(cpu1)
  | Time for this iteration                    :        1.865 s           1.864 s
  | Charge density update                      :        0.605 s           0.604 s
  | Density mixing                             :        0.011 s           0.011 s
  | Hartree multipole update                   :        0.004 s           0.005 s
  | Hartree multipole summation                :        0.323 s           0.322 s
  | Integration                                :        0.868 s           0.868 s
  | Solution of K.-S. eqns.                    :        0.054 s           0.054 s
  | Total energy evaluation                    :        0.000 s           0.000 s
------------------------------------------------------------

------------------------------------------------------------
          Begin self-consistency iteration #    7

  Date     :  20150727, Time     :  120439.261
------------------------------------------------------------
  Evaluating new KS density.
  Integration grid: deviation in total charge (<rho> - N_e) =   7.105427E-15
  Pulay mixing of updated and previous charge densities.

  Evaluating partitioned Hartree potential by multipole expansion.
  | Analytical far-field extrapolation by fixed multipoles:
  | Hartree multipole sum: apparent total charge =  -0.282535E-05
  Summing up the Hartree potential.
  Time summed over all CPUs for potential: real work        2.563 s, elapsed        2.575 s
  | RMS charge density error from multipole expansion :   0.179058E-01

  Integrating Hamiltonian matrix: batch-based integration.
  Time summed over all CPUs for integration: real work        6.775 s, elapsed        6.918 s

  Updating Kohn-Sham eigenvalues, eigenvectors, occupation numbers, and Fermi level.
  Solving generalized eigenproblem
  Updating Kohn-Sham eigenvalues and eigenfunctions.
  Solving real generalised eigenvalue problem by standard LAPACK (fast)
  Determining occupation numbers for Kohn-Sham eigenstates.
  | Chemical potential (Fermi level) in eV                 : -.19576318E+01
  | Error in electron count due to remaining E_F inaccuracy: 0.00000000E+00
  | Maximum occupation number of highest empty state:  0.00E+00

  Highest occupied state (VBM) at     -4.65372093 eV
  | Occupation number:      2.00000000

  Lowest unoccupied state (CBM) at    -1.72854629 eV
  | Occupation number:      0.00000000

  Overall HOMO-LUMO gap:      2.92517464 eV.

  Total energy components:
  | Sum of eigenvalues            :        -207.38463285 Ha       -5643.22298397 eV
  | XC energy correction          :         -46.56860558 Ha       -1267.19623204 eV
  | XC potential correction       :          59.52431928 Ha        1619.73913912 eV
  | Free-atom electrostatic energy:        -178.93273034 Ha       -4869.00732504 eV
  | Hartree energy correction     :          -9.37347749 Ha        -255.06530002 eV
  | van der Waals energy corr.    :           0.00000000 Ha           0.00000000 eV
  | Entropy correction            :           0.00000000 Ha           0.00000000 eV
  | ---------------------------
  | Total energy                  :        -382.73512698 Ha      -10414.75270195 eV
  | Total energy, T -> 0          :        -382.73512698 Ha      -10414.75270195 eV  <-- do not rely on this value for anything but (periodic) metals
  | Electronic free energy        :        -382.73512698 Ha      -10414.75270195 eV

  Derived energy quantities:
  | Kinetic energy                :         381.67457371 Ha       10385.89357917 eV
  | Electrostatic energy          :        -717.84109512 Ha      -19533.45004908 eV
  | Energy correction for multipole
  | error in Hartree potential    :          -0.00739675 Ha          -0.20127586 eV
  | Sum of eigenvalues per atom                           :        -376.21486560 eV
  | Total energy (T->0) per atom                          :        -694.31684680 eV  <-- do not rely on this value for anything but (periodic) metals
  | Electronic free energy per atom                       :        -694.31684680 eV

  Self-consistency convergence accuracy:
  | Change of charge density      : 0.1222E-01
  | Change of sum of eigenvalues  : -.4674E+01 eV
  | Change of total energy        : 0.4392E-02 eV

  End self-consistency iteration #     7       :  max(cpu_time)    wall_clock(cpu1)
  | Time for this iteration                    :        1.864 s           1.863 s
  | Charge density update                      :        0.604 s           0.603 s
  | Density mixing                             :        0.012 s           0.012 s
  | Hartree multipole update                   :        0.005 s           0.005 s
  | Hartree multipole summation                :        0.322 s           0.322 s
  | Integration                                :        0.866 s           0.866 s
  | Solution of K.-S. eqns.                    :        0.054 s           0.054 s
  | Total energy evaluation                    :        0.000 s           0.000 s
------------------------------------------------------------

------------------------------------------------------------
          Begin self-consistency iteration #    8

  Date     :  20150727, Time     :  120441.124
------------------------------------------------------------
  Evaluating new KS density.
  Integration grid: deviation in total charge (<rho> - N_e) =  -7.105427E-15
  Pulay mixing of updated and previous charge densities.

  Evaluating partitioned Hartree potential by multipole expansion.
  | Analytical far-field extrapolation by fixed multipoles:
  | Hartree multipole sum: apparent total charge =  -0.281992E-05
  Summing up the Hartree potential.
  Time summed over all CPUs for potential: real work        2.564 s, elapsed        2.576 s
  | RMS charge density error from multipole expansion :   0.179199E-01

  Integrating Hamiltonian matrix: batch-based integration.
  Time summed over all CPUs for integration: real work        6.771 s, elapsed        6.927 s

  Updating Kohn-Sham eigenvalues, eigenvectors, occupation numbers, and Fermi level.
  Solving generalized eigenproblem
  Updating Kohn-Sham eigenvalues and eigenfunctions.
  Solving real generalised eigenvalue problem by standard LAPACK (fast)
  Determining occupation numbers for Kohn-Sham eigenstates.
  | Chemical potential (Fermi level) in eV                 : -.19558884E+01
  | Error in electron count due to remaining E_F inaccuracy: 0.00000000E+00
  | Maximum occupation number of highest empty state:  0.00E+00

  Highest occupied state (VBM) at     -4.64221324 eV
  | Occupation number:      2.00000000

  Lowest unoccupied state (CBM) at    -1.72859496 eV
  | Occupation number:      0.00000000

  Overall HOMO-LUMO gap:      2.91361828 eV.

  Total energy components:
  | Sum of eigenvalues            :        -207.38169901 Ha       -5643.14315004 eV
  | XC energy correction          :         -46.56885656 Ha       -1267.20306153 eV
  | XC potential correction       :          59.52463534 Ha        1619.74773959 eV
  | Free-atom electrostatic energy:        -178.93273034 Ha       -4869.00732504 eV
  | Hartree energy correction     :          -9.37647563 Ha        -255.14688374 eV
  | van der Waals energy corr.    :           0.00000000 Ha           0.00000000 eV
  | Entropy correction            :           0.00000000 Ha           0.00000000 eV
  | ---------------------------
  | Total energy                  :        -382.73512620 Ha      -10414.75268076 eV
  | Total energy, T -> 0          :        -382.73512620 Ha      -10414.75268076 eV  <-- do not rely on this value for anything but (periodic) metals
  | Electronic free energy        :        -382.73512620 Ha      -10414.75268076 eV

  Derived energy quantities:
  | Kinetic energy                :         381.67585995 Ha       10385.92857957 eV
  | Electrostatic energy          :        -717.84212960 Ha      -19533.47819881 eV
  | Energy correction for multipole
  | error in Hartree potential    :          -0.00740456 Ha          -0.20148835 eV
  | Sum of eigenvalues per atom                           :        -376.20954334 eV
  | Total energy (T->0) per atom                          :        -694.31684538 eV  <-- do not rely on this value for anything but (periodic) metals
  | Electronic free energy per atom                       :        -694.31684538 eV

  Self-consistency convergence accuracy:
  | Change of charge density      : 0.1615E-02
  | Change of sum of eigenvalues  : 0.7983E-01 eV
  | Change of total energy        : 0.2119E-04 eV

  End self-consistency iteration #     8       :  max(cpu_time)    wall_clock(cpu1)
  | Time for this iteration                    :        1.867 s           1.866 s
  | Charge density update                      :        0.604 s           0.603 s
  | Density mixing                             :        0.014 s           0.013 s
  | Hartree multipole update                   :        0.004 s           0.005 s
  | Hartree multipole summation                :        0.323 s           0.323 s
  | Integration                                :        0.867 s           0.867 s
  | Solution of K.-S. eqns.                    :        0.054 s           0.054 s
  | Total energy evaluation                    :        0.000 s           0.000 s
------------------------------------------------------------

------------------------------------------------------------
          Begin self-consistency iteration #    9

  Date     :  20150727, Time     :  120442.991
------------------------------------------------------------
  Evaluating new KS density.
  Integration grid: deviation in total charge (<rho> - N_e) =   2.131628E-14
  Pulay mixing of updated and previous charge densities.

  Evaluating partitioned Hartree potential by multipole expansion.
  | Analytical far-field extrapolation by fixed multipoles:
  | Hartree multipole sum: apparent total charge =  -0.280347E-05
  Summing up the Hartree potential.
  Time summed over all CPUs for potential: real work        2.564 s, elapsed        2.576 s
  | RMS charge density error from multipole expansion :   0.179264E-01

  Integrating Hamiltonian matrix: batch-based integration.
  Time summed over all CPUs for integration: real work        6.767 s, elapsed        6.904 s

  Updating Kohn-Sham eigenvalues, eigenvectors, occupation numbers, and Fermi level.
  Solving generalized eigenproblem
  Updating Kohn-Sham eigenvalues and eigenfunctions.
  Solving real generalised eigenvalue problem by standard LAPACK (fast)
  Determining occupation numbers for Kohn-Sham eigenstates.
  | Chemical potential (Fermi level) in eV                 : -.19572029E+01
  | Error in electron count due to remaining E_F inaccuracy: 0.00000000E+00
  | Maximum occupation number of highest empty state:  0.00E+00

  Highest occupied state (VBM) at     -4.64919335 eV
  | Occupation number:      2.00000000

  Lowest unoccupied state (CBM) at    -1.72892662 eV
  | Occupation number:      0.00000000

  Overall HOMO-LUMO gap:      2.92026673 eV.

  Total energy components:
  | Sum of eigenvalues            :        -207.38631487 Ha       -5643.26875400 eV
  | XC energy correction          :         -46.56827766 Ha       -1267.18730883 eV
  | XC potential correction       :          59.52384671 Ha        1619.72627984 eV
  | Free-atom electrostatic energy:        -178.93273034 Ha       -4869.00732504 eV
  | Hartree energy correction     :          -9.37164896 Ha        -255.01554318 eV
  | van der Waals energy corr.    :           0.00000000 Ha           0.00000000 eV
  | Entropy correction            :           0.00000000 Ha           0.00000000 eV
  | ---------------------------
  | Total energy                  :        -382.73512512 Ha      -10414.75265120 eV
  | Total energy, T -> 0          :        -382.73512512 Ha      -10414.75265120 eV  <-- do not rely on this value for anything but (periodic) metals
  | Electronic free energy        :        -382.73512512 Ha      -10414.75265120 eV

  Derived energy quantities:
  | Kinetic energy                :         381.68018533 Ha       10386.04627903 eV
  | Electrostatic energy          :        -717.84703279 Ha      -19533.61162140 eV
  | Energy correction for multipole
[...]
   ----------------------------------------------------------------
   Total forces(   4)            : -.292663E+00 -.143083E+01 -.359969E+00
  atom #    5
   Hellmann-Feynman + Multipole  : -.544084E+00 0.406909E+00 0.846728E+00
   Pulay + GGA                   : 0.488475E-01 0.902426E-01 0.118985E+00
   Van der Waals               : 0.882712E-03 0.412831E-02 -.190338E-02
   ----------------------------------------------------------------
   Total forces(   5)            : -.494353E+00 0.501280E+00 0.963810E+00
  atom #    6
   Hellmann-Feynman + Multipole  : 0.681238E+00 0.862071E+00 0.251152E+00
   Pulay + GGA                   : -.112320E+00 -.615179E-01 0.645596E-01
   Van der Waals               : 0.119492E-02 0.187646E-02 -.108082E-02
   ----------------------------------------------------------------
   Total forces(   6)            : 0.570112E+00 0.802430E+00 0.314631E+00
  atom #    7
   Hellmann-Feynman + Multipole  : -.578816E+01 0.123299E+01 -.975293E+01
   Pulay + GGA                   : 0.874221E+01 -.141126E+01 0.108953E+02
   Van der Waals               : 0.216793E-02 -.426497E-03 0.395896E-02
   ----------------------------------------------------------------
   Total forces(   7)            : 0.295622E+01 -.178694E+00 0.114632E+01
  atom #    8
   Hellmann-Feynman + Multipole  : -.337123E+00 -.486072E+00 -.902224E+00
   Pulay + GGA                   : 0.502710E-01 0.449077E-01 0.729522E-01
   Van der Waals               : -.550748E-03 -.133885E-02 -.177805E-03
   ----------------------------------------------------------------
   Total forces(   8)            : -.287403E+00 -.442504E+00 -.829450E+00
  atom #    9
   Hellmann-Feynman + Multipole  : -.173789E+01 0.999995E+00 -.393886E+00
   Pulay + GGA                   : 0.121605E+00 -.514290E-01 0.229036E-01
   Van der Waals               : -.297309E-02 0.284579E-02 0.252472E-02
   ----------------------------------------------------------------
   Total forces(   9)            : -.161925E+01 0.951412E+00 -.368457E+00
  atom #   10
   Hellmann-Feynman + Multipole  : -.289583E+01 -.111218E+01 -.153026E+02
   Pulay + GGA                   : 0.375219E+01 0.151586E+01 0.138809E+02
   Van der Waals               : -.108901E-01 -.436361E-02 0.445621E-03
   ----------------------------------------------------------------
   Total forces(  10)            : 0.845474E+00 0.399316E+00 -.142130E+01
  atom #   11
   Hellmann-Feynman + Multipole  : -.478528E+00 -.246834E+00 0.313271E+00
   Pulay + GGA                   : 0.965571E-01 0.716980E-01 0.551229E-01
   Van der Waals               : -.169633E-02 -.148126E-02 -.103638E-02
   ----------------------------------------------------------------
   Total forces(  11)            : -.383667E+00 -.176617E+00 0.367358E+00
  atom #   12
   Hellmann-Feynman + Multipole  : -.389439E+00 -.819975E-01 0.107128E+01
   Pulay + GGA                   : -.760106E-01 -.377801E-01 0.976912E-01
   Van der Waals               : -.462210E-02 -.119232E-02 -.416341E-02
   ----------------------------------------------------------------
   Total forces(  12)            : -.470072E+00 -.120970E+00 0.116481E+01
  atom #   13
   Hellmann-Feynman + Multipole  : 0.703209E+00 -.161758E+02 0.179470E+01
   Pulay + GGA                   : 0.693347E+00 0.163092E+02 -.357957E+01
   Van der Waals               : 0.757585E-02 -.767566E-02 -.239008E-02
   ----------------------------------------------------------------
   Total forces(  13)            : 0.140413E+01 0.125755E+00 -.178727E+01
  atom #   14
   Hellmann-Feynman + Multipole  : -.244967E+00 0.547492E+00 0.186697E+00
   Pulay + GGA                   : -.751710E-01 0.967664E-01 0.884232E-01
   Van der Waals               : 0.111399E-02 -.111729E-02 -.405847E-03
   ----------------------------------------------------------------
   Total forces(  14)            : -.319024E+00 0.643141E+00 0.274714E+00
  atom #   15
   Hellmann-Feynman + Multipole  : -.106546E+01 -.871456E+00 0.161441E+01
   Pulay + GGA                   : 0.593917E-01 0.722318E-01 -.104451E+00
   Van der Waals               : 0.508984E-02 -.443005E-02 -.268282E-03
   ----------------------------------------------------------------
   Total forces(  15)            : -.100098E+01 -.803655E+00 0.150969E+01
  Timings for vdw_correction_hirshfeld (Tkatchenko-Scheffler 2009):
  | CPU time:        5.056 s, Wall clock time:        5.056 s.
  Removing unitary transformations (pure translations, rotations) from forces on atoms.
  Atomic forces before filtering:
  | Net force on center of mass :  0.294516E-02 0.579291E-02 -.866766E-02 eV/A
  | Net torque on center of mass:  0.716301E-02 -.511485E-04 -.104503E-01 eV
  Atomic forces after filtering:
  | Net force on center of mass :  -.356812E-15 0.124884E-14 -.356812E-15 eV/A
  | Net torque on center of mass:  0.259623E-14 0.000000E+00 -.264344E-14 eV
 
  Energy and forces in a compact form:
  | Total energy uncorrected      :         -0.104148184520030E+05 eV
  | Total energy corrected        :         -0.104148184520030E+05 eV  <-- do not rely on this value for anything but (periodic) metals
  | Electronic free energy        :         -0.104148184520030E+05 eV
  Total atomic forces (unitary forces cleaned) [eV/Ang]:
  |   1         -0.160252665314857E+01          0.351142778612400E+01         -0.215262627744123E+01
  |   2          0.221379067113444E+01         -0.354432579105911E+01          0.145857855032109E+01
  |   3         -0.151710931276803E+01         -0.233485134971520E+00         -0.287185000512300E+00
  |   4         -0.292520990518361E+00         -0.143125531220924E+01         -0.359060111270291E+00
  |   5         -0.494298789205835E+00          0.500970125144144E+00          0.964600925351957E+00
  |   6          0.570342039043450E+00          0.801915207755644E+00          0.315647717246549E+00
  |   7          0.295606744203986E+01         -0.179022325067135E+00          0.114691905349810E+01
  |   8         -0.287615734465820E+00         -0.442704887393386E+00         -0.828942668222901E+00
  |   9         -0.161930708860153E+01          0.951230813069183E+00         -0.367806071786289E+00
  |  10          0.845104248990018E+00          0.399224357838425E+00         -0.142097372276345E+01
  |  11         -0.384102942197419E+00         -0.176542385553969E+00          0.367572317876412E+00
  |  12         -0.470363313259667E+00         -0.121046677918210E+00          0.116520093438328E+01
  |  13          0.140366912158612E+01          0.125226830854029E+00         -0.178689710030094E+01
  |  14         -0.319572418128936E+00          0.642610073049542E+00          0.275005053115546E+00
  |  15         -0.100155628049972E+01         -0.804222679662396E+00          0.150996640050447E+01
 
  ------------------------------------ 
  Start decomposition of the XC Energy 
  ------------------------------------ 
  Hartree-Fock part   :          0.000000000 Ha              0.000000000 eV
  ------------------------------------ 
  X Energy            :        -44.937685063 Ha          -1222.816626779 eV
  C Energy GGA        :         -1.630599801 Ha            -44.370878142 eV
  Total XC Energy     :        -46.568284863 Ha          -1267.187504921 eV
  LDA X and C from self-consistent density 
  X Energy LDA        :        -40.484024369 Ha          -1101.626353225 eV
  C Energy LDA        :         -3.297148074 Ha            -89.719963997 eV
  ------------------------------------ 
  End decomposition of the XC Energy 
  ------------------------------------ 
  Performing Hirshfeld analysis of fragment charges and moments.
  ----------------------------------------------------------------------
  | Atom     1: O
  |   Hirshfeld charge        :     -0.33518366
  |   Free atom volume        :     23.95238533
  |   Hirshfeld volume        :     23.55391704
  |   Hirshfeld dipole vector :      0.03310737       0.04818549       0.02568080
  |   Hirshfeld dipole moment :      0.06385486
  |   Hirshfeld second moments:      0.00937088      -0.02959271       0.01724825
  |                                 -0.02959271      -0.02962718      -0.03709830
  |                                  0.01724825      -0.03709830      -0.06942397
  ----------------------------------------------------------------------
  | Atom     2: H
  |   Hirshfeld charge        :      0.10884154
  |   Free atom volume        :     10.44207651
  |   Hirshfeld volume        :      7.43059217
  |   Hirshfeld dipole vector :     -0.05737969       0.09272750      -0.03052093
  |   Hirshfeld dipole moment :      0.11323580
  |   Hirshfeld second moments:      0.10286641       0.00303745       0.00693748
  |                                  0.00303745       0.07667178      -0.00799629
  |                                  0.00693748      -0.00799629       0.07460863
  ----------------------------------------------------------------------
  | Atom     3: H
  |   Hirshfeld charge        :      0.05902858
  |   Free atom volume        :     10.44207651
  |   Hirshfeld volume        :      8.53264217
  |   Hirshfeld dipole vector :      0.04267491       0.00697534       0.01518312
  |   Hirshfeld dipole moment :      0.04582936
  |   Hirshfeld second moments:      0.02237877      -0.02841660      -0.00093587
  |                                 -0.02841660       0.07420525      -0.00646909
  |                                 -0.00093587      -0.00646909       0.05691729
  ----------------------------------------------------------------------
  | Atom     4: O
  |   Hirshfeld charge        :     -0.28143162
  |   Free atom volume        :     23.95238533
  |   Hirshfeld volume        :     21.84389780
  |   Hirshfeld dipole vector :     -0.03218324       0.01978217       0.01533892
  |   Hirshfeld dipole moment :      0.04077226
  |   Hirshfeld second moments:      0.02944791       0.05733028      -0.00904026
  |                                  0.05733028       0.03291775       0.02674617
  |                                 -0.00904026       0.02674617       0.00126634
  ----------------------------------------------------------------------
  | Atom     5: H
  |   Hirshfeld charge        :      0.12354811
  |   Free atom volume        :     10.44207651
  |   Hirshfeld volume        :      7.11674205
  |   Hirshfeld dipole vector :      0.03561642       0.08857706       0.05701847
  |   Hirshfeld dipole moment :      0.11120041
  |   Hirshfeld second moments:      0.10688845       0.02012282      -0.00643238
  |                                  0.02012282       0.08394176       0.00169886
  |                                 -0.00643238       0.00169886       0.09484082
  ----------------------------------------------------------------------
  | Atom     6: H
  |   Hirshfeld charge        :      0.14274683
  |   Free atom volume        :     10.44207651
  |   Hirshfeld volume        :      6.57765750
  |   Hirshfeld dipole vector :     -0.10390506      -0.06392887       0.02026249
  |   Hirshfeld dipole moment :      0.12366782
  |   Hirshfeld second moments:      0.10187418       0.01306747       0.00008464
  |                                  0.01306747       0.11589405       0.01329240
  |                                  0.00008464       0.01329240       0.10560092
  ----------------------------------------------------------------------
  | Atom     7: O
  |   Hirshfeld charge        :     -0.21095371
  |   Free atom volume        :     23.95238533
  |   Hirshfeld volume        :     21.02155876
  |   Hirshfeld dipole vector :     -0.01915484      -0.02595839       0.03103915
  |   Hirshfeld dipole moment :      0.04476802
  |   Hirshfeld second moments:      0.06647878      -0.02538569       0.00720411
  |                                 -0.02538569       0.06210256       0.02955265
  |                                  0.00720411       0.02955265       0.02683059
  ----------------------------------------------------------------------
  | Atom     8: H
  |   Hirshfeld charge        :      0.10825134
  |   Free atom volume        :     10.44207651
  |   Hirshfeld volume        :      7.40466690
  |   Hirshfeld dipole vector :      0.01167012       0.02332102       0.04614522
  |   Hirshfeld dipole moment :      0.05300418
  |   Hirshfeld second moments:      0.10955082       0.00072768       0.00785116
  |                                  0.00072768       0.07273357      -0.02561890
  |                                  0.00785116      -0.02561890       0.06174439
  ----------------------------------------------------------------------
  | Atom     9: H
  |   Hirshfeld charge        :      0.15928163
  |   Free atom volume        :     10.44207651
  |   Hirshfeld volume        :      6.04353605
  |   Hirshfeld dipole vector :      0.09052293      -0.07689029       0.01269023
  |   Hirshfeld dipole moment :      0.11944689
  |   Hirshfeld second moments:      0.12047813       0.00187230       0.00092569
  |                                  0.00187230       0.12247276       0.01395295
  |                                  0.00092569       0.01395295       0.12224956
  ----------------------------------------------------------------------
  | Atom    10: O
  |   Hirshfeld charge        :     -0.22166941
  |   Free atom volume        :     23.95238533
  |   Hirshfeld volume        :     20.14500334
  |   Hirshfeld dipole vector :      0.01066211      -0.01773554       0.02326561
  |   Hirshfeld dipole moment :      0.03113709
  |   Hirshfeld second moments:      0.08907969       0.04170292      -0.01828508
  |                                  0.04170292       0.05654196       0.01061695
  |                                 -0.01828508       0.01061695       0.06751639
  ----------------------------------------------------------------------
  | Atom    11: H
  |   Hirshfeld charge        :      0.17242413
  |   Free atom volume        :     10.44207651
  |   Hirshfeld volume        :      5.58700169
  |   Hirshfeld dipole vector :      0.09975077       0.06497910       0.03353921
  |   Hirshfeld dipole moment :      0.12368257
  |   Hirshfeld second moments:      0.13075565       0.00729912      -0.01243750
  |                                  0.00729912       0.12702639      -0.00198768
  |                                 -0.01243750      -0.00198768       0.13833442
  ----------------------------------------------------------------------
  | Atom    12: H
  |   Hirshfeld charge        :      0.16577296
  |   Free atom volume        :     10.44207651
  |   Hirshfeld volume        :      6.30687349
  |   Hirshfeld dipole vector :     -0.06474945      -0.04278185       0.07993531
  |   Hirshfeld dipole moment :      0.11141109
  |   Hirshfeld second moments:      0.11419882       0.01054568       0.01080161
  |                                  0.01054568       0.11795576       0.00433763
  |                                  0.01080161       0.00433763       0.12191765
  ----------------------------------------------------------------------
  | Atom    13: O
  |   Hirshfeld charge        :     -0.28667941
  |   Free atom volume        :     23.95238533
  |   Hirshfeld volume        :     21.62634380
  |   Hirshfeld dipole vector :     -0.00460546       0.04917658      -0.01133203
  |   Hirshfeld dipole moment :      0.05067505
  |   Hirshfeld second moments:      0.00603903      -0.01839543      -0.06089198
  |                                 -0.01839543       0.01764830       0.00321898
  |                                 -0.06089198       0.00321898       0.04109217
  ----------------------------------------------------------------------
  | Atom    14: H
  |   Hirshfeld charge        :      0.14420704
  |   Free atom volume        :     10.44207651
  |   Hirshfeld volume        :      6.11685799
  |   Hirshfeld dipole vector :     -0.06473563       0.08644289       0.06555701
  |   Hirshfeld dipole moment :      0.12633604
  |   Hirshfeld second moments:      0.11097064       0.00222513      -0.01702158
  |                                  0.00222513       0.11468840      -0.00846041
  |                                 -0.01702158      -0.00846041       0.12454672
  ----------------------------------------------------------------------
  | Atom    15: H
  |   Hirshfeld charge        :      0.15178315
  |   Free atom volume        :     10.44207651
  |   Hirshfeld volume        :      6.39974370
  |   Hirshfeld dipole vector :      0.05154456       0.05317204      -0.09339097
  |   Hirshfeld dipole moment :      0.11918885
  |   Hirshfeld second moments:      0.09933926      -0.01063568      -0.00638731
  |                                 -0.01063568       0.12181838       0.00689537
  |                                 -0.00638731       0.00689537       0.11459855
  ----------------------------------------------------------------------


------------------------------------------------------------------------------
  Final output of selected total energy values:

  The following output summarizes some interesting total energy values
  at the end of a run (AFTER all relaxation, molecular dynamics, etc.).

  | Total energy of the DFT / Hartree-Fock s.c.f. calculation      :         -10414.818452003 eV
  | Final zero-broadening corrected energy (caution - metals only) :         -10414.818452003 eV
  | For reference only, the value of 1 Hartree used in FHI-aims is :             27.211384500 eV

  Before relying on these values, please be sure to understand exactly which
  total energy value is referred to by a given number. Different objects may
  all carry the same name 'total energy'. Definitions:

  Total energy of the DFT / Hartree-Fock s.c.f. calculation:
  | Note that this energy does not include ANY quantities calculated after the
  | s.c.f. cycle, in particular not ANY RPA, MP2, etc. many-body perturbation terms.

  Final zero-broadening corrected energy:
  | For metallic systems only, a broadening of the occupation numbers at the Fermi
  | level can be extrapolated back to zero broadening by an electron-gas inspired
  | formula. For all systems that are not real metals, this value can be
  | meaningless and should be avoided.

------------------------------------------------------------------------------

------------------------------------------------------------
          Leaving FHI-aims.
          Date     :  20150727, Time     :  120459.930

          Computational steps:
          | Number of self-consistency cycles          :           15

          Detailed time accounting                     :  max(cpu_time)    wall_clock(cpu1)
          | Total time                                 :       34.222 s          34.228 s
          | Preparation time                           :        0.172 s           0.492 s
          | Grid partitioning                          :        0.147 s           0.146 s
          | Preloading free-atom quantities on grid    :        0.013 s           0.013 s
          | Free-atom superposition energy             :        0.065 s           0.065 s
          | Total time for integrations                :       14.320 s          14.318 s
          | Total time for solution of K.-S. equations :        1.004 s           1.006 s
          | Total time for density & force components  :       11.715 s          11.713 s
          | Total time for mixing                      :        0.192 s           0.190 s
          | Total time for Hartree multipole update    :        0.068 s           0.072 s
          | Total time for Hartree multipole sum       :        5.913 s           5.912 s
          | Total time for total energy evaluation     :        0.004 s           0.006 s
          | Total time for scaled ZORA corrections     :        0.000 s           0.000 s
          | Total time for TS (2009) vdW correction    :        0.051 s           0.051 s

          Have a nice day.
------------------------------------------------------------
