begin 
comment This RuNNer input has been created automatically by fhiaims2runner 
comment relativistic  atomic zora scalar 
atom    -7.659119727    0.122834137   -2.882135845   O   -0.294798160    0.000000000   -0.004903168    0.071249825   -0.025617906 
atom    -8.629834630    1.842130327   -3.614707366   H    0.150688520    0.000000000    0.044603231   -0.066837217    0.029640074 
atom    -5.797341910    0.623934903   -2.791712414   H    0.137347620    0.000000000   -0.039408624   -0.003694174   -0.003271067 
atom    -3.732890885    5.400915006    0.856310837   O   -0.295405440    0.000000000    0.014602043    0.006057053   -0.030465881 
atom    -2.312175321    6.379434480    1.485775081   H    0.153043150    0.000000000   -0.008205407   -0.004567743    0.007249230 
atom    -4.795219747    4.852743033    2.184751038   H    0.149117240    0.000000000   -0.006688074   -0.002207743    0.022465549 
energy   -153.09198650 
charge      0.00000000 
end 
