begin 
comment This RuNNer input has been created automatically by fhiaims2runner 
comment relativistic  atomic zora scalar 
atom    -7.659119727    0.122834137   -2.882135845   O   -0.289799520    0.000000000   -0.004650102    0.071527637   -0.027019900 
atom    -8.629834630    1.842130327   -3.614707366   H    0.149058950    0.000000000    0.044240337   -0.067055032    0.029668463 
atom    -5.797341910    0.623934903   -2.791712414   H    0.140073800    0.000000000   -0.039869145   -0.004666038   -0.002852197 
atom    -7.216640179    3.826678030    4.134703511   O   -0.290378470    0.000000000   -0.026240553    0.029249143    0.029634117 
atom    -6.974755139    3.706434709    6.051188922   H    0.145211190    0.000000000   -0.009171012    0.006657811   -0.041870536 
atom    -8.591624353    5.199205559    3.865190664   H    0.145801790    0.000000000    0.035690475   -0.035713521    0.012440053 
energy   -153.08495502 
charge      0.00000000 
end 
