  MPI-parallelism will be employed.
------------------------------------------------------------
          Invoking FHI-aims ...
          Version 081213
          Compiled on 2013/08/29 at 17:41:06 on host generoso.

          When using FHI-aims, please cite the following reference:

          Volker Blum, Ralf Gehrke, Felix Hanke, Paula Havu,
          Ville Havu, Xinguo Ren, Karsten Reuter, and Matthias Scheffler,
          'Ab Initio Molecular Simulations with Numeric Atom-Centered Orbitals: FHI-aims',
          Computer Physics Communications 180, 2175-2196 (2009)

          For any questions about FHI-aims, please visit the aimsclub website
          with its forums and wiki. Contributions to both the forums and the
          wiki are warmly encouraged - they are for you, and everyone is welcome there.

------------------------------------------------------------

  Date     :  20150727, Time     :  120346.086
  Time zero on CPU 1             :   0.459920000000000E-01  s.
  Internal wall clock time zero  :           207230626.086  s.

  Using        8 parallel tasks.
  Task        0 on host gen60 reporting.
  Task        1 on host gen60 reporting.
  Task        2 on host gen60 reporting.
  Task        3 on host gen60 reporting.
  Task        4 on host gen60 reporting.
  Task        5 on host gen60 reporting.
  Task        6 on host gen60 reporting.
  Task        7 on host gen60 reporting.

  Performing system and environment tests:
  | Environment variable OMP_NUM_THREADS correctly set to 1.
  | Checking for scalapack...
  | No scalapack compiled in.

  Obtaining array dimensions for all initial allocations:
  
  -----------------------------------------------------------------------
  Parsing control.in (first pass over file, find array dimensions only).
  The contents of control.in will be repeated verbatim below
  unless switched off by setting 'verbatim_writeout .false.' .
  in the first line of control.in .
  -----------------------------------------------------------------------
  
  #########################################################################################
  #
  #  Volker Blum, FHI 2008 : Test run input file control.in
  #
  #########################################################################################
  #
  #  Physical model
  #
    xc                 rpbe
    spin               none
    relativistic       atomic_zora scalar
    charge             0.
   vdw_correction_hirshfeld
  #
  #  SCF convergence
  #
    occupation_type    gaussian 0.01
    mixer              pulay
      n_max_pulay        10
      charge_mix_param   0.1
    sc_accuracy_rho    5E-5
    sc_accuracy_eev    5E-3
    sc_accuracy_etot   5E-6
    sc_iter_limit      3000
  #
  #  Eigenvalue solver
  #
    KS_method          lapack
      empty_states       8
      basis_threshold    0.e-5
  #
  #  Efficiency
  #
  #   all previous settings are now default, except stratmann still
  #   undecided. Continue to handle stratmann with care, if at all.
  #
  #  partition_type stratmann
    partition_type rho_r2
  #  hartree_partition_type stratmann
  #
  #  Oprions for large clusters (100's of atoms: memory saving / better scaling)
  #
  # for periodic systems:
  #
    density_update_method orbital
    packed_matrix_format none
  #  k_grid 6 6 6
  #  output k_eigenvalue 1
  #  distributed_spline_storage .true.
  #
  #  Relaxation
  #
  #  relax_geometry   bfgs 5.e-3
    sc_accuracy_forces 5.E-4
    final_forces_cleaned .true.
  #
  #  Output options
  #
  #  output mulliken
    output Hirshfeld
  #  output dipole
  
  #harmonic_length_scale 0.001
  
  ################################################################################
  #
  #  FHI-aims code project
  #  VB, Fritz-Haber Institut, 2007
  #
  #  Suggested "safe" defaults for H atom (to be pasted into control.in file)
  #  Basis constructed for a non-relativistic H2 molecule using the
  #  PW-LDA functional.
  #
  ################################################################################
    species        H
  #     global species definitions
      nucleus             1
      cut_pot             4.0  2.0  1.0
      cut_free_atom       finite 8.0
      logarithmic         0.00010000 100.00  1.0123
      basis_dep_cutoff    1d-4  # 1d-4 is safe default - please check 5d-4 if you wish!
      radial_base         24 7.0
      radial_multiplier   2
      angular_grids       specified
        division   0.2783  110
        division   0.3822  194
        division   0.5626  302
  #      division   0.5922  434
  #      division   0.6227  590
  #      division   0.7206  770
        outer_grid  302
      l_hartree           4
  ################################################################################
  #
  #  Definition of "minimal" basis
  #
  ################################################################################
  #     valence basis states
      valence      1  s   1.
  #     ion occupancy
      ion_occ      1  s   0.5
  ################################################################################
  #
  #  Suggested additional basis functions. For production calculations,
  #  uncomment them one after another (the most important basis functions are
  #  listed first).
  #
  ################################################################################
  #  "First tier" - improvements: -1014.90 meV to -62.69 meV
       hydro 2 s 2.1
       hydro 2 p 3.5
  #  "Second tier" - improvements: -12.89 meV to -1.83 meV
       hydro 1 s 0.85
       hydro 2 p 3.7
       hydro 2 s 1.2
       hydro 3 d 7
  #  "Third tier" - improvements: -0.25 meV to -0.12 meV
  #     hydro 4 f 11.2
  #     hydro 3 p 4.8
  #     hydro 4 d 9
  #     hydro 3 s 3.2
  
  ################################################################################
  #
  #  FHI-aims code project
  #  VB, Fritz-Haber Institut, 2007
  #
  #  Suggested "safe" defaults for O atom (to be pasted into control.in file)
  #  All values have been tested for a non-relativistic, non-spinpolarized O2
  #  molecule using the PW-LDA functional. Validity for PBE is expected.
  #
  #  Constructed for dimers: 1.0 A, 1.208 A, 1.5 A, 2.0 A, 3.0 A
  #
  ################################################################################
    species        O
  #     global species definitions
      nucleus             8
      mass                15.9994
      l_hartree           4
      cut_pot             4.0  2.0  1.0
      cut_free_atom       finite 8.0
      basis_dep_cutoff    1d-4  # 1d-4 is safe default - please check 5d-4 if you wish!
      logarithmic         0.00010000 100.00  1.0123
      radial_base         36 7.0
      radial_multiplier   2
       angular_grids specified
        division   0.4087  110
        division   0.5181  194
        division   0.6184  302
  #      division   0.7315  434
  #      division   0.7934  590
  #      division   0.9656  770
  #      division   1.4041  974
  #      outer_grid 974
        outer_grid 302
  ################################################################################
  #
  #  Definition of "minimal" basis
  #
  ################################################################################
  #     valence basis states
      valence      2  s   2.
      valence      2  p   4.
  #     ion occupancy
      ion_occ      2  s   1.
      ion_occ      2  p   3.
  ################################################################################
  #
  #  Suggested additional basis functions. For production calculations,
  #  uncomment them one after another (the most important basis functions are
  #  listed first).
  #
  ################################################################################
  #  "First tier" - improvements: -699.05 meV to -159.38 meV
       hydro 2 p 1.8
       hydro 3 d 7.6
       hydro 3 s 6.4
  #  "Second tier" - improvements: -49.91 meV to -5.39 meV
       hydro 4 f 11.6
       hydro 3 p 6.2
       hydro 3 d 5.6
       hydro 5 g 17.6
       hydro 1 s 0.75
  #  "Third tier" - improvements: -2.83 meV to -0.50 meV
  #     ionic 2 p auto
  #     hydro 4 f 10.8
  #     hydro 4 d 4.7
  #     hydro 2 s 6.8
  #  "Fourth tier" - improvements: -0.40 meV to -0.12 meV
  #     hydro 3 p 5
  #     hydro 3 s 3.3
  #     hydro 5 g 15.6
  #     hydro 4 f 17.6
  #     hydro 4 d 14
  # Further basis functions - -0.08 meV and below
  #     hydro 3 s 2.1
  #     hydro 4 d 11.6
  #     hydro 3 p 16
  #     hydro 2 s 17.2
  
  
  -----------------------------------------------------------------------
  Completed first pass over input file control.in .
  -----------------------------------------------------------------------
  
  
  -----------------------------------------------------------------------
  Parsing geometry.in (first pass over file, find array dimensions only).
  The contents of geometry.in will be repeated verbatim below
  unless switched off by setting 'verbatim_writeout .false.' .
  in the first line of geometry.in .
  -----------------------------------------------------------------------
  
  atom      -4.053030000      0.065001000     -1.525160000  O
  atom      -4.566710000      0.974813000     -1.912820000  H
  atom      -3.067820000      0.330172000     -1.477310000  H
  atom      -4.581760000     -0.256435000      0.939478000  O
  atom      -4.349860000      0.471090000      1.504340000  H
  atom      -5.393870000     -0.726611000      1.228070000  H
  atom      -1.645860000      0.870179000     -1.502250000  O
  atom      -1.568890000      1.501730000     -0.721051000  H
  atom      -0.824432000      0.282220000     -1.377720000  H
  atom      -1.975360000      2.858040000      0.453140000  O
  atom      -1.223550000      3.375850000      0.786238000  H
  atom      -2.537520000      2.567960000      1.156120000  H
  atom      -4.066610000      4.258280000     -0.900064000  O
  atom      -3.224110000      3.876870000     -0.569443000  H
  atom      -3.737450000      5.116530000     -1.322720000  H
  
  -----------------------------------------------------------------------
  Completed first pass over input file geometry.in .
  -----------------------------------------------------------------------
  
 
  Basic array size parameters: 
  | Number of species                 :        2
  | Number of atoms                   :       15
  | Max. basis fn. angular momentum   :        4
  | Max. atomic/ionic basis occupied n:        2
  | Max. number of basis fn. types    :        2
  | Max. radial fns per species/type  :        8
  | Max. logarithmic grid size        :     1301
  | Max. radial integration grid size :       73
  | Max. angular integration grid size:      302
  | Max. angular grid division number :        8
  | Radial grid for Hartree potential :     1301
  | Number of spin channels           :        1

------------------------------------------------------------
          Reading file control.in.
------------------------------------------------------------
  XC: Using RPBE gradient-corrected functionals.
  Spin treatment: No spin polarisation.
  Scalar relativistic treatment of kinetic energy: on-site free-atom approximation to ZORA.
  Charge =   0.000000E+00: Neutral system requested explicitly.
  Using non-empirical van der Waals correction (Hirshfeld partitioning):
  Occupation type: Gaussian broadening, width =   0.100000E-01 eV.
  Using pulay charge density mixing.
  Pulay mixing - number of memorized iterations:   10
  Charge density mixing - mixing parameter:     0.1000
  Convergence accuracy of self-consistent charge density: 0.5000E-04
  Convergence accuracy of sum of eigenvalues: 0.5000E-02
  Convergence accuracy of total energy: 0.5000E-05
  Maximum number of s.-c. iterations  :  3000
  Kohn-Sham eigenvalues and eigenfunctions calculated by lapack diagonalisation (D&C).
  Number of empty states per atom:        8
  Threshold for basis singularities: 0.0000E+00
  Partition function in integrals calculations: rho / r^2
 Using packed matrix format           0
  Convergence accuracy of forces: 0.5000E-03
  Cleaning forces before final output.
  Hirshfeld charge analysis will be performed.
 
  Reading configuration options for species H                   .
  | Found nuclear charge :   1.0000
  | Found cutoff potl. onset [A], width [A], scale factor :    4.00000    2.00000    1.00000
  | Found cutoff specification for free atom: Cutoff potential begins at    8.00000 A.
  | Found logarithmic grid data [bohr] : 0.1000E-03 0.1000E+03 0.1012E+01
  | Threshold for basis-dependent cutoff potential is   0.100000E-03
  | Found data for basic radial integration grid :    24 points, outermost radius =    7.000 A
  | Found multiplier for basic radial grid :   2
  | Found angular grid specification: user-specified.
  | Specified grid contains     4 separate shells.
  | Check grid settings after all constraints further below.
  | Found l_max for Hartree potential  :   4
  | Found free-atom valence shell :  1 s   1.000
  | No ionic wave fns used. Skipping ion_occ.
  | Found hydrogenic basis function :  2 s   2.100
  | Found hydrogenic basis function :  2 p   3.500
  | Found hydrogenic basis function :  1 s   0.850
  | Found hydrogenic basis function :  2 p   3.700
  | Found hydrogenic basis function :  2 s   1.200
  | Found hydrogenic basis function :  3 d   7.000
  Species H                   : Missing cutoff potential type.
  Defaulting to exp(1/x)/(1-x)^2 type cutoff potential.
  Species H : On-site basis accuracy parameter (for Gram-Schmidt orthonormalisation) not specified.
  Using default value basis_acc =  0.1000000E-03.
  Species H                   : Using default innermost maximum threshold i_radial=  2 for radial functions.
  Species H                   : Basic radial grid will be enhanced according to radial_multiplier =   2, to contain    49 grid points.
 
  Reading configuration options for species O                   .
  | Found nuclear charge :   8.0000
  | Found atomic mass :    15.9994000000000      amu
  | Found l_max for Hartree potential  :   4
  | Found cutoff potl. onset [A], width [A], scale factor :    4.00000    2.00000    1.00000
  | Found cutoff specification for free atom: Cutoff potential begins at    8.00000 A.
  | Threshold for basis-dependent cutoff potential is   0.100000E-03
  | Found logarithmic grid data [bohr] : 0.1000E-03 0.1000E+03 0.1012E+01
  | Found data for basic radial integration grid :    36 points, outermost radius =    7.000 A
  | Found multiplier for basic radial grid :   2
  | Found angular grid specification: user-specified.
  | Specified grid contains     4 separate shells.
  | Check grid settings after all constraints further below.
  | Found free-atom valence shell :  2 s   2.000
  | Found free-atom valence shell :  2 p   4.000
  | No ionic wave fns used. Skipping ion_occ.
  | No ionic wave fns used. Skipping ion_occ.
  | Found hydrogenic basis function :  2 p   1.800
  | Found hydrogenic basis function :  3 d   7.600
  | Found hydrogenic basis function :  3 s   6.400
  | Found hydrogenic basis function :  4 f  11.600
  | Found hydrogenic basis function :  3 p   6.200
  | Found hydrogenic basis function :  3 d   5.600
  | Found hydrogenic basis function :  5 g  17.600
  | Found hydrogenic basis function :  1 s   0.750
  Species O                   : Missing cutoff potential type.
  Defaulting to exp(1/x)/(1-x)^2 type cutoff potential.
  Species O : On-site basis accuracy parameter (for Gram-Schmidt orthonormalisation) not specified.
  Using default value basis_acc =  0.1000000E-03.
  Species O                   : Using default innermost maximum threshold i_radial=  2 for radial functions.
  Species O                   : Basic radial grid will be enhanced according to radial_multiplier =   2, to contain    73 grid points.
 
  Finished reading input file 'control.in'. Consistency checks are next.
 
  Target number of points in a grid batch is not set. Defaulting to  100
  Method for grid partitioning is not set. Defaulting to parallel hash+maxmin partitioning.
  Batch size limit is not set. Defaulting to    200
  By default, will store active basis functions for each batch.
  If in need of memory, prune_basis_once .false. can be used to disable this option.
  communication_type for Hartree potential was not specified.
  Defaulting to calc_hartree .
  Pulay mixer: Number of initial linear mixing iterations not set.
  Defaulting to    0 iterations.
  Work space size for distributed Hartree potential not set.
  Defaulting to   0.200000E+03 MB.
  Algorithm-dependent basis array size parameters:
  | n_max_pulay                         :       10
  Geometry relaxation not requested: no relaxation will be performed.
  Handling of forces: Unphysical translation and rotation will be removed from forces.
  No accuracy limit for integral partition fn. given. Defaulting to 0.1000E-14.
  No threshold value for u(r) in integrations given. Defaulting to 0.1000E-05.
  No accuracy for occupation numbers given. Defaulting to 0.1000E-07.
  No threshold value for occupation numbers given. Defaulting to 0.0000E+00.
  No accuracy for fermi level given. Defaulting to 0.1000E-19.
  Maximum # of iterations to find E_F not set. Defaulting to  200.
  Will not use alltoall communication since running on < 1024 CPUs.
  Partitioning for Hartree potential was not defined. Using partition_type for integrals.
  | Reporting present value of keyword multip_moments_threshold  :       0.10000000E-09
  | This value may affect high angular momentum components of the Hartree potential in periodic systems.
  No q(lm)/r^(l+1) cutoff set for long-range Hartree potential.
  | Using default value of  0.100000E-09 .
  | Verify using the multipole_threshold keyword.
  Defaulting to new monopole extrapolation.
  Density update method: Loop over occupied states selected for charge density update.
------------------------------------------------------------


------------------------------------------------------------
          Reading geometry description geometry.in.
------------------------------------------------------------
  Input structure read successfully.
  The structure contains       15 atoms,  and a total of         50.000 electrons.

  Input geometry:
  | No unit cell requested.
  | Atomic structure:
  |       Atom                x [A]            y [A]            z [A]
  |    1: Species O             -4.053030         0.065001        -1.525160
  |    2: Species H             -4.566710         0.974813        -1.912820
  |    3: Species H             -3.067820         0.330172        -1.477310
  |    4: Species O             -4.581760        -0.256435         0.939478
  |    5: Species H             -4.349860         0.471090         1.504340
  |    6: Species H             -5.393870        -0.726611         1.228070
  |    7: Species O             -1.645860         0.870179        -1.502250
  |    8: Species H             -1.568890         1.501730        -0.721051
  |    9: Species H             -0.824432         0.282220        -1.377720
  |   10: Species O             -1.975360         2.858040         0.453140
  |   11: Species H             -1.223550         3.375850         0.786238
  |   12: Species H             -2.537520         2.567960         1.156120
  |   13: Species O             -4.066610         4.258280        -0.900064
  |   14: Species H             -3.224110         3.876870        -0.569443
  |   15: Species H             -3.737450         5.116530        -1.322720
  |

  | The smallest distance between any two atoms is         0.94570141 AA.
  |
  | The first atom of this pair is atom number                     10 .
  | The second atom of this pair is atom number                    12 .

  Structure-dependent array size parameters: 
  | Maximum number of distinct radial functions  :       18
  | Maximum number of basis functions            :      345
  | Number of Kohn-Sham states (occupied + empty):       85
------------------------------------------------------------

------------------------------------------------------------
          Preparing all fixed parts of the calculation.
------------------------------------------------------------
  Determining machine precision:
    2.225073858507201E-308
  Setting up grids for atomic and cluster calculations.

  Creating wave function, potential, and density for free atoms.

  Species: H

  List of occupied orbitals and eigenvalues:
    n    l              occ      energy [Ha]    energy [eV]
    1    0           1.0000        -0.241408        -6.5691


  Species: O

  List of occupied orbitals and eigenvalues:
    n    l              occ      energy [Ha]    energy [eV]
    1    0           2.0000       -18.944147      -515.4965
    2    0           2.0000        -0.883529       -24.0421
    2    1           4.0000        -0.330176        -8.9845

  Creating fixed part of basis set: Ionic, confined, hydrogenic.
 
  H                    hydrogenic:
 
  List of hydrogenic basis orbitals: 
    n    l      effective z      eigenvalue [eV]  inner max. [A]     outer max. [A]     outer radius [A]   
    2    0         2.100000       -14.9965           0.193241           1.317192           5.372934
    2    1         3.500000       -41.6672           0.602363           0.602363           4.056010
    1    0         0.850000        -9.8292           0.624864           0.624864           5.372934
    2    1         3.700000       -46.5653           0.573616           0.573616           3.909951
    2    0         1.200000        -4.5995           0.334977           2.228160           5.505921
    3    2         7.000000       -74.0753           0.680692           0.680692           3.769152
 
 
  O                    hydrogenic:
 
  List of hydrogenic basis orbitals: 
    n    l      effective z      eigenvalue [eV]  inner max. [A]     outer max. [A]     outer radius [A]   
    2    1         1.800000       -11.0118           1.178546           1.178546           5.432516
    3    2         7.600000       -87.3182           0.624117           0.624117           3.541422
    3    0         6.400000       -61.9209           0.061166           1.081887           4.306510
    4    3        11.600000      -114.4238           0.731621           0.731621           3.584982
    3    1         6.200000       -58.1113           0.255677           1.030255           4.306510
    3    2         5.600000       -47.4081           0.847222           0.847222           4.413102
    5    4        17.600000      -168.5799           0.749730           0.749730           3.372413
    1    0         0.750000        -7.6499           0.705275           0.705275           5.366508
 

  Adding cutoff potential to free-atom effective potential.
  Creating atomic-like basis functions for current effective potential.

  Species H                   :

  List of atomic basis orbitals and eigenvalues:
    n    l      energy [Ha]    energy [eV]    outer radius [A]
    1    0        -0.241374        -6.5681       5.372934


  Species O                   :

  List of atomic basis orbitals and eigenvalues:
    n    l      energy [Ha]    energy [eV]    outer radius [A]
    1    0       -18.944147      -515.4965       1.415745
    2    0        -0.883529       -24.0421       5.048305
    2    1        -0.330173        -8.9845       5.301302

  Assembling full basis from fixed parts.
  | Species H :   atomic orbital   1 s accepted.
  | Species H :    hydro orbital   2 s accepted.
  | Species H :    hydro orbital   1 s accepted.
  | Species H :    hydro orbital   2 s accepted.
  | Species H :    hydro orbital   2 p accepted.
  | Species H :    hydro orbital   2 p accepted.
  | Species H :    hydro orbital   3 d accepted.
  | Species O :   atomic orbital   1 s accepted.
  | Species O :    hydro orbital   3 s accepted.
  | Species O :   atomic orbital   2 s accepted.
  | Species O :    hydro orbital   1 s accepted.
  | Species O :    hydro orbital   3 p accepted.
  | Species O :   atomic orbital   2 p accepted.
  | Species O :    hydro orbital   2 p accepted.
  | Species O :    hydro orbital   3 d accepted.
  | Species O :    hydro orbital   3 d accepted.
  | Species O :    hydro orbital   4 f accepted.
  | Species O :    hydro orbital   5 g accepted.
 
  Basis size parameters after reduction:
  | Total number of radial functions:       18
  | Total number of basis functions :      345
 
  Testing on-site integration grid accuracy.
  |  Species  Function  <phi|h_atom|phi> (log., in eV)  <phi|h_atom|phi> (rad., in eV)
           1        1                 -6.5683835025                 -6.5684759159
           1        2                 13.3711789951                 13.3708738703
           1        3                 23.6590910787                 23.6532055418
           1        4                 16.2963827186                 16.1870710655 ***
           1        5                 28.7627214838                 28.7627215090
           1        6                 59.5965249172                 59.5965950857
           1        7                 60.2220506392                 60.2220503827
           2        8               -515.4964576505               -515.4964530710
           2        9                 15.3030791347                 15.3030722972
           2       10                -21.7296094581                -21.7296135470
           2       11                 14.2969371730                 14.2969701621
           2       12                 21.0679693190                 21.0679697493
           2       13                 -2.3833606469                 -2.3833613176
           2       14                 13.7067136422                 13.7066766629
           2       15                 45.8013116808                 45.8013116965
           2       16                 52.2309815402                 52.2309831494
           2       17                 85.4120732416                 85.4120732763
           2       18                142.1019167745                142.1019167817
 * Note: Onsite integrals marked "***" above are less accurate than
 * onsite_accuracy_threshold =    0.03000 eV. Usually, this is harmless.
 * When in doubt, tighten the "radial" and/or "radial_multiplier" flags to check.

  Preparing densities etc. for the partition functions (integrals / Hartree potential).

  Preparations completed.
  max(cpu_time)          :      0.172 s.
  Wall clock time (cpu1) :      0.510 s.
------------------------------------------------------------

------------------------------------------------------------
          Begin self-consistency loop: Initialization.

          Date     :  20150727, Time     :  120346.637
------------------------------------------------------------

  Initializing index lists of integration centers etc. from given atomic structure:
  | Number of centers in hartree potential         :        15
  | Number of centers in hartree multipole         :        15
  | Number of centers in electron density summation:        15
  | Number of centers in basis integrals           :        15
  | Number of centers in integrals                 :        15
  Partitioning the integration grid into batches with parallel hashing+maxmin method.
  | Number of batches:     2084
  | Maximal batch size:     200
  | Minimal batch size:      49
  | Average batch size:      94.391
  | Standard deviation of batch sizes:      28.365

  Integration load balanced across     8 MPI tasks.
  Work distribution over tasks is as follows:
  Task     0 has      24586 integration points.
  Task     1 has      24604 integration points.
  Task     2 has      24602 integration points.
  Task     3 has      24647 integration points.
  Task     4 has      24576 integration points.
  Task     5 has      24534 integration points.
  Task     6 has      24585 integration points.
  Task     7 has      24576 integration points.
  Initializing partition tables, free-atom densities, potentials, etc. across the integration grid (initialize_grid_storage).
  | Net number of integration points:   196710
  | of which are non-zero points    :   196146
  Obtaining max. number of non-zero basis functions in each batch (get_n_compute_maxes).
  | Maximal number of non-zero basis functions:      342 in task     0
  | Maximal number of non-zero basis functions:      341 in task     1
  | Maximal number of non-zero basis functions:      342 in task     2
  | Maximal number of non-zero basis functions:      342 in task     3
  | Maximal number of non-zero basis functions:      342 in task     4
  | Maximal number of non-zero basis functions:      342 in task     5
  | Maximal number of non-zero basis functions:      342 in task     6
  | Maximal number of non-zero basis functions:      342 in task     7
  Integrating Hamiltonian matrix: batch-based integration.
  Time summed over all CPUs for integration: real work        7.454 s, elapsed        7.600 s
  Integrating overlap matrix.
  Time summed over all CPUs for integration: real work        4.034 s, elapsed        4.101 s

  Updating Kohn-Sham eigenvalues, eigenvectors, occupation numbers, and Fermi level.
  Solving generalized eigenproblem
  Updating Kohn-Sham eigenvalues and eigenfunctions.
  Transforming overlap matrix and checking for singularities.
  Overlap matrix is nonsingular:
  | Lowest eigenvalue:  0.294538E-03
  Solving real generalised eigenvalue problem by standard LAPACK (fast)
  Determining occupation numbers for Kohn-Sham eigenstates.
  | Chemical potential (Fermi level) in eV                 : -.33722440E+01
  | Error in electron count due to remaining E_F inaccuracy: 0.00000000E+00
  | Maximum occupation number of highest empty state:  0.00E+00

  Writing Kohn-Sham eigenvalues.

  State    Occupation    Eigenvalue [Ha]    Eigenvalue [eV]
      1       2.00000         -19.059393         -518.63247
      2       2.00000         -19.051954         -518.43004
      3       2.00000         -19.042531         -518.17363
      4       2.00000         -19.040124         -518.10814
      5       2.00000         -19.019706         -517.55254
      6       2.00000          -1.111615          -30.24859
      7       2.00000          -1.098594          -29.89425
      8       2.00000          -1.086638          -29.56894
      9       2.00000          -1.082932          -29.46807
     10       2.00000          -1.042042          -28.35542
     11       2.00000          -0.651982          -17.74133
     12       2.00000          -0.644480          -17.53718
     13       2.00000          -0.609700          -16.59077
     14       2.00000          -0.605953          -16.48882
     15       2.00000          -0.590596          -16.07094
     16       2.00000          -0.523428          -14.24319
     17       2.00000          -0.512776          -13.95334
     18       2.00000          -0.503150          -13.69142
     19       2.00000          -0.498290          -13.55917
     20       2.00000          -0.470098          -12.79203
     21       2.00000          -0.447737          -12.18353
     22       2.00000          -0.439670          -11.96403
     23       2.00000          -0.430749          -11.72127
     24       2.00000          -0.426724          -11.61176
     25       2.00000          -0.402581          -10.95477
     26       0.00000          -0.099961           -2.72009
     27       0.00000          -0.066835           -1.81866
     28       0.00000          -0.062245           -1.69378
     29       0.00000          -0.057282           -1.55871
     30       0.00000          -0.037053           -1.00827
     31       0.00000          -0.013684           -0.37236
     32       0.00000           0.031410            0.85470
     33       0.00000           0.040184            1.09347
     34       0.00000           0.041286            1.12345
     35       0.00000           0.050189            1.36571
     36       0.00000           0.068689            1.86913
     37       0.00000           0.080468            2.18965
     38       0.00000           0.086701            2.35926
     39       0.00000           0.092912            2.52828
     40       0.00000           0.097059            2.64112
     41       0.00000           0.105264            2.86438
     42       0.00000           0.112162            3.05210
     43       0.00000           0.114383            3.11253
     44       0.00000           0.122736            3.33983
     45       0.00000           0.136244            3.70740
     46       0.00000           0.142970            3.89040
     47       0.00000           0.148978            4.05390
     48       0.00000           0.157363            4.28208
     49       0.00000           0.167143            4.54820
     50       0.00000           0.175041            4.76312
     51       0.00000           0.194677            5.29742
     52       0.00000           0.224008            6.09556
     53       0.00000           0.243929            6.63764
     54       0.00000           0.246809            6.71602
     55       0.00000           0.254269            6.91900
     56       0.00000           0.264601            7.20017
     57       0.00000           0.285715            7.77471
     58       0.00000           0.300967            8.18973
     59       0.00000           0.306720            8.34629
     60       0.00000           0.335015            9.11623
     61       0.00000           0.339498            9.23822
     62       0.00000           0.362219            9.85648
     63       0.00000           0.374936           10.20253
     64       0.00000           0.383546           10.43682
     65       0.00000           0.387235           10.53721
     66       0.00000           0.393751           10.71451
     67       0.00000           0.406427           11.05943
     68       0.00000           0.426720           11.61166
     69       0.00000           0.431883           11.75215
     70       0.00000           0.443220           12.06062
     71       0.00000           0.447719           12.18305
     72       0.00000           0.471595           12.83277
     73       0.00000           0.475190           12.93059
     74       0.00000           0.497613           13.54075
     75       0.00000           0.509356           13.86029
     76       0.00000           0.526565           14.32855
     77       0.00000           0.551710           15.01280
     78       0.00000           0.568302           15.46428
     79       0.00000           0.569939           15.50882
     80       0.00000           0.592908           16.13386
     81       0.00000           0.647749           17.62614
     82       0.00000           0.673113           18.31634
     83       0.00000           0.693838           18.88029
     84       0.00000           0.705061           19.18568
     85       0.00000           0.753192           20.49540

  Highest occupied state (VBM) at    -10.95477418 eV
  | Occupation number:      2.00000000

  Lowest unoccupied state (CBM) at    -2.72008559 eV
  | Occupation number:      0.00000000

  Overall HOMO-LUMO gap:      8.23468859 eV.
  Calculating total energy contributions from superposition of free atom densities.

  Total energy components:
  | Sum of eigenvalues            :        -216.78688367 Ha       -5899.07124602 eV
  | XC energy correction          :         -45.55055357 Ha       -1239.49362736 eV
  | XC potential correction       :          58.20232417 Ha        1583.76582176 eV
  | Free-atom electrostatic energy:        -178.94153180 Ha       -4869.24682480 eV
  | Hartree energy correction     :           0.00000000 Ha           0.00000000 eV
  | van der Waals energy corr.    :           0.00000000 Ha           0.00000000 eV
  | Entropy correction            :           0.00000000 Ha           0.00000000 eV
  | ---------------------------
  | Total energy                  :        -383.07664487 Ha      -10424.04587642 eV
  | Total energy, T -> 0          :        -383.07664487 Ha      -10424.04587642 eV  <-- do not rely on this value for anything but (periodic) metals
  | Electronic free energy        :        -383.07664487 Ha      -10424.04587642 eV

  Derived energy quantities:
  | Kinetic energy                :         379.12150211 Ha       10316.42096600 eV
  | Electrostatic energy          :        -716.64759340 Ha      -19500.97321506 eV
  | Energy correction for multipole
  | error in Hartree potential    :           0.00000000 Ha           0.00000000 eV
  | Sum of eigenvalues per atom                           :        -393.27141640 eV
  | Total energy (T->0) per atom                          :        -694.93639176 eV  <-- do not rely on this value for anything but (periodic) metals
  | Electronic free energy per atom                       :        -694.93639176 eV
  Initialize hartree_potential_storage
  Max. number of atoms included in rho_multipole:           15

  End scf initialization - timings             :  max(cpu_time)    wall_clock(cpu1)
  | Time for scf. initialization               :        2.023 s           2.023 s
  | Boundary condition initialization          :        0.000 s           0.001 s
  | Integration                                :        1.466 s           1.466 s
  | Solution of K.-S. eqns.                    :        0.197 s           0.197 s
  | Grid partitioning                          :        0.144 s           0.144 s
  | Preloading free-atom quantities on grid    :        0.014 s           0.013 s
  | Free-atom superposition energy             :        0.066 s           0.066 s
  | Total energy evaluation                    :        0.000 s           0.000 s
------------------------------------------------------------

------------------------------------------------------------
          Begin self-consistency iteration #    1

  Date     :  20150727, Time     :  120348.661
------------------------------------------------------------
  Evaluating new KS density.
  Integration grid: deviation in total charge (<rho> - N_e) =   1.421085E-14
  Pulay mixing of updated and previous charge densities.

  Evaluating partitioned Hartree potential by multipole expansion.
  | Analytical far-field extrapolation by fixed multipoles:
  | Hartree multipole sum: apparent total charge =  -0.176293E-05
  Summing up the Hartree potential.
  Time summed over all CPUs for potential: real work        2.567 s, elapsed        2.573 s
  | RMS charge density error from multipole expansion :   0.162303E-02

  Integrating Hamiltonian matrix: batch-based integration.
  Time summed over all CPUs for integration: real work        7.455 s, elapsed        7.614 s

  Updating Kohn-Sham eigenvalues, eigenvectors, occupation numbers, and Fermi level.
  Solving generalized eigenproblem
  Updating Kohn-Sham eigenvalues and eigenfunctions.
  Solving real generalised eigenvalue problem by standard LAPACK (fast)
  Determining occupation numbers for Kohn-Sham eigenstates.
  | Chemical potential (Fermi level) in eV                 : -.29845349E+01
  | Error in electron count due to remaining E_F inaccuracy: 0.00000000E+00
  | Maximum occupation number of highest empty state:  0.00E+00

  Writing Kohn-Sham eigenvalues.

  State    Occupation    Eigenvalue [Ha]    Eigenvalue [eV]
      1       2.00000         -18.994396         -516.86380
      2       2.00000         -18.972570         -516.26989
      3       2.00000         -18.966340         -516.10037
      4       2.00000         -18.961145         -515.95899
      5       2.00000         -18.929343         -515.09364
      6       2.00000          -1.082841          -29.46561
      7       2.00000          -1.054724          -28.70051
      8       2.00000          -1.050872          -28.59567
      9       2.00000          -1.043165          -28.38595
     10       2.00000          -0.991552          -26.98151
     11       2.00000          -0.628092          -17.09126
     12       2.00000          -0.606697          -16.50906
     13       2.00000          -0.579714          -15.77483
     14       2.00000          -0.572235          -15.57132
     15       2.00000          -0.550455          -14.97866
     16       2.00000          -0.488426          -13.29074
     17       2.00000          -0.475865          -12.94893
     18       2.00000          -0.463735          -12.61886
     19       2.00000          -0.455470          -12.39397
     20       2.00000          -0.425236          -11.57125
     21       2.00000          -0.415412          -11.30394
     22       2.00000          -0.394429          -10.73295
     23       2.00000          -0.388536          -10.57259
     24       2.00000          -0.385039          -10.47744
     25       2.00000          -0.349856           -9.52006
     26       0.00000          -0.091396           -2.48700
     27       0.00000          -0.054470           -1.48219
     28       0.00000          -0.053694           -1.46108
     29       0.00000          -0.048943           -1.33181
     30       0.00000          -0.028228           -0.76814
     31       0.00000          -0.007958           -0.21654
     32       0.00000           0.041719            1.13522
     33       0.00000           0.046971            1.27815
     34       0.00000           0.051625            1.40478
     35       0.00000           0.058056            1.57980
     36       0.00000           0.078858            2.14583
     37       0.00000           0.089249            2.42858
     38       0.00000           0.096446            2.62444
     39       0.00000           0.102996            2.80267
     40       0.00000           0.109373            2.97619
     41       0.00000           0.112538            3.06233
     42       0.00000           0.120156            3.26960
     43       0.00000           0.123713            3.36641
     44       0.00000           0.134602            3.66271
     45       0.00000           0.145545            3.96049
     46       0.00000           0.156334            4.25407
     47       0.00000           0.158977            4.32598
     48       0.00000           0.166959            4.54318
     49       0.00000           0.178685            4.86228
     50       0.00000           0.188730            5.13561
     51       0.00000           0.209768            5.70809
     52       0.00000           0.235932            6.42003
     53       0.00000           0.252312            6.86576
     54       0.00000           0.258098            7.02321
     55       0.00000           0.262126            7.13282
     56       0.00000           0.274954            7.48189
     57       0.00000           0.296906            8.07924
     58       0.00000           0.310813            8.45764
     59       0.00000           0.315934            8.59701
     60       0.00000           0.345857            9.41126
     61       0.00000           0.349050            9.49814
     62       0.00000           0.369795           10.06263
     63       0.00000           0.384183           10.45416
     64       0.00000           0.393119           10.69732
     65       0.00000           0.398391           10.84077
     66       0.00000           0.403651           10.98391
     67       0.00000           0.417125           11.35054
     68       0.00000           0.437149           11.89542
     69       0.00000           0.441953           12.02615
     70       0.00000           0.453922           12.35184
     71       0.00000           0.458996           12.48992
     72       0.00000           0.480757           13.08207
     73       0.00000           0.486018           13.22522
     74       0.00000           0.509597           13.86685
     75       0.00000           0.521222           14.18317
     76       0.00000           0.538446           14.65185
     77       0.00000           0.563511           15.33392
     78       0.00000           0.580658           15.80050
     79       0.00000           0.585569           15.93415
     80       0.00000           0.607493           16.53071
     81       0.00000           0.660730           17.97938
     82       0.00000           0.684603           18.62898
     83       0.00000           0.710232           19.32641
     84       0.00000           0.720689           19.61094
     85       0.00000           0.765089           20.81914

  Highest occupied state (VBM) at     -9.52005538 eV
  | Occupation number:      2.00000000

  Lowest unoccupied state (CBM) at    -2.48700482 eV
  | Occupation number:      0.00000000

  Overall HOMO-LUMO gap:      7.03305056 eV.

  Total energy components:
  | Sum of eigenvalues            :        -214.45228487 Ha       -5835.54358050 eV
  | XC energy correction          :         -45.79391361 Ha       -1246.11579104 eV
  | XC potential correction       :          58.52074278 Ha        1592.43043294 eV
  | Free-atom electrostatic energy:        -178.94153180 Ha       -4869.24682480 eV
  | Hartree energy correction     :          -2.25911906 Ha         -61.47375732 eV
  | van der Waals energy corr.    :           0.00000000 Ha           0.00000000 eV
  | Entropy correction            :           0.00000000 Ha           0.00000000 eV
  | ---------------------------
  | Total energy                  :        -382.92610656 Ha      -10419.94952071 eV
  | Total energy, T -> 0          :        -382.92610656 Ha      -10419.94952071 eV  <-- do not rely on this value for anything but (periodic) metals
  | Electronic free energy        :        -382.92610656 Ha      -10419.94952071 eV

  Derived energy quantities:
  | Kinetic energy                :         380.57038520 Ha       10355.84708095 eV
  | Electrostatic energy          :        -717.70257815 Ha      -19529.68081062 eV
  | Energy correction for multipole
  | error in Hartree potential    :          -0.00000253 Ha          -0.00006894 eV
  | Sum of eigenvalues per atom                           :        -389.03623870 eV
  | Total energy (T->0) per atom                          :        -694.66330138 eV  <-- do not rely on this value for anything but (periodic) metals
  | Electronic free energy per atom                       :        -694.66330138 eV

  Self-consistency convergence accuracy:
  | Change of charge density      : 0.6680E+00
  | Change of sum of eigenvalues  : 0.6353E+02 eV
  | Change of total energy        : 0.4096E+01 eV

  End self-consistency iteration #     1       :  max(cpu_time)    wall_clock(cpu1)
  | Time for this iteration                    :        1.985 s           1.984 s
  | Charge density update                      :        0.645 s           0.645 s
  | Density mixing                             :        0.003 s           0.003 s
  | Hartree multipole update                   :        0.004 s           0.005 s
  | Hartree multipole summation                :        0.323 s           0.323 s
  | Integration                                :        0.954 s           0.953 s
  | Solution of K.-S. eqns.                    :        0.054 s           0.054 s
  | Total energy evaluation                    :        0.000 s           0.000 s
------------------------------------------------------------

------------------------------------------------------------
          Begin self-consistency iteration #    2

  Date     :  20150727, Time     :  120350.645
------------------------------------------------------------
  Evaluating new KS density.
  Integration grid: deviation in total charge (<rho> - N_e) =   2.842171E-14
  Pulay mixing of updated and previous charge densities.

  Evaluating partitioned Hartree potential by multipole expansion.
  | Analytical far-field extrapolation by fixed multipoles:
  | Hartree multipole sum: apparent total charge =  -0.480668E-05
  Summing up the Hartree potential.
  Time summed over all CPUs for potential: real work        2.566 s, elapsed        2.573 s
  | RMS charge density error from multipole expansion :   0.645288E-02

  Integrating Hamiltonian matrix: batch-based integration.
  Time summed over all CPUs for integration: real work        7.446 s, elapsed        7.601 s

  Updating Kohn-Sham eigenvalues, eigenvectors, occupation numbers, and Fermi level.
  Solving generalized eigenproblem
  Updating Kohn-Sham eigenvalues and eigenfunctions.
  Solving real generalised eigenvalue problem by standard LAPACK (fast)
  Determining occupation numbers for Kohn-Sham eigenstates.
  | Chemical potential (Fermi level) in eV                 : -.33124639E+01
  | Error in electron count due to remaining E_F inaccuracy: 0.00000000E+00
  | Maximum occupation number of highest empty state:  0.00E+00

  Highest occupied state (VBM) at     -6.13491841 eV
  | Occupation number:      2.00000000

  Lowest unoccupied state (CBM) at    -2.06461187 eV
  | Occupation number:      0.00000000

  Overall HOMO-LUMO gap:      4.07030654 eV.

  Total energy components:
  | Sum of eigenvalues            :        -209.00657409 Ha       -5687.35825068 eV
  | XC energy correction          :         -46.38660434 Ha       -1262.24372629 eV
  | XC potential correction       :          59.29550366 Ha        1613.51274910 eV
  | Free-atom electrostatic energy:        -178.94153180 Ha       -4869.24682480 eV
  | Hartree energy correction     :          -7.71394123 Ha        -209.90702070 eV
  | van der Waals energy corr.    :           0.00000000 Ha           0.00000000 eV
  | Entropy correction            :           0.00000000 Ha           0.00000000 eV
  | ---------------------------
  | Total energy                  :        -382.75314780 Ha      -10415.24307336 eV
  | Total energy, T -> 0          :        -382.75314780 Ha      -10415.24307336 eV  <-- do not rely on this value for anything but (periodic) metals
  | Electronic free energy        :        -382.75314780 Ha      -10415.24307336 eV

  Derived energy quantities:
  | Kinetic energy                :         383.43865620 Ha       10433.89670607 eV
  | Electrostatic energy          :        -719.80519966 Ha      -19586.89605314 eV
  | Energy correction for multipole
  | error in Hartree potential    :          -0.00077222 Ha          -0.02101311 eV
  | Sum of eigenvalues per atom                           :        -379.15721671 eV
  | Total energy (T->0) per atom                          :        -694.34953822 eV  <-- do not rely on this value for anything but (periodic) metals
  | Electronic free energy per atom                       :        -694.34953822 eV

  Self-consistency convergence accuracy:
  | Change of charge density      : 0.5047E+00
  | Change of sum of eigenvalues  : 0.1482E+03 eV
  | Change of total energy        : 0.4706E+01 eV

  End self-consistency iteration #     2       :  max(cpu_time)    wall_clock(cpu1)
  | Time for this iteration                    :        1.980 s           1.981 s
  | Charge density update                      :        0.641 s           0.641 s
  | Density mixing                             :        0.005 s           0.005 s
  | Hartree multipole update                   :        0.005 s           0.005 s
  | Hartree multipole summation                :        0.323 s           0.322 s
  | Integration                                :        0.952 s           0.952 s
  | Solution of K.-S. eqns.                    :        0.054 s           0.054 s
  | Total energy evaluation                    :        0.000 s           0.001 s
------------------------------------------------------------

------------------------------------------------------------
          Begin self-consistency iteration #    3

  Date     :  20150727, Time     :  120352.626
------------------------------------------------------------
  Evaluating new KS density.
  Integration grid: deviation in total charge (<rho> - N_e) =  -2.131628E-14
  Pulay mixing of updated and previous charge densities.

  Evaluating partitioned Hartree potential by multipole expansion.
  | Analytical far-field extrapolation by fixed multipoles:
  | Hartree multipole sum: apparent total charge =  -0.382737E-05
  Summing up the Hartree potential.
  Time summed over all CPUs for potential: real work        2.567 s, elapsed        2.573 s
  | RMS charge density error from multipole expansion :   0.132231E-01

  Integrating Hamiltonian matrix: batch-based integration.
  Time summed over all CPUs for integration: real work        7.444 s, elapsed        7.580 s

  Updating Kohn-Sham eigenvalues, eigenvectors, occupation numbers, and Fermi level.
  Solving generalized eigenproblem
  Updating Kohn-Sham eigenvalues and eigenfunctions.
  Solving real generalised eigenvalue problem by standard LAPACK (fast)
  Determining occupation numbers for Kohn-Sham eigenstates.
  | Chemical potential (Fermi level) in eV                 : -.31596775E+01
  | Error in electron count due to remaining E_F inaccuracy: 0.00000000E+00
  | Maximum occupation number of highest empty state:  0.00E+00

  Highest occupied state (VBM) at     -5.99776920 eV
  | Occupation number:      2.00000000

  Lowest unoccupied state (CBM) at    -2.07965204 eV
  | Occupation number:      0.00000000

  Overall HOMO-LUMO gap:      3.91811716 eV.

  Total energy components:
  | Sum of eigenvalues            :        -209.27149394 Ha       -5694.56708644 eV
  | XC energy correction          :         -46.35757766 Ha       -1261.45387025 eV
  | XC potential correction       :          59.25213026 Ha        1612.33249886 eV
  | Free-atom electrostatic energy:        -178.94153180 Ha       -4869.24682480 eV
  | Hartree energy correction     :          -7.42911320 Ha        -202.15645576 eV
  | van der Waals energy corr.    :           0.00000000 Ha           0.00000000 eV
  | Entropy correction            :           0.00000000 Ha           0.00000000 eV
  | ---------------------------
  | Total energy                  :        -382.74758634 Ha      -10415.09173839 eV
  | Total energy, T -> 0          :        -382.74758634 Ha      -10415.09173839 eV  <-- do not rely on this value for anything but (periodic) metals
  | Electronic free energy        :        -382.74758634 Ha      -10415.09173839 eV

  Derived energy quantities:
  | Kinetic energy                :         381.34451445 Ha       10376.91220959 eV
  | Electrostatic energy          :        -717.73452313 Ha      -19530.55007773 eV
  | Energy correction for multipole
  | error in Hartree potential    :          -0.00500764 Ha          -0.13626480 eV
  | Sum of eigenvalues per atom                           :        -379.63780576 eV
  | Total energy (T->0) per atom                          :        -694.33944923 eV  <-- do not rely on this value for anything but (periodic) metals
  | Electronic free energy per atom                       :        -694.33944923 eV

  Self-consistency convergence accuracy:
  | Change of charge density      : 0.2562E+00
  | Change of sum of eigenvalues  : -.7209E+01 eV
  | Change of total energy        : 0.1513E+00 eV

  End self-consistency iteration #     3       :  max(cpu_time)    wall_clock(cpu1)
  | Time for this iteration                    :        1.976 s           1.975 s
  | Charge density update                      :        0.638 s           0.638 s
  | Density mixing                             :        0.007 s           0.007 s
  | Hartree multipole update                   :        0.005 s           0.005 s
  | Hartree multipole summation                :        0.323 s           0.322 s
  | Integration                                :        0.949 s           0.949 s
  | Solution of K.-S. eqns.                    :        0.054 s           0.054 s
  | Total energy evaluation                    :        0.000 s           0.000 s
------------------------------------------------------------

------------------------------------------------------------
          Begin self-consistency iteration #    4

  Date     :  20150727, Time     :  120354.602
------------------------------------------------------------
  Evaluating new KS density.
  Integration grid: deviation in total charge (<rho> - N_e) =   0.000000E+00
  Pulay mixing of updated and previous charge densities.

  Evaluating partitioned Hartree potential by multipole expansion.
  | Analytical far-field extrapolation by fixed multipoles:
  | Hartree multipole sum: apparent total charge =  -0.447513E-05
  Summing up the Hartree potential.
  Time summed over all CPUs for potential: real work        2.565 s, elapsed        2.572 s
  | RMS charge density error from multipole expansion :   0.169305E-01

  Integrating Hamiltonian matrix: batch-based integration.
  Time summed over all CPUs for integration: real work        7.426 s, elapsed        7.568 s

  Updating Kohn-Sham eigenvalues, eigenvectors, occupation numbers, and Fermi level.
  Solving generalized eigenproblem
  Updating Kohn-Sham eigenvalues and eigenfunctions.
  Solving real generalised eigenvalue problem by standard LAPACK (fast)
  Determining occupation numbers for Kohn-Sham eigenstates.
  | Chemical potential (Fermi level) in eV                 : -.27893089E+01
  | Error in electron count due to remaining E_F inaccuracy: 0.00000000E+00
  | Maximum occupation number of highest empty state:  0.00E+00

  Highest occupied state (VBM) at     -4.82817286 eV
  | Occupation number:      2.00000000

  Lowest unoccupied state (CBM) at    -2.00011000 eV
  | Occupation number:      0.00000000

  Overall HOMO-LUMO gap:      2.82806286 eV.

  Total energy components:
  | Sum of eigenvalues            :        -207.62227660 Ha       -5649.68959931 eV
  | XC energy correction          :         -46.55664327 Ha       -1266.87072102 eV
  | XC potential correction       :          59.51150426 Ha        1619.39042452 eV
  | Free-atom electrostatic energy:        -178.94153180 Ha       -4869.24682480 eV
  | Hartree energy correction     :          -9.12556422 Ha        -248.31923681 eV
  | van der Waals energy corr.    :           0.00000000 Ha           0.00000000 eV
  | Entropy correction            :           0.00000000 Ha           0.00000000 eV
  | ---------------------------
  | Total energy                  :        -382.73451163 Ha      -10414.73595741 eV
  | Total energy, T -> 0          :        -382.73451163 Ha      -10414.73595741 eV  <-- do not rely on this value for anything but (periodic) metals
  | Electronic free energy        :        -382.73451163 Ha      -10414.73595741 eV

  Derived energy quantities:
  | Kinetic energy                :         381.56533680 Ha       10382.92109143 eV
  | Electrostatic energy          :        -717.74320516 Ha      -19530.78632783 eV
  | Energy correction for multipole
  | error in Hartree potential    :          -0.00668009 Ha          -0.18177463 eV
  | Sum of eigenvalues per atom                           :        -376.64597329 eV
  | Total energy (T->0) per atom                          :        -694.31573049 eV  <-- do not rely on this value for anything but (periodic) metals
  | Electronic free energy per atom                       :        -694.31573049 eV

  Self-consistency convergence accuracy:
  | Change of charge density      : 0.1429E+00
  | Change of sum of eigenvalues  : 0.4488E+02 eV
  | Change of total energy        : 0.3558E+00 eV

  End self-consistency iteration #     4       :  max(cpu_time)    wall_clock(cpu1)
  | Time for this iteration                    :        1.977 s           1.976 s
  | Charge density update                      :        0.639 s           0.638 s
  | Density mixing                             :        0.009 s           0.009 s
  | Hartree multipole update                   :        0.004 s           0.004 s
  | Hartree multipole summation                :        0.323 s           0.323 s
  | Integration                                :        0.948 s           0.947 s
  | Solution of K.-S. eqns.                    :        0.054 s           0.055 s
  | Total energy evaluation                    :        0.000 s           0.000 s
------------------------------------------------------------

------------------------------------------------------------
          Begin self-consistency iteration #    5

  Date     :  20150727, Time     :  120356.578
------------------------------------------------------------
  Evaluating new KS density.
  Integration grid: deviation in total charge (<rho> - N_e) =  -7.105427E-15
  Pulay mixing of updated and previous charge densities.

  Evaluating partitioned Hartree potential by multipole expansion.
  | Analytical far-field extrapolation by fixed multipoles:
  | Hartree multipole sum: apparent total charge =  -0.440706E-05
  Summing up the Hartree potential.
  Time summed over all CPUs for potential: real work        2.565 s, elapsed        2.572 s
  | RMS charge density error from multipole expansion :   0.175573E-01

  Integrating Hamiltonian matrix: batch-based integration.
  Time summed over all CPUs for integration: real work        7.425 s, elapsed        7.565 s

  Updating Kohn-Sham eigenvalues, eigenvectors, occupation numbers, and Fermi level.
  Solving generalized eigenproblem
  Updating Kohn-Sham eigenvalues and eigenfunctions.
  Solving real generalised eigenvalue problem by standard LAPACK (fast)
  Determining occupation numbers for Kohn-Sham eigenstates.
  | Chemical potential (Fermi level) in eV                 : -.27451641E+01
  | Error in electron count due to remaining E_F inaccuracy: 0.00000000E+00
  | Maximum occupation number of highest empty state:  0.00E+00

  Highest occupied state (VBM) at     -4.59266814 eV
  | Occupation number:      2.00000000

  Lowest unoccupied state (CBM) at    -2.00156461 eV
  | Occupation number:      0.00000000

  Overall HOMO-LUMO gap:      2.59110353 eV.

  Total energy components:
  | Sum of eigenvalues            :        -207.48551324 Ha       -5645.96807899 eV
  | XC energy correction          :         -46.57755236 Ha       -1267.43968641 eV
  | XC potential correction       :          59.53837234 Ha        1620.12154229 eV
  | Free-atom electrostatic energy:        -178.94153180 Ha       -4869.24682480 eV
  | Hartree energy correction     :          -9.26801894 Ha        -252.19562704 eV
  | van der Waals energy corr.    :           0.00000000 Ha           0.00000000 eV
  | Entropy correction            :           0.00000000 Ha           0.00000000 eV
  | ---------------------------
  | Total energy                  :        -382.73424401 Ha      -10414.72867494 eV
  | Total energy, T -> 0          :        -382.73424401 Ha      -10414.72867494 eV  <-- do not rely on this value for anything but (periodic) metals
  | Electronic free energy        :        -382.73424401 Ha      -10414.72867494 eV

  Derived energy quantities:
  | Kinetic energy                :         381.61684022 Ha       10384.32257081 eV
  | Electrostatic energy          :        -717.77353186 Ha      -19531.61155934 eV
  | Energy correction for multipole
  | error in Hartree potential    :          -0.00688180 Ha          -0.18726344 eV
  | Sum of eigenvalues per atom                           :        -376.39787193 eV
  | Total energy (T->0) per atom                          :        -694.31524500 eV  <-- do not rely on this value for anything but (periodic) metals
  | Electronic free energy per atom                       :        -694.31524500 eV

  Self-consistency convergence accuracy:
  | Change of charge density      : 0.3226E-01
  | Change of sum of eigenvalues  : 0.3722E+01 eV
  | Change of total energy        : 0.7282E-02 eV

  End self-consistency iteration #     5       :  max(cpu_time)    wall_clock(cpu1)
  | Time for this iteration                    :        1.975 s           1.975 s
  | Charge density update                      :        0.636 s           0.636 s
  | Density mixing                             :        0.010 s           0.010 s
  | Hartree multipole update                   :        0.005 s           0.005 s
  | Hartree multipole summation                :        0.322 s           0.322 s
  | Integration                                :        0.948 s           0.947 s
  | Solution of K.-S. eqns.                    :        0.054 s           0.054 s
  | Total energy evaluation                    :        0.000 s           0.000 s
------------------------------------------------------------

------------------------------------------------------------
          Begin self-consistency iteration #    6

  Date     :  20150727, Time     :  120358.553
------------------------------------------------------------
  Evaluating new KS density.
  Integration grid: deviation in total charge (<rho> - N_e) =   1.421085E-14
  Pulay mixing of updated and previous charge densities.

  Evaluating partitioned Hartree potential by multipole expansion.
  | Analytical far-field extrapolation by fixed multipoles:
  | Hartree multipole sum: apparent total charge =  -0.438007E-05
  Summing up the Hartree potential.
  Time summed over all CPUs for potential: real work        2.565 s, elapsed        2.572 s
  | RMS charge density error from multipole expansion :   0.179070E-01

  Integrating Hamiltonian matrix: batch-based integration.
  Time summed over all CPUs for integration: real work        7.423 s, elapsed        7.562 s

  Updating Kohn-Sham eigenvalues, eigenvectors, occupation numbers, and Fermi level.
  Solving generalized eigenproblem
  Updating Kohn-Sham eigenvalues and eigenfunctions.
  Solving real generalised eigenvalue problem by standard LAPACK (fast)
  Determining occupation numbers for Kohn-Sham eigenstates.
  | Chemical potential (Fermi level) in eV                 : -.27051866E+01
  | Error in electron count due to remaining E_F inaccuracy: 0.00000000E+00
  | Maximum occupation number of highest empty state:  0.00E+00

  Highest occupied state (VBM) at     -4.52892936 eV
  | Occupation number:      2.00000000

  Lowest unoccupied state (CBM) at    -1.99551495 eV
  | Occupation number:      0.00000000

  Overall HOMO-LUMO gap:      2.53341441 eV.

  Total energy components:
  | Sum of eigenvalues            :        -207.39988833 Ha       -5643.63810674 eV
  | XC energy correction          :         -46.58973999 Ha       -1267.77132861 eV
  | XC potential correction       :          59.55409010 Ha        1620.54924424 eV
  | Free-atom electrostatic energy:        -178.94153180 Ha       -4869.24682480 eV
  | Hartree energy correction     :          -9.35729045 Ha        -254.62482821 eV
  | van der Waals energy corr.    :           0.00000000 Ha           0.00000000 eV
  | Entropy correction            :           0.00000000 Ha           0.00000000 eV
  | ---------------------------
  | Total energy                  :        -382.73436047 Ha      -10414.73184411 eV
  | Total energy, T -> 0          :        -382.73436047 Ha      -10414.73184411 eV  <-- do not rely on this value for anything but (periodic) metals
  | Electronic free energy        :        -382.73436047 Ha      -10414.73184411 eV

  Derived energy quantities:
  | Kinetic energy                :         381.63483841 Ha       10384.81232651 eV
  | Electrostatic energy          :        -717.77945889 Ha      -19531.77284202 eV
  | Energy correction for multipole
  | error in Hartree potential    :          -0.00700086 Ha          -0.19050311 eV
  | Sum of eigenvalues per atom                           :        -376.24254045 eV
  | Total energy (T->0) per atom                          :        -694.31545627 eV  <-- do not rely on this value for anything but (periodic) metals
  | Electronic free energy per atom                       :        -694.31545627 eV

  Self-consistency convergence accuracy:
  | Change of charge density      : 0.1032E-01
  | Change of sum of eigenvalues  : 0.2330E+01 eV
  | Change of total energy        : -.3169E-02 eV

  End self-consistency iteration #     6       :  max(cpu_time)    wall_clock(cpu1)
  | Time for this iteration                    :        1.980 s           1.979 s
  | Charge density update                      :        0.637 s           0.636 s
  | Density mixing                             :        0.011 s           0.011 s
  | Hartree multipole update                   :        0.004 s           0.005 s
  | Hartree multipole summation                :        0.323 s           0.322 s
  | Integration                                :        0.947 s           0.947 s
  | Solution of K.-S. eqns.                    :        0.054 s           0.058 s
  | Total energy evaluation                    :        0.000 s           0.000 s
------------------------------------------------------------

------------------------------------------------------------
          Begin self-consistency iteration #    7

  Date     :  20150727, Time     :  120400.532
------------------------------------------------------------
  Evaluating new KS density.
  Integration grid: deviation in total charge (<rho> - N_e) =   7.105427E-15
  Pulay mixing of updated and previous charge densities.

  Evaluating partitioned Hartree potential by multipole expansion.
  | Analytical far-field extrapolation by fixed multipoles:
  | Hartree multipole sum: apparent total charge =  -0.415136E-05
  Summing up the Hartree potential.
  Time summed over all CPUs for potential: real work        2.597 s, elapsed        2.754 s
  | RMS charge density error from multipole expansion :   0.178566E-01

  Integrating Hamiltonian matrix: batch-based integration.
  Time summed over all CPUs for integration: real work        7.434 s, elapsed        7.569 s

  Updating Kohn-Sham eigenvalues, eigenvectors, occupation numbers, and Fermi level.
  Solving generalized eigenproblem
  Updating Kohn-Sham eigenvalues and eigenfunctions.
  Solving real generalised eigenvalue problem by standard LAPACK (fast)
  Determining occupation numbers for Kohn-Sham eigenstates.
  | Chemical potential (Fermi level) in eV                 : -.27484447E+01
  | Error in electron count due to remaining E_F inaccuracy: 0.00000000E+00
  | Maximum occupation number of highest empty state:  0.00E+00

  Highest occupied state (VBM) at     -4.68830885 eV
  | Occupation number:      2.00000000

  Lowest unoccupied state (CBM) at    -2.00310482 eV
  | Occupation number:      0.00000000

  Overall HOMO-LUMO gap:      2.68520403 eV.

  Total energy components:
  | Sum of eigenvalues            :        -207.55333392 Ha       -5647.81357357 eV
  | XC energy correction          :         -46.57419601 Ha       -1267.34835545 eV
  | XC potential correction       :          59.53328936 Ha        1619.98322726 eV
  | Free-atom electrostatic energy:        -178.94153180 Ha       -4869.24682480 eV
  | Hartree energy correction     :          -9.19843968 Ha        -250.30227898 eV
  | van der Waals energy corr.    :           0.00000000 Ha           0.00000000 eV
  | Entropy correction            :           0.00000000 Ha           0.00000000 eV
  | ---------------------------
  | Total energy                  :        -382.73421206 Ha      -10414.72780554 eV
  | Total energy, T -> 0          :        -382.73421206 Ha      -10414.72780554 eV  <-- do not rely on this value for anything but (periodic) metals
  | Electronic free energy        :        -382.73421206 Ha      -10414.72780554 eV

  Derived energy quantities:
  | Kinetic energy                :         381.68684863 Ha       10386.22759672 eV
  | Electrostatic energy          :        -717.84686468 Ha      -19533.60704681 eV
  | Energy correction for multipole
  | error in Hartree potential    :          -0.00681376 Ha          -0.18541173 eV
  | Sum of eigenvalues per atom                           :        -376.52090490 eV
  | Total energy (T->0) per atom                          :        -694.31518704 eV  <-- do not rely on this value for anything but (periodic) metals
  | Electronic free energy per atom                       :        -694.31518704 eV

  Self-consistency convergence accuracy:
  | Change of charge density      : 0.1184E-01
  | Change of sum of eigenvalues  : -.4175E+01 eV
  | Change of total energy        : 0.4039E-02 eV

  End self-consistency iteration #     7       :  max(cpu_time)    wall_clock(cpu1)
  | Time for this iteration                    :        2.001 s           2.001 s
  | Charge density update                      :        0.636 s           0.636 s
  | Density mixing                             :        0.013 s           0.013 s
  | Hartree multipole update                   :        0.005 s           0.005 s
  | Hartree multipole summation                :        0.345 s           0.345 s
  | Integration                                :        0.948 s           0.947 s
  | Solution of K.-S. eqns.                    :        0.054 s           0.055 s
  | Total energy evaluation                    :        0.000 s           0.000 s
------------------------------------------------------------

------------------------------------------------------------
          Begin self-consistency iteration #    8

  Date     :  20150727, Time     :  120402.533
------------------------------------------------------------
  Evaluating new KS density.
  Integration grid: deviation in total charge (<rho> - N_e) =   0.000000E+00
  Pulay mixing of updated and previous charge densities.

  Evaluating partitioned Hartree potential by multipole expansion.
  | Analytical far-field extrapolation by fixed multipoles:
  | Hartree multipole sum: apparent total charge =  -0.414196E-05
  Summing up the Hartree potential.
  Time summed over all CPUs for potential: real work        2.565 s, elapsed        2.572 s
  | RMS charge density error from multipole expansion :   0.178629E-01

  Integrating Hamiltonian matrix: batch-based integration.
  Time summed over all CPUs for integration: real work        7.424 s, elapsed        7.569 s

  Updating Kohn-Sham eigenvalues, eigenvectors, occupation numbers, and Fermi level.
  Solving generalized eigenproblem
  Updating Kohn-Sham eigenvalues and eigenfunctions.
  Solving real generalised eigenvalue problem by standard LAPACK (fast)
  Determining occupation numbers for Kohn-Sham eigenstates.
  | Chemical potential (Fermi level) in eV                 : -.27568558E+01
  | Error in electron count due to remaining E_F inaccuracy: 0.00000000E+00
  | Maximum occupation number of highest empty state:  0.00E+00

  Highest occupied state (VBM) at     -4.68087081 eV
  | Occupation number:      2.00000000

  Lowest unoccupied state (CBM) at    -2.00367968 eV
  | Occupation number:      0.00000000

  Overall HOMO-LUMO gap:      2.67719112 eV.

  Total energy components:
  | Sum of eigenvalues            :        -207.55559793 Ha       -5647.87518051 eV
  | XC energy correction          :         -46.57379938 Ha       -1267.33756250 eV
  | XC potential correction       :          59.53275032 Ha        1619.96855942 eV
  | Free-atom electrostatic energy:        -178.94153180 Ha       -4869.24682480 eV
  | Hartree energy correction     :          -9.19603139 Ha        -250.23674596 eV
  | van der Waals energy corr.    :           0.00000000 Ha           0.00000000 eV
  | Entropy correction            :           0.00000000 Ha           0.00000000 eV
  | ---------------------------
  | Total energy                  :        -382.73421017 Ha      -10414.72775435 eV
  | Total energy, T -> 0          :        -382.73421017 Ha      -10414.72775435 eV  <-- do not rely on this value for anything but (periodic) metals
  | Electronic free energy        :        -382.73421017 Ha      -10414.72775435 eV

  Derived energy quantities:
  | Kinetic energy                :         381.68886419 Ha       10386.28244274 eV
  | Electrostatic energy          :        -717.84927498 Ha      -19533.67263459 eV
  | Energy correction for multipole
  | error in Hartree potential    :          -0.00681678 Ha          -0.18549399 eV
  | Sum of eigenvalues per atom                           :        -376.52501203 eV
  | Total energy (T->0) per atom                          :        -694.31518362 eV  <-- do not rely on this value for anything but (periodic) metals
  | Electronic free energy per atom                       :        -694.31518362 eV

  Self-consistency convergence accuracy:
  | Change of charge density      : 0.1795E-02
  | Change of sum of eigenvalues  : -.6161E-01 eV
  | Change of total energy        : 0.5119E-04 eV

  End self-consistency iteration #     8       :  max(cpu_time)    wall_clock(cpu1)
  | Time for this iteration                    :        1.980 s           1.980 s
  | Charge density update                      :        0.637 s           0.636 s
  | Density mixing                             :        0.014 s           0.015 s
  | Hartree multipole update                   :        0.005 s           0.004 s
  | Hartree multipole summation                :        0.322 s           0.323 s
  | Integration                                :        0.948 s           0.948 s
  | Solution of K.-S. eqns.                    :        0.054 s           0.053 s
  | Total energy evaluation                    :        0.000 s           0.000 s
------------------------------------------------------------

------------------------------------------------------------
          Begin self-consistency iteration #    9

  Date     :  20150727, Time     :  120404.513
------------------------------------------------------------
  Evaluating new KS density.
  Integration grid: deviation in total charge (<rho> - N_e) =   1.421085E-14
  Pulay mixing of updated and previous charge densities.

  Evaluating partitioned Hartree potential by multipole expansion.
  | Analytical far-field extrapolation by fixed multipoles:
  | Hartree multipole sum: apparent total charge =  -0.412073E-05
  Summing up the Hartree potential.
  Time summed over all CPUs for potential: real work        2.566 s, elapsed        2.573 s
  | RMS charge density error from multipole expansion :   0.178598E-01

  Integrating Hamiltonian matrix: batch-based integration.
  Time summed over all CPUs for integration: real work        7.424 s, elapsed        7.555 s

  Updating Kohn-Sham eigenvalues, eigenvectors, occupation numbers, and Fermi level.
  Solving generalized eigenproblem
  Updating Kohn-Sham eigenvalues and eigenfunctions.
  Solving real generalised eigenvalue problem by standard LAPACK (fast)
  Determining occupation numbers for Kohn-Sham eigenstates.
  | Chemical potential (Fermi level) in eV                 : -.27674745E+01
  | Error in electron count due to remaining E_F inaccuracy: 0.00000000E+00
  | Maximum occupation number of highest empty state:  0.00E+00

  Highest occupied state (VBM) at     -4.69454759 eV
  | Occupation number:      2.00000000

  Lowest unoccupied state (CBM) at    -2.00413695 eV
  | Occupation number:      0.00000000

  Overall HOMO-LUMO gap:      2.69041063 eV.

  Total energy components:
  | Sum of eigenvalues            :        -207.56666336 Ha       -5648.17628613 eV
  | XC energy correction          :         -46.57247789 Ha       -1267.30160295 eV
  | XC potential correction       :          59.53098145 Ha        1619.92042590 eV
  | Free-atom electrostatic energy:        -178.94153180 Ha       -4869.24682480 eV
  | Hartree energy correction     :          -9.18451663 Ha        -249.92341357 eV
  | van der Waals energy corr.    :           0.00000000 Ha           0.00000000 eV
  | Entropy correction            :           0.00000000 Ha           0.00000000 eV
  | ---------------------------
  | Total energy                  :        -382.73420823 Ha      -10414.72770154 eV
  | Total energy, T -> 0          :        -382.73420823 Ha      -10414.72770154 eV  <-- do not rely on this value for anything but (periodic) metals
  | Electronic free energy        :        -382.73420823 Ha      -10414.72770154 eV

  Derived energy quantities:
  | Kinetic energy                :         381.69429300 Ha       10386.43016831 eV
  | Electrostatic energy          :        -717.85602335 Ha      -19533.85626690 eV
  | Energy correction for multipole
[...]
   ----------------------------------------------------------------
   Total forces(   4)            : -.294419E+00 -.139037E+01 -.360464E+00
  atom #    5
   Hellmann-Feynman + Multipole  : -.516051E+00 0.356815E+00 0.854772E+00
   Pulay + GGA                   : 0.455220E-01 0.101452E+00 0.121742E+00
   Van der Waals               : 0.271634E-02 0.238790E-02 -.271331E-02
   ----------------------------------------------------------------
   Total forces(   5)            : -.467813E+00 0.460655E+00 0.973800E+00
  atom #    6
   Hellmann-Feynman + Multipole  : 0.668018E+00 0.838311E+00 0.249035E+00
   Pulay + GGA                   : -.111163E+00 -.595323E-01 0.658708E-01
   Van der Waals               : 0.130678E-02 0.131026E-02 -.129209E-02
   ----------------------------------------------------------------
   Total forces(   6)            : 0.558162E+00 0.780089E+00 0.313613E+00
  atom #    7
   Hellmann-Feynman + Multipole  : -.579876E+01 0.112391E+01 -.985439E+01
   Pulay + GGA                   : 0.878529E+01 -.123054E+01 0.110571E+02
   Van der Waals               : 0.122903E-03 0.322844E-02 0.466377E-02
   ----------------------------------------------------------------
   Total forces(   7)            : 0.298665E+01 -.103400E+00 0.120741E+01
  atom #    8
   Hellmann-Feynman + Multipole  : -.302595E+00 -.618972E+00 -.999355E+00
   Pulay + GGA                   : 0.502089E-01 0.457111E-01 0.717262E-01
   Van der Waals               : -.141815E-03 -.203601E-02 -.103789E-02
   ----------------------------------------------------------------
   Total forces(   8)            : -.252528E+00 -.575297E+00 -.928666E+00
  atom #    9
   Hellmann-Feynman + Multipole  : -.172426E+01 0.992041E+00 -.396844E+00
   Pulay + GGA                   : 0.120978E+00 -.497213E-01 0.234299E-01
   Van der Waals               : -.326130E-02 0.320229E-02 0.251054E-02
   ----------------------------------------------------------------
   Total forces(   9)            : -.160654E+01 0.945522E+00 -.370904E+00
  atom #   10
   Hellmann-Feynman + Multipole  : -.170977E+01 -.204294E+01 -.141041E+02
   Pulay + GGA                   : 0.270656E+01 0.239878E+01 0.128064E+02
   Van der Waals               : -.352412E-02 -.641613E-02 0.307989E-03
   ----------------------------------------------------------------
   Total forces(  10)            : 0.993268E+00 0.349421E+00 -.129741E+01
  atom #   11
   Hellmann-Feynman + Multipole  : -.418164E+00 -.219729E+00 0.332759E+00
   Pulay + GGA                   : 0.945879E-01 0.558556E-01 0.555488E-01
   Van der Waals               : -.114203E-02 -.820200E-03 -.115374E-02
   ----------------------------------------------------------------
   Total forces(  11)            : -.324718E+00 -.164694E+00 0.387154E+00
  atom #   12
   Hellmann-Feynman + Multipole  : -.382016E+00 -.118933E+00 0.108295E+01
   Pulay + GGA                   : -.733440E-01 -.459273E-01 0.101559E+00
   Van der Waals               : -.427389E-03 -.441887E-02 -.263117E-02
   ----------------------------------------------------------------
   Total forces(  12)            : -.455788E+00 -.169279E+00 0.118188E+01
  atom #   13
   Hellmann-Feynman + Multipole  : -.139478E+02 -.501617E+01 0.406373E+00
   Pulay + GGA                   : 0.148643E+02 0.662806E+01 -.109424E+01
   Van der Waals               : 0.714506E-03 -.766878E-02 -.247590E-02
   ----------------------------------------------------------------
   Total forces(  13)            : 0.917204E+00 0.160422E+01 -.690341E+00
  atom #   14
   Hellmann-Feynman + Multipole  : -.442913E+00 -.256255E-01 -.118583E+00
   Pulay + GGA                   : 0.852281E-01 -.261347E-01 0.229242E-01
   Van der Waals               : -.378167E-02 -.440711E-02 -.362927E-02
   ----------------------------------------------------------------
   Total forces(  14)            : -.361467E+00 -.561674E-01 -.992886E-01
  atom #   15
   Hellmann-Feynman + Multipole  : -.814332E+00 -.154218E+01 0.689952E+00
   Pulay + GGA                   : 0.592988E-01 0.111534E+00 -.509251E-01
   Van der Waals               : 0.234570E-02 -.420327E-02 0.227642E-02
   ----------------------------------------------------------------
   Total forces(  15)            : -.752688E+00 -.143485E+01 0.641303E+00
  Timings for vdw_correction_hirshfeld (Tkatchenko-Scheffler 2009):
  | CPU time:        5.355 s, Wall clock time:        5.354 s.
  Removing unitary transformations (pure translations, rotations) from forces on atoms.
  Atomic forces before filtering:
  | Net force on center of mass :  0.144720E-02 -.342126E-02 -.728899E-02 eV/A
  | Net torque on center of mass:  0.106236E-01 -.108388E-02 -.125932E-01 eV
  Atomic forces after filtering:
  | Net force on center of mass :  0.802828E-15 -.178406E-15 -.892031E-16 eV/A
  | Net torque on center of mass:  -.944085E-15 0.708063E-15 0.377634E-14 eV
 
  Energy and forces in a compact form:
  | Total energy uncorrected      :         -0.104148019383598E+05 eV
  | Total energy corrected        :         -0.104148019383598E+05 eV  <-- do not rely on this value for anything but (periodic) metals
  | Electronic free energy        :         -0.104148019383598E+05 eV
  Total atomic forces (unitary forces cleaned) [eV/Ang]:
  |   1         -0.154055658920817E+01          0.351525702627272E+01         -0.212116384870358E+01
  |   2          0.222009212748064E+01         -0.350459668280391E+01          0.146709001062906E+01
  |   3         -0.161697502145507E+01         -0.260304808018547E+00         -0.309242155089008E+00
  |   4         -0.294186783501273E+00         -0.139018465165719E+01         -0.359667522960733E+00
  |   5         -0.467717373864307E+00          0.460979113593996E+00          0.974477140396395E+00
  |   6          0.558473277974444E+00          0.780181349266565E+00          0.314477922588771E+00
  |   7          0.298671387314645E+01         -0.103105473821180E+00          0.120805905263558E+01
  |   8         -0.252583268174063E+00         -0.574856726048457E+00         -0.928123579471712E+00
  |   9         -0.160637243049825E+01          0.945982986083626E+00         -0.370143642114299E+00
  |  10          0.992955783516312E+00          0.349987915817895E+00         -0.129710635317633E+01
  |  11         -0.325127184574302E+00         -0.163936804739240E+00          0.387384760769836E+00
  |  12         -0.456059036980467E+00         -0.168692552223769E+00          0.118222878281677E+01
  |  13          0.916662677268484E+00          0.160418303158441E+01         -0.690301159438699E+00
  |  14         -0.361945056110692E+00         -0.559947791186390E-01         -0.991719140909794E-01
  |  15         -0.753374995019729E+00         -0.143489894418829E+01          0.641202505208933E+00
 
  ------------------------------------ 
  Start decomposition of the XC Energy 
  ------------------------------------ 
  Hartree-Fock part   :          0.000000000 Ha              0.000000000 eV
  ------------------------------------ 
  X Energy            :        -44.939067225 Ha          -1222.854237338 eV
  C Energy GGA        :         -1.633897021 Ha            -44.460600079 eV
  Total XC Energy     :        -46.572964247 Ha          -1267.314837417 eV
  LDA X and C from self-consistent density 
  X Energy LDA        :        -40.493820248 Ha          -1101.892912642 eV
  C Energy LDA        :         -3.298469961 Ha            -89.755934367 eV
  ------------------------------------ 
  End decomposition of the XC Energy 
  ------------------------------------ 
  Performing Hirshfeld analysis of fragment charges and moments.
  ----------------------------------------------------------------------
  | Atom     1: O
  |   Hirshfeld charge        :     -0.33783740
  |   Free atom volume        :     23.95238533
  |   Hirshfeld volume        :     23.56072657
  |   Hirshfeld dipole vector :      0.03131504       0.05038573       0.02325535
  |   Hirshfeld dipole moment :      0.06371942
  |   Hirshfeld second moments:      0.00960798      -0.02916663       0.01714247
  |                                 -0.02916663      -0.03115155      -0.03678438
  |                                  0.01714247      -0.03678438      -0.06909206
  ----------------------------------------------------------------------
  | Atom     2: H
  |   Hirshfeld charge        :      0.11251547
  |   Free atom volume        :     10.44207651
  |   Hirshfeld volume        :      7.70284530
  |   Hirshfeld dipole vector :     -0.05806569       0.08634115      -0.03176981
  |   Hirshfeld dipole moment :      0.10879219
  |   Hirshfeld second moments:      0.10399770       0.00395486       0.00697072
  |                                  0.00395486       0.06039090      -0.00802183
  |                                  0.00697072      -0.00802183       0.07564625
  ----------------------------------------------------------------------
  | Atom     3: H
  |   Hirshfeld charge        :      0.05831525
  |   Free atom volume        :     10.44207651
  |   Hirshfeld volume        :      8.54166767
  |   Hirshfeld dipole vector :      0.04329741       0.00752137       0.01432394
  |   Hirshfeld dipole moment :      0.04622134
  |   Hirshfeld second moments:      0.02276058      -0.02791872      -0.00105271
  |                                 -0.02791872       0.07328232      -0.00608542
  |                                 -0.00105271      -0.00608542       0.05741858
  ----------------------------------------------------------------------
  | Atom     4: O
  |   Hirshfeld charge        :     -0.27931732
  |   Free atom volume        :     23.95238533
  |   Hirshfeld volume        :     21.77119174
  |   Hirshfeld dipole vector :     -0.03232063       0.01756508       0.01411692
  |   Hirshfeld dipole moment :      0.03940104
  |   Hirshfeld second moments:      0.03038014       0.05641314      -0.00887275
  |                                  0.05641314       0.03565821       0.02731874
  |                                 -0.00887275       0.02731874       0.00173605
  ----------------------------------------------------------------------
  | Atom     5: H
  |   Hirshfeld charge        :      0.12399373
  |   Free atom volume        :     10.44207651
  |   Hirshfeld volume        :      6.76063459
  |   Hirshfeld dipole vector :      0.03318154       0.09498371       0.05814680
  |   Hirshfeld dipole moment :      0.11620658
  |   Hirshfeld second moments:      0.11117583       0.01505063      -0.00662434
  |                                  0.01505063       0.09810687       0.00449762
  |                                 -0.00662434       0.00449762       0.09690812
  ----------------------------------------------------------------------
  | Atom     6: H
  |   Hirshfeld charge        :      0.14448012
  |   Free atom volume        :     10.44207651
  |   Hirshfeld volume        :      6.48534062
  |   Hirshfeld dipole vector :     -0.10413733      -0.06398038       0.02004070
  |   Hirshfeld dipole moment :      0.12385355
  |   Hirshfeld second moments:      0.10300162       0.01214073       0.00013107
  |                                  0.01214073       0.11886519       0.01348595
  |                                  0.00013107       0.01348595       0.10639892
  ----------------------------------------------------------------------
  | Atom     7: O
  |   Hirshfeld charge        :     -0.20726320
  |   Free atom volume        :     23.95238533
  |   Hirshfeld volume        :     20.94257266
  |   Hirshfeld dipole vector :     -0.02018611      -0.02623179       0.02819613
  |   Hirshfeld dipole moment :      0.04348112
  |   Hirshfeld second moments:      0.06733457      -0.02607899       0.00721791
  |                                 -0.02607899       0.06513706       0.02971805
  |                                  0.00721791       0.02971805       0.02961282
  ----------------------------------------------------------------------
  | Atom     8: H
  |   Hirshfeld charge        :      0.10957952
  |   Free atom volume        :     10.44207651
  |   Hirshfeld volume        :      7.28465131
  |   Hirshfeld dipole vector :      0.01023371       0.02665524       0.04708244
  |   Hirshfeld dipole moment :      0.05506347
  |   Hirshfeld second moments:      0.11102218      -0.00065053       0.00794566
  |                                 -0.00065053       0.07771733      -0.02570812
  |                                  0.00794566      -0.02570812       0.06471503
  ----------------------------------------------------------------------
  | Atom     9: H
  |   Hirshfeld charge        :      0.16062158
  |   Free atom volume        :     10.44207651
  |   Hirshfeld volume        :      6.00557681
  |   Hirshfeld dipole vector :      0.09029155      -0.07741032       0.01195166
  |   Hirshfeld dipole moment :      0.11953143
  |   Hirshfeld second moments:      0.12096279       0.00179160       0.00105565
  |                                  0.00179160       0.12333758       0.01392313
  |                                  0.00105565       0.01392313       0.12352776
  ----------------------------------------------------------------------
  | Atom    10: O
  |   Hirshfeld charge        :     -0.17316332
  |   Free atom volume        :     23.95238533
  |   Hirshfeld volume        :     19.33326098
  |   Hirshfeld dipole vector :     -0.00798306       0.00102957       0.00465035
  |   Hirshfeld dipole moment :      0.00929597
  |   Hirshfeld second moments:      0.11446711       0.03119228      -0.00871143
  |                                  0.03119228       0.08598398      -0.00151012
  |                                 -0.00871143      -0.00151012       0.09850177
  ----------------------------------------------------------------------
  | Atom    11: H
  |   Hirshfeld charge        :      0.18687752
  |   Free atom volume        :     10.44207651
  |   Hirshfeld volume        :      5.27480351
  |   Hirshfeld dipole vector :      0.09642789       0.06705068       0.03173715
  |   Hirshfeld dipole moment :      0.12166092
  |   Hirshfeld second moments:      0.13975564       0.00406953      -0.00957237
  |                                  0.00406953       0.13501554      -0.00497887
  |                                 -0.00957237      -0.00497887       0.14869484
  ----------------------------------------------------------------------
  | Atom    12: H
  |   Hirshfeld charge        :      0.18396977
  |   Free atom volume        :     10.44207651
  |   Hirshfeld volume        :      5.80778690
  |   Hirshfeld dipole vector :     -0.07266781      -0.03780458       0.08272946
  |   Hirshfeld dipole moment :      0.11642148
  |   Hirshfeld second moments:      0.13229606       0.00667521       0.00458609
  |                                  0.00667521       0.12754270       0.00518021
  |                                  0.00458609       0.00518021       0.13560541
  ----------------------------------------------------------------------
  | Atom    13: O
  |   Hirshfeld charge        :     -0.30948717
  |   Free atom volume        :     23.95238533
  |   Hirshfeld volume        :     22.44920774
  |   Hirshfeld dipole vector :      0.05140321       0.01062139      -0.01113875
  |   Hirshfeld dipole moment :      0.05365795
  |   Hirshfeld second moments:     -0.00672894      -0.00887475       0.01562724
  |                                 -0.00887475       0.03776027      -0.04982372
  |                                  0.01562724      -0.04982372      -0.03090397
  ----------------------------------------------------------------------
  | Atom    14: H
  |   Hirshfeld charge        :      0.09064932
  |   Free atom volume        :     10.44207651
  |   Hirshfeld volume        :      7.59712298
  |   Hirshfeld dipole vector :      0.06198840      -0.02295795       0.01057919
  |   Hirshfeld dipole moment :      0.06694437
  |   Hirshfeld second moments:      0.06188467       0.02808344      -0.01898367
  |                                  0.02808344       0.09094710      -0.00257839
  |                                 -0.01898367      -0.00257839       0.07413600
  ----------------------------------------------------------------------
  | Atom    15: H
  |   Hirshfeld charge        :      0.13607762
  |   Free atom volume        :     10.44207651
  |   Hirshfeld volume        :      6.48060179
  |   Hirshfeld dipole vector :      0.03822212       0.10421819      -0.05508473
  |   Hirshfeld dipole moment :      0.12392211
  |   Hirshfeld second moments:      0.11709250      -0.00945517       0.00969534
  |                                 -0.00945517       0.10955034      -0.00874338
  |                                  0.00969534      -0.00874338       0.09819047
  ----------------------------------------------------------------------


------------------------------------------------------------------------------
  Final output of selected total energy values:

  The following output summarizes some interesting total energy values
  at the end of a run (AFTER all relaxation, molecular dynamics, etc.).

  | Total energy of the DFT / Hartree-Fock s.c.f. calculation      :         -10414.801938360 eV
  | Final zero-broadening corrected energy (caution - metals only) :         -10414.801938360 eV
  | For reference only, the value of 1 Hartree used in FHI-aims is :             27.211384500 eV

  Before relying on these values, please be sure to understand exactly which
  total energy value is referred to by a given number. Different objects may
  all carry the same name 'total energy'. Definitions:

  Total energy of the DFT / Hartree-Fock s.c.f. calculation:
  | Note that this energy does not include ANY quantities calculated after the
  | s.c.f. cycle, in particular not ANY RPA, MP2, etc. many-body perturbation terms.

  Final zero-broadening corrected energy:
  | For metallic systems only, a broadening of the occupation numbers at the Fermi
  | level can be extrapolated back to zero broadening by an electron-gas inspired
  | formula. For all systems that are not real metals, this value can be
  | meaningless and should be avoided.

------------------------------------------------------------------------------

------------------------------------------------------------
          Leaving FHI-aims.
          Date     :  20150727, Time     :  120424.430

          Computational steps:
          | Number of self-consistency cycles          :           16

          Detailed time accounting                     :  max(cpu_time)    wall_clock(cpu1)
          | Total time                                 :       38.300 s          38.344 s
          | Preparation time                           :        0.172 s           0.510 s
          | Grid partitioning                          :        0.144 s           0.144 s
          | Preloading free-atom quantities on grid    :        0.014 s           0.013 s
          | Free-atom superposition energy             :        0.066 s           0.066 s
          | Total time for integrations                :       16.635 s          16.633 s
          | Total time for solution of K.-S. equations :        1.061 s           1.065 s
          | Total time for density & force components  :       13.039 s          13.033 s
          | Total time for mixing                      :        0.217 s           0.221 s
          | Total time for Hartree multipole update    :        0.074 s           0.077 s
          | Total time for Hartree multipole sum       :        6.255 s           6.249 s
          | Total time for total energy evaluation     :        0.002 s           0.004 s
          | Total time for scaled ZORA corrections     :        0.000 s           0.000 s
          | Total time for TS (2009) vdW correction    :        0.052 s           0.053 s

          Have a nice day.
------------------------------------------------------------
