  MPI-parallelism will be employed.
------------------------------------------------------------
          Invoking FHI-aims ...
          Version 081213
          Compiled on 2013/08/29 at 17:41:06 on host generoso.

          When using FHI-aims, please cite the following reference:

          Volker Blum, Ralf Gehrke, Felix Hanke, Paula Havu,
          Ville Havu, Xinguo Ren, Karsten Reuter, and Matthias Scheffler,
          'Ab Initio Molecular Simulations with Numeric Atom-Centered Orbitals: FHI-aims',
          Computer Physics Communications 180, 2175-2196 (2009)

          For any questions about FHI-aims, please visit the aimsclub website
          with its forums and wiki. Contributions to both the forums and the
          wiki are warmly encouraged - they are for you, and everyone is welcome there.

------------------------------------------------------------

  Date     :  20150727, Time     :  113018.637
  Time zero on CPU 1             :   0.559900000000000E-01  s.
  Internal wall clock time zero  :           207228618.637  s.

  Using        8 parallel tasks.
  Task        0 on host gen60 reporting.
  Task        1 on host gen60 reporting.
  Task        2 on host gen60 reporting.
  Task        3 on host gen60 reporting.
  Task        4 on host gen60 reporting.
  Task        5 on host gen60 reporting.
  Task        6 on host gen60 reporting.
  Task        7 on host gen60 reporting.

  Performing system and environment tests:
  | Environment variable OMP_NUM_THREADS correctly set to 1.
  | Checking for scalapack...
  | No scalapack compiled in.

  Obtaining array dimensions for all initial allocations:
  
  -----------------------------------------------------------------------
  Parsing control.in (first pass over file, find array dimensions only).
  The contents of control.in will be repeated verbatim below
  unless switched off by setting 'verbatim_writeout .false.' .
  in the first line of control.in .
  -----------------------------------------------------------------------
  
  #########################################################################################
  #
  #  Volker Blum, FHI 2008 : Test run input file control.in
  #
  #########################################################################################
  #
  #  Physical model
  #
    xc                 rpbe
    spin               none
    relativistic       atomic_zora scalar
    charge             0.
   vdw_correction_hirshfeld
  #
  #  SCF convergence
  #
    occupation_type    gaussian 0.01
    mixer              pulay
      n_max_pulay        10
      charge_mix_param   0.1
    sc_accuracy_rho    5E-5
    sc_accuracy_eev    5E-3
    sc_accuracy_etot   5E-6
    sc_iter_limit      3000
  #
  #  Eigenvalue solver
  #
    KS_method          lapack
      empty_states       8
      basis_threshold    0.e-5
  #
  #  Efficiency
  #
  #   all previous settings are now default, except stratmann still
  #   undecided. Continue to handle stratmann with care, if at all.
  #
  #  partition_type stratmann
    partition_type rho_r2
  #  hartree_partition_type stratmann
  #
  #  Oprions for large clusters (100's of atoms: memory saving / better scaling)
  #
  # for periodic systems:
  #
    density_update_method orbital
    packed_matrix_format none
  #  k_grid 6 6 6
  #  output k_eigenvalue 1
  #  distributed_spline_storage .true.
  #
  #  Relaxation
  #
  #  relax_geometry   bfgs 5.e-3
    sc_accuracy_forces 5.E-4
    final_forces_cleaned .true.
  #
  #  Output options
  #
  #  output mulliken
    output Hirshfeld
  #  output dipole
  
  #harmonic_length_scale 0.001
  
  ################################################################################
  #
  #  FHI-aims code project
  #  VB, Fritz-Haber Institut, 2007
  #
  #  Suggested "safe" defaults for H atom (to be pasted into control.in file)
  #  Basis constructed for a non-relativistic H2 molecule using the
  #  PW-LDA functional.
  #
  ################################################################################
    species        H
  #     global species definitions
      nucleus             1
      cut_pot             4.0  2.0  1.0
      cut_free_atom       finite 8.0
      logarithmic         0.00010000 100.00  1.0123
      basis_dep_cutoff    1d-4  # 1d-4 is safe default - please check 5d-4 if you wish!
      radial_base         24 7.0
      radial_multiplier   2
      angular_grids       specified
        division   0.2783  110
        division   0.3822  194
        division   0.5626  302
  #      division   0.5922  434
  #      division   0.6227  590
  #      division   0.7206  770
        outer_grid  302
      l_hartree           4
  ################################################################################
  #
  #  Definition of "minimal" basis
  #
  ################################################################################
  #     valence basis states
      valence      1  s   1.
  #     ion occupancy
      ion_occ      1  s   0.5
  ################################################################################
  #
  #  Suggested additional basis functions. For production calculations,
  #  uncomment them one after another (the most important basis functions are
  #  listed first).
  #
  ################################################################################
  #  "First tier" - improvements: -1014.90 meV to -62.69 meV
       hydro 2 s 2.1
       hydro 2 p 3.5
  #  "Second tier" - improvements: -12.89 meV to -1.83 meV
       hydro 1 s 0.85
       hydro 2 p 3.7
       hydro 2 s 1.2
       hydro 3 d 7
  #  "Third tier" - improvements: -0.25 meV to -0.12 meV
  #     hydro 4 f 11.2
  #     hydro 3 p 4.8
  #     hydro 4 d 9
  #     hydro 3 s 3.2
  
  ################################################################################
  #
  #  FHI-aims code project
  #  VB, Fritz-Haber Institut, 2007
  #
  #  Suggested "safe" defaults for O atom (to be pasted into control.in file)
  #  All values have been tested for a non-relativistic, non-spinpolarized O2
  #  molecule using the PW-LDA functional. Validity for PBE is expected.
  #
  #  Constructed for dimers: 1.0 A, 1.208 A, 1.5 A, 2.0 A, 3.0 A
  #
  ################################################################################
    species        O
  #     global species definitions
      nucleus             8
      mass                15.9994
      l_hartree           4
      cut_pot             4.0  2.0  1.0
      cut_free_atom       finite 8.0
      basis_dep_cutoff    1d-4  # 1d-4 is safe default - please check 5d-4 if you wish!
      logarithmic         0.00010000 100.00  1.0123
      radial_base         36 7.0
      radial_multiplier   2
       angular_grids specified
        division   0.4087  110
        division   0.5181  194
        division   0.6184  302
  #      division   0.7315  434
  #      division   0.7934  590
  #      division   0.9656  770
  #      division   1.4041  974
  #      outer_grid 974
        outer_grid 302
  ################################################################################
  #
  #  Definition of "minimal" basis
  #
  ################################################################################
  #     valence basis states
      valence      2  s   2.
      valence      2  p   4.
  #     ion occupancy
      ion_occ      2  s   1.
      ion_occ      2  p   3.
  ################################################################################
  #
  #  Suggested additional basis functions. For production calculations,
  #  uncomment them one after another (the most important basis functions are
  #  listed first).
  #
  ################################################################################
  #  "First tier" - improvements: -699.05 meV to -159.38 meV
       hydro 2 p 1.8
       hydro 3 d 7.6
       hydro 3 s 6.4
  #  "Second tier" - improvements: -49.91 meV to -5.39 meV
       hydro 4 f 11.6
       hydro 3 p 6.2
       hydro 3 d 5.6
       hydro 5 g 17.6
       hydro 1 s 0.75
  #  "Third tier" - improvements: -2.83 meV to -0.50 meV
  #     ionic 2 p auto
  #     hydro 4 f 10.8
  #     hydro 4 d 4.7
  #     hydro 2 s 6.8
  #  "Fourth tier" - improvements: -0.40 meV to -0.12 meV
  #     hydro 3 p 5
  #     hydro 3 s 3.3
  #     hydro 5 g 15.6
  #     hydro 4 f 17.6
  #     hydro 4 d 14
  # Further basis functions - -0.08 meV and below
  #     hydro 3 s 2.1
  #     hydro 4 d 11.6
  #     hydro 3 p 16
  #     hydro 2 s 17.2
  
  
  -----------------------------------------------------------------------
  Completed first pass over input file control.in .
  -----------------------------------------------------------------------
  
  
  -----------------------------------------------------------------------
  Parsing geometry.in (first pass over file, find array dimensions only).
  The contents of geometry.in will be repeated verbatim below
  unless switched off by setting 'verbatim_writeout .false.' .
  in the first line of geometry.in .
  -----------------------------------------------------------------------
  
  atom      -4.053030000      0.065001000     -1.525160000  O
  atom      -4.566710000      0.974813000     -1.912820000  H
  atom      -3.067820000      0.330172000     -1.477310000  H
  atom      -4.581760000     -0.256435000      0.939478000  O
  atom      -4.349860000      0.471090000      1.504340000  H
  atom      -5.393870000     -0.726611000      1.228070000  H
  atom      -5.293160000      2.192130000     -2.328800000  O
  atom      -4.829300000      2.988660000     -1.973850000  H
  atom      -5.428570000      2.328640000     -3.235170000  H
  atom      -1.645860000      0.870179000     -1.502250000  O
  atom      -1.568890000      1.501730000     -0.721051000  H
  atom      -0.824432000      0.282220000     -1.377720000  H
  atom      -3.818880000      2.024990000      2.187990000  O
  atom      -3.690880000      1.961360000      3.202150000  H
  atom      -4.546490000      2.751300000      2.045370000  H
  atom      -1.975360000      2.858040000      0.453140000  O
  atom      -1.223550000      3.375850000      0.786238000  H
  atom      -2.537520000      2.567960000      1.156120000  H
  atom      -4.066610000      4.258280000     -0.900064000  O
  atom      -3.224110000      3.876870000     -0.569443000  H
  atom      -3.737450000      5.116530000     -1.322720000  H
  atom      -5.628340000      3.730740000      1.385610000  O
  atom      -6.090650000      4.418470000      1.860350000  H
  atom      -5.158540000      4.200260000      0.615875000  H
  
  -----------------------------------------------------------------------
  Completed first pass over input file geometry.in .
  -----------------------------------------------------------------------
  
 
  Basic array size parameters: 
  | Number of species                 :        2
  | Number of atoms                   :       24
  | Max. basis fn. angular momentum   :        4
  | Max. atomic/ionic basis occupied n:        2
  | Max. number of basis fn. types    :        2
  | Max. radial fns per species/type  :        8
  | Max. logarithmic grid size        :     1301
  | Max. radial integration grid size :       73
  | Max. angular integration grid size:      302
  | Max. angular grid division number :        8
  | Radial grid for Hartree potential :     1301
  | Number of spin channels           :        1

------------------------------------------------------------
          Reading file control.in.
------------------------------------------------------------
  XC: Using RPBE gradient-corrected functionals.
  Spin treatment: No spin polarisation.
  Scalar relativistic treatment of kinetic energy: on-site free-atom approximation to ZORA.
  Charge =   0.000000E+00: Neutral system requested explicitly.
  Using non-empirical van der Waals correction (Hirshfeld partitioning):
  Occupation type: Gaussian broadening, width =   0.100000E-01 eV.
  Using pulay charge density mixing.
  Pulay mixing - number of memorized iterations:   10
  Charge density mixing - mixing parameter:     0.1000
  Convergence accuracy of self-consistent charge density: 0.5000E-04
  Convergence accuracy of sum of eigenvalues: 0.5000E-02
  Convergence accuracy of total energy: 0.5000E-05
  Maximum number of s.-c. iterations  :  3000
  Kohn-Sham eigenvalues and eigenfunctions calculated by lapack diagonalisation (D&C).
  Number of empty states per atom:        8
  Threshold for basis singularities: 0.0000E+00
  Partition function in integrals calculations: rho / r^2
 Using packed matrix format           0
  Convergence accuracy of forces: 0.5000E-03
  Cleaning forces before final output.
  Hirshfeld charge analysis will be performed.
 
  Reading configuration options for species H                   .
  | Found nuclear charge :   1.0000
  | Found cutoff potl. onset [A], width [A], scale factor :    4.00000    2.00000    1.00000
  | Found cutoff specification for free atom: Cutoff potential begins at    8.00000 A.
  | Found logarithmic grid data [bohr] : 0.1000E-03 0.1000E+03 0.1012E+01
  | Threshold for basis-dependent cutoff potential is   0.100000E-03
  | Found data for basic radial integration grid :    24 points, outermost radius =    7.000 A
  | Found multiplier for basic radial grid :   2
  | Found angular grid specification: user-specified.
  | Specified grid contains     4 separate shells.
  | Check grid settings after all constraints further below.
  | Found l_max for Hartree potential  :   4
  | Found free-atom valence shell :  1 s   1.000
  | No ionic wave fns used. Skipping ion_occ.
  | Found hydrogenic basis function :  2 s   2.100
  | Found hydrogenic basis function :  2 p   3.500
  | Found hydrogenic basis function :  1 s   0.850
  | Found hydrogenic basis function :  2 p   3.700
  | Found hydrogenic basis function :  2 s   1.200
  | Found hydrogenic basis function :  3 d   7.000
  Species H                   : Missing cutoff potential type.
  Defaulting to exp(1/x)/(1-x)^2 type cutoff potential.
  Species H : On-site basis accuracy parameter (for Gram-Schmidt orthonormalisation) not specified.
  Using default value basis_acc =  0.1000000E-03.
  Species H                   : Using default innermost maximum threshold i_radial=  2 for radial functions.
  Species H                   : Basic radial grid will be enhanced according to radial_multiplier =   2, to contain    49 grid points.
 
  Reading configuration options for species O                   .
  | Found nuclear charge :   8.0000
  | Found atomic mass :    15.9994000000000      amu
  | Found l_max for Hartree potential  :   4
  | Found cutoff potl. onset [A], width [A], scale factor :    4.00000    2.00000    1.00000
  | Found cutoff specification for free atom: Cutoff potential begins at    8.00000 A.
  | Threshold for basis-dependent cutoff potential is   0.100000E-03
  | Found logarithmic grid data [bohr] : 0.1000E-03 0.1000E+03 0.1012E+01
  | Found data for basic radial integration grid :    36 points, outermost radius =    7.000 A
  | Found multiplier for basic radial grid :   2
  | Found angular grid specification: user-specified.
  | Specified grid contains     4 separate shells.
  | Check grid settings after all constraints further below.
  | Found free-atom valence shell :  2 s   2.000
  | Found free-atom valence shell :  2 p   4.000
  | No ionic wave fns used. Skipping ion_occ.
  | No ionic wave fns used. Skipping ion_occ.
  | Found hydrogenic basis function :  2 p   1.800
  | Found hydrogenic basis function :  3 d   7.600
  | Found hydrogenic basis function :  3 s   6.400
  | Found hydrogenic basis function :  4 f  11.600
  | Found hydrogenic basis function :  3 p   6.200
  | Found hydrogenic basis function :  3 d   5.600
  | Found hydrogenic basis function :  5 g  17.600
  | Found hydrogenic basis function :  1 s   0.750
  Species O                   : Missing cutoff potential type.
  Defaulting to exp(1/x)/(1-x)^2 type cutoff potential.
  Species O : On-site basis accuracy parameter (for Gram-Schmidt orthonormalisation) not specified.
  Using default value basis_acc =  0.1000000E-03.
  Species O                   : Using default innermost maximum threshold i_radial=  2 for radial functions.
  Species O                   : Basic radial grid will be enhanced according to radial_multiplier =   2, to contain    73 grid points.
 
  Finished reading input file 'control.in'. Consistency checks are next.
 
  Target number of points in a grid batch is not set. Defaulting to  100
  Method for grid partitioning is not set. Defaulting to parallel hash+maxmin partitioning.
  Batch size limit is not set. Defaulting to    200
  By default, will store active basis functions for each batch.
  If in need of memory, prune_basis_once .false. can be used to disable this option.
  communication_type for Hartree potential was not specified.
  Defaulting to calc_hartree .
  Pulay mixer: Number of initial linear mixing iterations not set.
  Defaulting to    0 iterations.
  Work space size for distributed Hartree potential not set.
  Defaulting to   0.200000E+03 MB.
  Algorithm-dependent basis array size parameters:
  | n_max_pulay                         :       10
  Geometry relaxation not requested: no relaxation will be performed.
  Handling of forces: Unphysical translation and rotation will be removed from forces.
  No accuracy limit for integral partition fn. given. Defaulting to 0.1000E-14.
  No threshold value for u(r) in integrations given. Defaulting to 0.1000E-05.
  No accuracy for occupation numbers given. Defaulting to 0.1000E-07.
  No threshold value for occupation numbers given. Defaulting to 0.0000E+00.
  No accuracy for fermi level given. Defaulting to 0.1000E-19.
  Maximum # of iterations to find E_F not set. Defaulting to  200.
  Will not use alltoall communication since running on < 1024 CPUs.
  Partitioning for Hartree potential was not defined. Using partition_type for integrals.
  | Reporting present value of keyword multip_moments_threshold  :       0.10000000E-09
  | This value may affect high angular momentum components of the Hartree potential in periodic systems.
  No q(lm)/r^(l+1) cutoff set for long-range Hartree potential.
  | Using default value of  0.100000E-09 .
  | Verify using the multipole_threshold keyword.
  Defaulting to new monopole extrapolation.
  Density update method: Loop over occupied states selected for charge density update.
------------------------------------------------------------


------------------------------------------------------------
          Reading geometry description geometry.in.
------------------------------------------------------------
  Input structure read successfully.
  The structure contains       24 atoms,  and a total of         80.000 electrons.

  Input geometry:
  | No unit cell requested.
  | Atomic structure:
  |       Atom                x [A]            y [A]            z [A]
  |    1: Species O             -4.053030         0.065001        -1.525160
  |    2: Species H             -4.566710         0.974813        -1.912820
  |    3: Species H             -3.067820         0.330172        -1.477310
  |    4: Species O             -4.581760        -0.256435         0.939478
  |    5: Species H             -4.349860         0.471090         1.504340
  |    6: Species H             -5.393870        -0.726611         1.228070
  |    7: Species O             -5.293160         2.192130        -2.328800
  |    8: Species H             -4.829300         2.988660        -1.973850
  |    9: Species H             -5.428570         2.328640        -3.235170
  |   10: Species O             -1.645860         0.870179        -1.502250
  |   11: Species H             -1.568890         1.501730        -0.721051
  |   12: Species H             -0.824432         0.282220        -1.377720
  |   13: Species O             -3.818880         2.024990         2.187990
  |   14: Species H             -3.690880         1.961360         3.202150
  |   15: Species H             -4.546490         2.751300         2.045370
  |   16: Species O             -1.975360         2.858040         0.453140
  |   17: Species H             -1.223550         3.375850         0.786238
  |   18: Species H             -2.537520         2.567960         1.156120
  |   19: Species O             -4.066610         4.258280        -0.900064
  |   20: Species H             -3.224110         3.876870        -0.569443
  |   21: Species H             -3.737450         5.116530        -1.322720
  |   22: Species O             -5.628340         3.730740         1.385610
  |   23: Species H             -6.090650         4.418470         1.860350
  |   24: Species H             -5.158540         4.200260         0.615875
  |

  | The smallest distance between any two atoms is         0.92654057 AA.
  |
  | The first atom of this pair is atom number                      7 .
  | The second atom of this pair is atom number                     9 .

  Structure-dependent array size parameters: 
  | Maximum number of distinct radial functions  :       18
  | Maximum number of basis functions            :      552
  | Number of Kohn-Sham states (occupied + empty):      136
------------------------------------------------------------

------------------------------------------------------------
          Preparing all fixed parts of the calculation.
------------------------------------------------------------
  Determining machine precision:
    2.225073858507201E-308
  Setting up grids for atomic and cluster calculations.

  Creating wave function, potential, and density for free atoms.

  Species: H

  List of occupied orbitals and eigenvalues:
    n    l              occ      energy [Ha]    energy [eV]
    1    0           1.0000        -0.241408        -6.5691


  Species: O

  List of occupied orbitals and eigenvalues:
    n    l              occ      energy [Ha]    energy [eV]
    1    0           2.0000       -18.944147      -515.4965
    2    0           2.0000        -0.883529       -24.0421
    2    1           4.0000        -0.330176        -8.9845

  Creating fixed part of basis set: Ionic, confined, hydrogenic.
 
  H                    hydrogenic:
 
  List of hydrogenic basis orbitals: 
    n    l      effective z      eigenvalue [eV]  inner max. [A]     outer max. [A]     outer radius [A]   
    2    0         2.100000       -14.9965           0.193241           1.317192           5.372934
    2    1         3.500000       -41.6672           0.602363           0.602363           4.056010
    1    0         0.850000        -9.8292           0.624864           0.624864           5.372934
    2    1         3.700000       -46.5653           0.573616           0.573616           3.909951
    2    0         1.200000        -4.5995           0.334977           2.228160           5.505921
    3    2         7.000000       -74.0753           0.680692           0.680692           3.769152
 
 
  O                    hydrogenic:
 
  List of hydrogenic basis orbitals: 
    n    l      effective z      eigenvalue [eV]  inner max. [A]     outer max. [A]     outer radius [A]   
    2    1         1.800000       -11.0118           1.178546           1.178546           5.432516
    3    2         7.600000       -87.3182           0.624117           0.624117           3.541422
    3    0         6.400000       -61.9209           0.061166           1.081887           4.306510
    4    3        11.600000      -114.4238           0.731621           0.731621           3.584982
    3    1         6.200000       -58.1113           0.255677           1.030255           4.306510
    3    2         5.600000       -47.4081           0.847222           0.847222           4.413102
    5    4        17.600000      -168.5799           0.749730           0.749730           3.372413
    1    0         0.750000        -7.6499           0.705275           0.705275           5.366508
 

  Adding cutoff potential to free-atom effective potential.
  Creating atomic-like basis functions for current effective potential.

  Species H                   :

  List of atomic basis orbitals and eigenvalues:
    n    l      energy [Ha]    energy [eV]    outer radius [A]
    1    0        -0.241374        -6.5681       5.372934


  Species O                   :

  List of atomic basis orbitals and eigenvalues:
    n    l      energy [Ha]    energy [eV]    outer radius [A]
    1    0       -18.944147      -515.4965       1.415745
    2    0        -0.883529       -24.0421       5.048305
    2    1        -0.330173        -8.9845       5.301302

  Assembling full basis from fixed parts.
  | Species H :   atomic orbital   1 s accepted.
  | Species H :    hydro orbital   2 s accepted.
  | Species H :    hydro orbital   1 s accepted.
  | Species H :    hydro orbital   2 s accepted.
  | Species H :    hydro orbital   2 p accepted.
  | Species H :    hydro orbital   2 p accepted.
  | Species H :    hydro orbital   3 d accepted.
  | Species O :   atomic orbital   1 s accepted.
  | Species O :    hydro orbital   3 s accepted.
  | Species O :   atomic orbital   2 s accepted.
  | Species O :    hydro orbital   1 s accepted.
  | Species O :    hydro orbital   3 p accepted.
  | Species O :   atomic orbital   2 p accepted.
  | Species O :    hydro orbital   2 p accepted.
  | Species O :    hydro orbital   3 d accepted.
  | Species O :    hydro orbital   3 d accepted.
  | Species O :    hydro orbital   4 f accepted.
  | Species O :    hydro orbital   5 g accepted.
 
  Basis size parameters after reduction:
  | Total number of radial functions:       18
  | Total number of basis functions :      552
 
  Testing on-site integration grid accuracy.
  |  Species  Function  <phi|h_atom|phi> (log., in eV)  <phi|h_atom|phi> (rad., in eV)
           1        1                 -6.5683835025                 -6.5684759159
           1        2                 13.3711789951                 13.3708738703
           1        3                 23.6590910787                 23.6532055418
           1        4                 16.2963827186                 16.1870710655 ***
           1        5                 28.7627214838                 28.7627215090
           1        6                 59.5965249172                 59.5965950857
           1        7                 60.2220506392                 60.2220503827
           2        8               -515.4964576505               -515.4964530710
           2        9                 15.3030791347                 15.3030722972
           2       10                -21.7296094581                -21.7296135470
           2       11                 14.2969371730                 14.2969701621
           2       12                 21.0679693190                 21.0679697493
           2       13                 -2.3833606469                 -2.3833613176
           2       14                 13.7067136422                 13.7066766629
           2       15                 45.8013116808                 45.8013116965
           2       16                 52.2309815402                 52.2309831494
           2       17                 85.4120732416                 85.4120732763
           2       18                142.1019167745                142.1019167817
 * Note: Onsite integrals marked "***" above are less accurate than
 * onsite_accuracy_threshold =    0.03000 eV. Usually, this is harmless.
 * When in doubt, tighten the "radial" and/or "radial_multiplier" flags to check.

  Preparing densities etc. for the partition functions (integrals / Hartree potential).

  Preparations completed.
  max(cpu_time)          :      0.178 s.
  Wall clock time (cpu1) :      0.773 s.
------------------------------------------------------------

------------------------------------------------------------
          Begin self-consistency loop: Initialization.

          Date     :  20150727, Time     :  113019.828
------------------------------------------------------------

  Initializing index lists of integration centers etc. from given atomic structure:
  | Number of centers in hartree potential         :        24
  | Number of centers in hartree multipole         :        24
  | Number of centers in electron density summation:        24
  | Number of centers in basis integrals           :        24
  | Number of centers in integrals                 :        24
  Partitioning the integration grid into batches with parallel hashing+maxmin method.
  | Number of batches:     3017
  | Maximal batch size:     200
  | Minimal batch size:      50
  | Average batch size:     104.321
  | Standard deviation of batch sizes:      32.334

  Integration load balanced across     8 MPI tasks.
  Work distribution over tasks is as follows:
  Task     0 has      39372 integration points.
  Task     1 has      39310 integration points.
  Task     2 has      39341 integration points.
  Task     3 has      39414 integration points.
  Task     4 has      39280 integration points.
  Task     5 has      39370 integration points.
  Task     6 has      39339 integration points.
  Task     7 has      39310 integration points.
  Initializing partition tables, free-atom densities, potentials, etc. across the integration grid (initialize_grid_storage).
  | Net number of integration points:   314736
  | of which are non-zero points    :   314149
  Obtaining max. number of non-zero basis functions in each batch (get_n_compute_maxes).
  | Maximal number of non-zero basis functions:      545 in task     0
  | Maximal number of non-zero basis functions:      546 in task     1
  | Maximal number of non-zero basis functions:      545 in task     2
  | Maximal number of non-zero basis functions:      545 in task     3
  | Maximal number of non-zero basis functions:      545 in task     4
  | Maximal number of non-zero basis functions:      546 in task     5
  | Maximal number of non-zero basis functions:      546 in task     6
  | Maximal number of non-zero basis functions:      545 in task     7
  Integrating Hamiltonian matrix: batch-based integration.
  Time summed over all CPUs for integration: real work       21.907 s, elapsed       22.253 s
  Integrating overlap matrix.
  Time summed over all CPUs for integration: real work       12.199 s, elapsed       13.071 s

  Updating Kohn-Sham eigenvalues, eigenvectors, occupation numbers, and Fermi level.
  Solving generalized eigenproblem
  Updating Kohn-Sham eigenvalues and eigenfunctions.
  Transforming overlap matrix and checking for singularities.
  Overlap matrix is nonsingular:
  | Lowest eigenvalue:  0.199682E-03
  Solving real generalised eigenvalue problem by standard LAPACK (fast)
  Determining occupation numbers for Kohn-Sham eigenstates.
  | Chemical potential (Fermi level) in eV                 : -.47497807E+01
  | Error in electron count due to remaining E_F inaccuracy: 0.00000000E+00
  | Maximum occupation number of highest empty state:  0.00E+00

  Writing Kohn-Sham eigenvalues.

  State    Occupation    Eigenvalue [Ha]    Eigenvalue [eV]
      1       2.00000         -19.064912         -518.78266
      2       2.00000         -19.059598         -518.63805
      3       2.00000         -19.052102         -518.43406
      4       2.00000         -19.050670         -518.39510
      5       2.00000         -19.045482         -518.25394
      6       2.00000         -19.042537         -518.17381
      7       2.00000         -19.036189         -518.00106
      8       2.00000         -19.019936         -517.55880
      9       2.00000          -1.122315          -30.53974
     10       2.00000          -1.113934          -30.31169
     11       2.00000          -1.101530          -29.97416
     12       2.00000          -1.099471          -29.91814
     13       2.00000          -1.089282          -29.64088
     14       2.00000          -1.086534          -29.56609
     15       2.00000          -1.068124          -29.06513
     16       2.00000          -1.042393          -28.36497
     17       2.00000          -0.657128          -17.88137
     18       2.00000          -0.653511          -17.78295
     19       2.00000          -0.648598          -17.64926
     20       2.00000          -0.632541          -17.21233
     21       2.00000          -0.612158          -16.65766
     22       2.00000          -0.610126          -16.60238
     23       2.00000          -0.606452          -16.50240
     24       2.00000          -0.604549          -16.45062
     25       2.00000          -0.551927          -15.01869
     26       2.00000          -0.531331          -14.45826
     27       2.00000          -0.516715          -14.06052
     28       2.00000          -0.510551          -13.89279
     29       2.00000          -0.507413          -13.80740
     30       2.00000          -0.499068          -13.58034
     31       2.00000          -0.488343          -13.28850
     32       2.00000          -0.476107          -12.95552
     33       2.00000          -0.448861          -12.21413
     34       2.00000          -0.442159          -12.03176
     35       2.00000          -0.441253          -12.00710
     36       2.00000          -0.439984          -11.97258
     37       2.00000          -0.437903          -11.91595
     38       2.00000          -0.431496          -11.74161
     39       2.00000          -0.429919          -11.69868
     40       2.00000          -0.402723          -10.95865
     41       0.00000          -0.099462           -2.70649
     42       0.00000          -0.068302           -1.85859
     43       0.00000          -0.067391           -1.83380
     44       0.00000          -0.054261           -1.47652
     45       0.00000          -0.043349           -1.17960
     46       0.00000          -0.037209           -1.01252
     47       0.00000          -0.026992           -0.73450
     48       0.00000           0.012521            0.34072
     49       0.00000           0.024564            0.66843
     50       0.00000           0.029450            0.80137
     51       0.00000           0.032449            0.88297
     52       0.00000           0.043074            1.17211
     53       0.00000           0.046468            1.26446
     54       0.00000           0.053028            1.44298
     55       0.00000           0.057806            1.57299
     56       0.00000           0.062320            1.69582
     57       0.00000           0.073796            2.00810
     58       0.00000           0.082478            2.24435
     59       0.00000           0.087455            2.37978
     60       0.00000           0.089213            2.42760
     61       0.00000           0.098850            2.68983
     62       0.00000           0.101474            2.76126
     63       0.00000           0.105116            2.86035
     64       0.00000           0.114089            3.10453
     65       0.00000           0.118295            3.21898
     66       0.00000           0.120640            3.28277
     67       0.00000           0.128473            3.49593
     68       0.00000           0.130388            3.54803
     69       0.00000           0.131854            3.58792
     70       0.00000           0.132740            3.61205
     71       0.00000           0.144486            3.93167
     72       0.00000           0.147370            4.01014
     73       0.00000           0.156309            4.25338
     74       0.00000           0.157888            4.29636
     75       0.00000           0.174938            4.76029
     76       0.00000           0.181192            4.93048
     77       0.00000           0.186203            5.06684
     78       0.00000           0.195395            5.31696
     79       0.00000           0.207779            5.65397
     80       0.00000           0.213152            5.80016
     81       0.00000           0.233583            6.35612
     82       0.00000           0.237497            6.46262
     83       0.00000           0.241198            6.56333
     84       0.00000           0.266401            7.24915
     85       0.00000           0.274703            7.47504
     86       0.00000           0.278663            7.58280
     87       0.00000           0.290409            7.90243
     88       0.00000           0.297783            8.10309
     89       0.00000           0.303981            8.27174
     90       0.00000           0.310006            8.43568
     91       0.00000           0.322893            8.78636
     92       0.00000           0.329679            8.97101
     93       0.00000           0.335059            9.11743
     94       0.00000           0.341062            9.28077
     95       0.00000           0.351806            9.57312
     96       0.00000           0.359568            9.78435
     97       0.00000           0.369302           10.04923
     98       0.00000           0.373957           10.17589
     99       0.00000           0.381778           10.38871
    100       0.00000           0.390393           10.62313
    101       0.00000           0.399005           10.85748
    102       0.00000           0.402999           10.96615
    103       0.00000           0.409285           11.13721
    104       0.00000           0.412120           11.21436
    105       0.00000           0.425171           11.56948
    106       0.00000           0.445230           12.11534
    107       0.00000           0.456035           12.40933
    108       0.00000           0.466686           12.69919
    109       0.00000           0.467634           12.72496
    110       0.00000           0.478609           13.02362
    111       0.00000           0.480804           13.08334
    112       0.00000           0.501287           13.64070
    113       0.00000           0.508790           13.84489
    114       0.00000           0.523374           14.24174
    115       0.00000           0.530423           14.43354
    116       0.00000           0.544706           14.82220
    117       0.00000           0.547384           14.89508
    118       0.00000           0.564851           15.37038
    119       0.00000           0.566808           15.42362
    120       0.00000           0.600891           16.35108
    121       0.00000           0.611546           16.64102
    122       0.00000           0.627091           17.06402
    123       0.00000           0.649647           17.67780
    124       0.00000           0.669791           18.22594
    125       0.00000           0.683833           18.60803
    126       0.00000           0.695465           18.92458
    127       0.00000           0.715613           19.47283
    128       0.00000           0.718705           19.55697
    129       0.00000           0.729417           19.84846
    130       0.00000           0.746977           20.32628
    131       0.00000           0.760523           20.69487
    132       0.00000           0.766683           20.86249
    133       0.00000           0.789293           21.47776
    134       0.00000           0.799769           21.76283
    135       0.00000           0.804677           21.89636
    136       0.00000           0.830759           22.60611

  Highest occupied state (VBM) at    -10.95864633 eV
  | Occupation number:      2.00000000

  Lowest unoccupied state (CBM) at    -2.70649437 eV
  | Occupation number:      0.00000000

  Overall HOMO-LUMO gap:      8.25215196 eV.
  Calculating total energy contributions from superposition of free atom densities.

  Total energy components:
  | Sum of eigenvalues            :        -347.35165454 Ha       -9451.91942831 eV
  | XC energy correction          :         -73.00634553 Ha       -1986.60373904 eV
  | XC potential correction       :          93.31129179 Ha        2539.12943905 eV
  | Free-atom electrostatic energy:        -285.88577358 Ha       -7779.34770794 eV
  | Hartree energy correction     :           0.00000000 Ha           0.00000000 eV
  | van der Waals energy corr.    :           0.00000000 Ha           0.00000000 eV
  | Entropy correction            :           0.00000000 Ha           0.00000000 eV
  | ---------------------------
  | Total energy                  :        -612.93248185 Ha      -16678.74143625 eV
  | Total energy, T -> 0          :        -612.93248185 Ha      -16678.74143625 eV  <-- do not rely on this value for anything but (periodic) metals
  | Electronic free energy        :        -612.93248185 Ha      -16678.74143625 eV

  Derived energy quantities:
  | Kinetic energy                :         606.84330205 Ha       16513.04642326 eV
  | Electrostatic energy          :       -1146.76943837 Ha      -31205.18412047 eV
  | Energy correction for multipole
  | error in Hartree potential    :           0.00000000 Ha           0.00000000 eV
  | Sum of eigenvalues per atom                           :        -393.82997618 eV
  | Total energy (T->0) per atom                          :        -694.94755984 eV  <-- do not rely on this value for anything but (periodic) metals
  | Electronic free energy per atom                       :        -694.94755984 eV
  Initialize hartree_potential_storage
  Max. number of atoms included in rho_multipole:           24

  End scf initialization - timings             :  max(cpu_time)    wall_clock(cpu1)
  | Time for scf. initialization               :        5.785 s           5.952 s
  | Boundary condition initialization          :        0.000 s           0.000 s
  | Integration                                :        4.417 s           4.444 s
  | Solution of K.-S. eqns.                    :        0.622 s           0.625 s
  | Grid partitioning                          :        0.239 s           0.329 s
  | Preloading free-atom quantities on grid    :        0.013 s           0.014 s
  | Free-atom superposition energy             :        0.150 s           0.149 s
  | Total energy evaluation                    :        0.001 s           0.000 s
------------------------------------------------------------

------------------------------------------------------------
          Begin self-consistency iteration #    1

  Date     :  20150727, Time     :  113025.780
------------------------------------------------------------
  Evaluating new KS density.
  Integration grid: deviation in total charge (<rho> - N_e) =   2.842171E-14
  Pulay mixing of updated and previous charge densities.

  Evaluating partitioned Hartree potential by multipole expansion.
  | Analytical far-field extrapolation by fixed multipoles:
  | Hartree multipole sum: apparent total charge =  -0.299550E-05
  Summing up the Hartree potential.
  Time summed over all CPUs for potential: real work        6.501 s, elapsed        6.516 s
  | RMS charge density error from multipole expansion :   0.211042E-02

  Integrating Hamiltonian matrix: batch-based integration.
  Time summed over all CPUs for integration: real work       21.699 s, elapsed       22.178 s

  Updating Kohn-Sham eigenvalues, eigenvectors, occupation numbers, and Fermi level.
  Solving generalized eigenproblem
  Updating Kohn-Sham eigenvalues and eigenfunctions.
  Solving real generalised eigenvalue problem by standard LAPACK (fast)
  Determining occupation numbers for Kohn-Sham eigenstates.
  | Chemical potential (Fermi level) in eV                 : -.49397758E+01
  | Error in electron count due to remaining E_F inaccuracy: 0.00000000E+00
  | Maximum occupation number of highest empty state:  0.00E+00

  Writing Kohn-Sham eigenvalues.

  State    Occupation    Eigenvalue [Ha]    Eigenvalue [eV]
      1       2.00000         -18.988944         -516.71547
      2       2.00000         -18.988052         -516.69118
      3       2.00000         -18.981784         -516.52063
      4       2.00000         -18.980608         -516.48863
      5       2.00000         -18.969025         -516.17342
      6       2.00000         -18.968206         -516.15114
      7       2.00000         -18.956033         -515.81990
      8       2.00000         -18.914306         -514.68446
      9       2.00000          -1.083611          -29.48657
     10       2.00000          -1.079689          -29.37984
     11       2.00000          -1.067496          -29.04805
     12       2.00000          -1.058857          -28.81297
     13       2.00000          -1.048238          -28.52401
     14       2.00000          -1.047203          -28.49584
     15       2.00000          -1.032436          -28.09402
     16       2.00000          -0.980753          -26.68766
     17       2.00000          -0.627549          -17.07647
     18       2.00000          -0.619270          -16.85120
     19       2.00000          -0.604072          -16.43764
     20       2.00000          -0.601854          -16.37728
     21       2.00000          -0.585894          -15.94298
     22       2.00000          -0.577630          -15.71812
     23       2.00000          -0.575797          -15.66825
     24       2.00000          -0.559931          -15.23651
     25       2.00000          -0.510322          -13.88658
     26       2.00000          -0.499344          -13.58783
     27       2.00000          -0.483696          -13.16203
     28       2.00000          -0.475935          -12.95086
     29       2.00000          -0.460807          -12.53919
     30       2.00000          -0.456576          -12.42406
     31       2.00000          -0.445200          -12.11451
     32       2.00000          -0.429815          -11.69587
     33       2.00000          -0.413284          -11.24602
     34       2.00000          -0.407387          -11.08555
     35       2.00000          -0.404216          -10.99928
     36       2.00000          -0.395747          -10.76882
     37       2.00000          -0.393027          -10.69482
     38       2.00000          -0.384516          -10.46320
     39       2.00000          -0.379492          -10.32651
     40       2.00000          -0.339046           -9.22591
     41       0.00000          -0.090285           -2.45679
     42       0.00000          -0.060168           -1.63725
     43       0.00000          -0.058206           -1.58386
     44       0.00000          -0.043309           -1.17849
     45       0.00000          -0.036270           -0.98697
     46       0.00000          -0.026335           -0.71662
     47       0.00000          -0.021078           -0.57355
     48       0.00000           0.026567            0.72293
     49       0.00000           0.035168            0.95696
     50       0.00000           0.039238            1.06772
     51       0.00000           0.043225            1.17622
     52       0.00000           0.054322            1.47817
     53       0.00000           0.057813            1.57318
     54       0.00000           0.063487            1.72757
     55       0.00000           0.067086            1.82549
     56       0.00000           0.070355            1.91446
     57       0.00000           0.084516            2.29981
     58       0.00000           0.095981            2.61177
     59       0.00000           0.098681            2.68524
     60       0.00000           0.099715            2.71337
     61       0.00000           0.110086            2.99558
     62       0.00000           0.115047            3.13060
     63       0.00000           0.121876            3.31642
     64       0.00000           0.125520            3.41557
     65       0.00000           0.130664            3.55555
     66       0.00000           0.133133            3.62274
     67       0.00000           0.137359            3.73773
     68       0.00000           0.141928            3.86206
     69       0.00000           0.148599            4.04359
     70       0.00000           0.153257            4.17035
     71       0.00000           0.156349            4.25448
     72       0.00000           0.165782            4.51117
     73       0.00000           0.167721            4.56393
     74       0.00000           0.185132            5.03770
     75       0.00000           0.190468            5.18291
     76       0.00000           0.192879            5.24852
     77       0.00000           0.198559            5.40306
     78       0.00000           0.208648            5.67760
     79       0.00000           0.223277            6.07568
     80       0.00000           0.227118            6.18019
     81       0.00000           0.244680            6.65809
     82       0.00000           0.251492            6.84344
     83       0.00000           0.255269            6.94623
     84       0.00000           0.276128            7.51383
     85       0.00000           0.283999            7.72800
     86       0.00000           0.290804            7.91318
     87       0.00000           0.301004            8.19072
     88       0.00000           0.309716            8.42781
     89       0.00000           0.315226            8.57774
     90       0.00000           0.322341            8.77134
     91       0.00000           0.331306            9.01530
     92       0.00000           0.341824            9.30151
     93       0.00000           0.345941            9.41354
     94       0.00000           0.353786            9.62700
     95       0.00000           0.363256            9.88469
     96       0.00000           0.369004           10.04110
     97       0.00000           0.381346           10.37696
     98       0.00000           0.384974           10.47568
     99       0.00000           0.390805           10.63434
    100       0.00000           0.400176           10.88935
    101       0.00000           0.411429           11.19555
    102       0.00000           0.417641           11.36460
    103       0.00000           0.421233           11.46234
    104       0.00000           0.423510           11.52429
    105       0.00000           0.440807           11.99497
    106       0.00000           0.456435           12.42023
    107       0.00000           0.469427           12.77377
    108       0.00000           0.477120           12.98311
    109       0.00000           0.480141           13.06529
    110       0.00000           0.490654           13.35139
    111       0.00000           0.493554           13.43029
    112       0.00000           0.513149           13.96350
    113       0.00000           0.520066           14.15172
    114       0.00000           0.539654           14.68473
    115       0.00000           0.543046           14.77704
    116       0.00000           0.559938           15.23670
    117       0.00000           0.563232           15.32631
    118       0.00000           0.580595           15.79879
    119       0.00000           0.583727           15.88402
    120       0.00000           0.615391           16.74565
    121       0.00000           0.626725           17.05406
    122       0.00000           0.642736           17.48973
    123       0.00000           0.665869           18.11923
    124       0.00000           0.683189           18.59053
    125       0.00000           0.699239           19.02726
    126       0.00000           0.711961           19.37345
    127       0.00000           0.731536           19.90611
    128       0.00000           0.733695           19.96485
    129       0.00000           0.743398           20.22890
    130       0.00000           0.763864           20.78580
    131       0.00000           0.773005           21.03453
    132       0.00000           0.783476           21.31946
    133       0.00000           0.801669           21.81452
    134       0.00000           0.814297           22.15814
    135       0.00000           0.817775           22.25278
    136       0.00000           0.846665           23.03893

  Highest occupied state (VBM) at     -9.22590759 eV
  | Occupation number:      2.00000000

  Lowest unoccupied state (CBM) at    -2.45679104 eV
  | Occupation number:      0.00000000

  Overall HOMO-LUMO gap:      6.76911655 eV.

  Total energy components:
  | Sum of eigenvalues            :        -343.55130139 Ha       -9348.50655768 eV
  | XC energy correction          :         -73.38379439 Ha       -1996.87464512 eV
  | XC potential correction       :          93.80381461 Ha        2552.53166681 eV
  | Free-atom electrostatic energy:        -285.88577358 Ha       -7779.34770794 eV
  | Hartree energy correction     :          -3.68922841 Ha        -100.38901266 eV
  | van der Waals energy corr.    :           0.00000000 Ha           0.00000000 eV
  | Entropy correction            :           0.00000000 Ha           0.00000000 eV
  | ---------------------------
  | Total energy                  :        -612.70628316 Ha      -16672.58625660 eV
  | Total energy, T -> 0          :        -612.70628316 Ha      -16672.58625660 eV  <-- do not rely on this value for anything but (periodic) metals
  | Electronic free energy        :        -612.70628316 Ha      -16672.58625660 eV

  Derived energy quantities:
  | Kinetic energy                :         609.10279004 Ha       16574.53021985 eV
  | Electrostatic energy          :       -1148.42527881 Ha      -31250.24183132 eV
  | Energy correction for multipole
  | error in Hartree potential    :           0.00024658 Ha           0.00670970 eV
  | Sum of eigenvalues per atom                           :        -389.52110657 eV
  | Total energy (T->0) per atom                          :        -694.69109402 eV  <-- do not rely on this value for anything but (periodic) metals
  | Electronic free energy per atom                       :        -694.69109402 eV

  Self-consistency convergence accuracy:
  | Change of charge density      : 0.8279E+00
  | Change of sum of eigenvalues  : 0.1034E+03 eV
  | Change of total energy        : 0.6155E+01 eV

  End self-consistency iteration #     1       :  max(cpu_time)    wall_clock(cpu1)
  | Time for this iteration                    :        5.492 s           5.493 s
  | Charge density update                      :        1.720 s           1.720 s
  | Density mixing                             :        0.005 s           0.005 s
  | Hartree multipole update                   :        0.008 s           0.008 s
  | Hartree multipole summation                :        0.816 s           0.816 s
  | Integration                                :        2.778 s           2.777 s
  | Solution of K.-S. eqns.                    :        0.164 s           0.165 s
  | Total energy evaluation                    :        0.000 s           0.000 s
------------------------------------------------------------

------------------------------------------------------------
          Begin self-consistency iteration #    2

  Date     :  20150727, Time     :  113031.273
------------------------------------------------------------
  Evaluating new KS density.
  Integration grid: deviation in total charge (<rho> - N_e) =   2.842171E-14
  Pulay mixing of updated and previous charge densities.

  Evaluating partitioned Hartree potential by multipole expansion.
  | Analytical far-field extrapolation by fixed multipoles:
  | Hartree multipole sum: apparent total charge =  -0.879717E-05
  Summing up the Hartree potential.
  Time summed over all CPUs for potential: real work        6.500 s, elapsed        6.513 s
  | RMS charge density error from multipole expansion :   0.858933E-02

  Integrating Hamiltonian matrix: batch-based integration.
  Time summed over all CPUs for integration: real work       21.686 s, elapsed       22.184 s

  Updating Kohn-Sham eigenvalues, eigenvectors, occupation numbers, and Fermi level.
  Solving generalized eigenproblem
  Updating Kohn-Sham eigenvalues and eigenfunctions.
  Solving real generalised eigenvalue problem by standard LAPACK (fast)
  Determining occupation numbers for Kohn-Sham eigenstates.
  | Chemical potential (Fermi level) in eV                 : -.42758651E+01
  | Error in electron count due to remaining E_F inaccuracy: 0.00000000E+00
  | Maximum occupation number of highest empty state:  0.00E+00

  Highest occupied state (VBM) at     -4.89181152 eV
  | Occupation number:      2.00000000

  Lowest unoccupied state (CBM) at    -1.98009186 eV
  | Occupation number:      0.00000000

  Overall HOMO-LUMO gap:      2.91171966 eV.

  Total energy components:
  | Sum of eigenvalues            :        -334.22388661 Ha       -9094.69468770 eV
  | XC energy correction          :         -74.34715176 Ha       -2023.08893292 eV
  | XC potential correction       :          95.05929851 Ha        2586.69512214 eV
  | Free-atom electrostatic energy:        -285.88577358 Ha       -7779.34770794 eV
  | Hartree energy correction     :         -13.03676285 Ha        -354.74836653 eV
  | van der Waals energy corr.    :           0.00000000 Ha           0.00000000 eV
  | Entropy correction            :           0.00000000 Ha           0.00000000 eV
  | ---------------------------
  | Total energy                  :        -612.43427628 Ha      -16665.18457296 eV
  | Total energy, T -> 0          :        -612.43427628 Ha      -16665.18457296 eV  <-- do not rely on this value for anything but (periodic) metals
  | Electronic free energy        :        -612.43427628 Ha      -16665.18457296 eV

  Derived energy quantities:
  | Kinetic energy                :         613.81058437 Ha       16702.63582145 eV
  | Electrostatic energy          :       -1151.89770890 Ha      -31344.73146148 eV
  | Energy correction for multipole
  | error in Hartree potential    :          -0.00050140 Ha          -0.01364388 eV
  | Sum of eigenvalues per atom                           :        -378.94561199 eV
  | Total energy (T->0) per atom                          :        -694.38269054 eV  <-- do not rely on this value for anything but (periodic) metals
  | Electronic free energy per atom                       :        -694.38269054 eV

  Self-consistency convergence accuracy:
  | Change of charge density      : 0.6285E+00
  | Change of sum of eigenvalues  : 0.2538E+03 eV
  | Change of total energy        : 0.7402E+01 eV

  End self-consistency iteration #     2       :  max(cpu_time)    wall_clock(cpu1)
  | Time for this iteration                    :        5.486 s           5.508 s
  | Charge density update                      :        1.713 s           1.712 s
  | Density mixing                             :        0.009 s           0.031 s
  | Hartree multipole update                   :        0.007 s           0.007 s
  | Hartree multipole summation                :        0.816 s           0.816 s
  | Integration                                :        2.778 s           2.778 s
  | Solution of K.-S. eqns.                    :        0.164 s           0.163 s
  | Total energy evaluation                    :        0.000 s           0.000 s
------------------------------------------------------------

------------------------------------------------------------
          Begin self-consistency iteration #    3

  Date     :  20150727, Time     :  113036.781
------------------------------------------------------------
  Evaluating new KS density.
  Integration grid: deviation in total charge (<rho> - N_e) =   5.684342E-14
  Pulay mixing of updated and previous charge densities.

  Evaluating partitioned Hartree potential by multipole expansion.
  | Analytical far-field extrapolation by fixed multipoles:
  | Hartree multipole sum: apparent total charge =  -0.843405E-05
  Summing up the Hartree potential.
  Time summed over all CPUs for potential: real work        6.504 s, elapsed        6.536 s
  | RMS charge density error from multipole expansion :   0.168362E-01

  Integrating Hamiltonian matrix: batch-based integration.
  Time summed over all CPUs for integration: real work       21.763 s, elapsed       22.210 s

  Updating Kohn-Sham eigenvalues, eigenvectors, occupation numbers, and Fermi level.
  Solving generalized eigenproblem
  Updating Kohn-Sham eigenvalues and eigenfunctions.
  Solving real generalised eigenvalue problem by standard LAPACK (fast)
  Determining occupation numbers for Kohn-Sham eigenstates.
  | Chemical potential (Fermi level) in eV                 : -.42539374E+01
  | Error in electron count due to remaining E_F inaccuracy: 0.00000000E+00
  | Maximum occupation number of highest empty state:  0.00E+00

  Highest occupied state (VBM) at     -4.46587600 eV
  | Occupation number:      2.00000000

  Lowest unoccupied state (CBM) at    -1.97207760 eV
  | Occupation number:      0.00000000

  Overall HOMO-LUMO gap:      2.49379840 eV.

  Total energy components:
  | Sum of eigenvalues            :        -334.35206595 Ha       -9098.18262507 eV
  | XC energy correction          :         -74.32158725 Ha       -2022.39328739 eV
  | XC potential correction       :          95.01614848 Ha        2585.52095010 eV
  | Free-atom electrostatic energy:        -285.88577358 Ha       -7779.34770794 eV
  | Hartree energy correction     :         -12.88153015 Ha        -350.52426973 eV
  | van der Waals energy corr.    :           0.00000000 Ha           0.00000000 eV
  | Entropy correction            :           0.00000000 Ha           0.00000000 eV
  | ---------------------------
  | Total energy                  :        -612.42480845 Ha      -16664.92694003 eV
  | Total energy, T -> 0          :        -612.42480845 Ha      -16664.92694003 eV  <-- do not rely on this value for anything but (periodic) metals
  | Electronic free energy        :        -612.42480845 Ha      -16664.92694003 eV

  Derived energy quantities:
  | Kinetic energy                :         610.73273317 Ha       16618.88322910 eV
  | Electrostatic energy          :       -1148.83595437 Ha      -31261.41688174 eV
  | Energy correction for multipole
  | error in Hartree potential    :          -0.00761818 Ha          -0.20730132 eV
  | Sum of eigenvalues per atom                           :        -379.09094271 eV
  | Total energy (T->0) per atom                          :        -694.37195583 eV  <-- do not rely on this value for anything but (periodic) metals
  | Electronic free energy per atom                       :        -694.37195583 eV

  Self-consistency convergence accuracy:
  | Change of charge density      : 0.3057E+00
  | Change of sum of eigenvalues  : -.3488E+01 eV
  | Change of total energy        : 0.2576E+00 eV

  End self-consistency iteration #     3       :  max(cpu_time)    wall_clock(cpu1)
  | Time for this iteration                    :        5.499 s           5.500 s
  | Charge density update                      :        1.714 s           1.714 s
  | Density mixing                             :        0.011 s           0.011 s
  | Hartree multipole update                   :        0.008 s           0.008 s
  | Hartree multipole summation                :        0.818 s           0.818 s
  | Integration                                :        2.782 s           2.781 s
  | Solution of K.-S. eqns.                    :        0.163 s           0.167 s
  | Total energy evaluation                    :        0.000 s           0.000 s
------------------------------------------------------------

------------------------------------------------------------
          Begin self-consistency iteration #    4

  Date     :  20150727, Time     :  113042.281
------------------------------------------------------------
  Evaluating new KS density.
  Integration grid: deviation in total charge (<rho> - N_e) =   2.842171E-14
  Pulay mixing of updated and previous charge densities.

  Evaluating partitioned Hartree potential by multipole expansion.
  | Analytical far-field extrapolation by fixed multipoles:
  | Hartree multipole sum: apparent total charge =  -0.100338E-04
  Summing up the Hartree potential.
  Time summed over all CPUs for potential: real work        6.503 s, elapsed        6.529 s
  | RMS charge density error from multipole expansion :   0.221949E-01

  Integrating Hamiltonian matrix: batch-based integration.
  Time summed over all CPUs for integration: real work       21.686 s, elapsed       22.181 s

  Updating Kohn-Sham eigenvalues, eigenvectors, occupation numbers, and Fermi level.
  Solving generalized eigenproblem
  Updating Kohn-Sham eigenvalues and eigenfunctions.
  Solving real generalised eigenvalue problem by standard LAPACK (fast)
  Determining occupation numbers for Kohn-Sham eigenstates.
  | Chemical potential (Fermi level) in eV                 : -.21759495E+01
  | Error in electron count due to remaining E_F inaccuracy: 0.00000000E+00
  | Maximum occupation number of highest empty state:  0.00E+00

  Highest occupied state (VBM) at     -2.96139936 eV
  | Occupation number:      2.00000000

  Lowest unoccupied state (CBM) at    -1.84334778 eV
  | Occupation number:      0.00000000

  Overall HOMO-LUMO gap:      1.11805158 eV.

  Total energy components:
  | Sum of eigenvalues            :        -331.56712373 Ha       -9022.40049130 eV
  | XC energy correction          :         -74.63684935 Ha       -2030.97200556 eV
  | XC potential correction       :          95.42412213 Ha        2596.62247798 eV
  | Free-atom electrostatic energy:        -285.88577358 Ha       -7779.34770794 eV
  | Hartree energy correction     :         -15.74355480 Ha        -428.40392309 eV
  | van der Waals energy corr.    :           0.00000000 Ha           0.00000000 eV
  | Entropy correction            :           0.00000000 Ha           0.00000000 eV
  | ---------------------------
  | Total energy                  :        -612.40917932 Ha      -16664.50164991 eV
  | Total energy, T -> 0          :        -612.40917932 Ha      -16664.50164991 eV  <-- do not rely on this value for anything but (periodic) metals
  | Electronic free energy        :        -612.40917932 Ha      -16664.50164991 eV

  Derived energy quantities:
  | Kinetic energy                :         610.87246766 Ha       16622.68559807 eV
  | Electrostatic energy          :       -1148.64479764 Ha      -31256.21524243 eV
  | Energy correction for multipole
  | error in Hartree potential    :          -0.01094862 Ha          -0.29792704 eV
  | Sum of eigenvalues per atom                           :        -375.93335380 eV
  | Total energy (T->0) per atom                          :        -694.35423541 eV  <-- do not rely on this value for anything but (periodic) metals
  | Electronic free energy per atom                       :        -694.35423541 eV

  Self-consistency convergence accuracy:
  | Change of charge density      : 0.1620E+00
  | Change of sum of eigenvalues  : 0.7578E+02 eV
  | Change of total energy        : 0.4253E+00 eV

  End self-consistency iteration #     4       :  max(cpu_time)    wall_clock(cpu1)
  | Time for this iteration                    :        5.496 s           5.496 s
  | Charge density update                      :        1.716 s           1.715 s
  | Density mixing                             :        0.014 s           0.013 s
  | Hartree multipole update                   :        0.007 s           0.008 s
  | Hartree multipole summation                :        0.818 s           0.817 s
  | Integration                                :        2.778 s           2.778 s
  | Solution of K.-S. eqns.                    :        0.163 s           0.163 s
  | Total energy evaluation                    :        0.000 s           0.000 s
------------------------------------------------------------

------------------------------------------------------------
          Begin self-consistency iteration #    5

  Date     :  20150727, Time     :  113047.777
------------------------------------------------------------
  Evaluating new KS density.
  Integration grid: deviation in total charge (<rho> - N_e) =   2.842171E-14
  Pulay mixing of updated and previous charge densities.

  Evaluating partitioned Hartree potential by multipole expansion.
  | Analytical far-field extrapolation by fixed multipoles:
  | Hartree multipole sum: apparent total charge =  -0.997630E-05
  Summing up the Hartree potential.
  Time summed over all CPUs for potential: real work        6.499 s, elapsed        6.513 s
  | RMS charge density error from multipole expansion :   0.227450E-01

  Integrating Hamiltonian matrix: batch-based integration.
  Time summed over all CPUs for integration: real work       21.691 s, elapsed       22.177 s

  Updating Kohn-Sham eigenvalues, eigenvectors, occupation numbers, and Fermi level.
  Solving generalized eigenproblem
  Updating Kohn-Sham eigenvalues and eigenfunctions.
  Solving real generalised eigenvalue problem by standard LAPACK (fast)
  Determining occupation numbers for Kohn-Sham eigenstates.
  | Chemical potential (Fermi level) in eV                 : -.21528642E+01
  | Error in electron count due to remaining E_F inaccuracy: 0.00000000E+00
  | Maximum occupation number of highest empty state:  0.00E+00

  Highest occupied state (VBM) at     -2.89340757 eV
  | Occupation number:      2.00000000

  Lowest unoccupied state (CBM) at    -1.82680952 eV
  | Occupation number:      0.00000000

  Overall HOMO-LUMO gap:      1.06659805 eV.

  Total energy components:
  | Sum of eigenvalues            :        -331.47245260 Ha       -9019.82435877 eV
  | XC energy correction          :         -74.65571958 Ha       -2031.48549052 eV
  | XC potential correction       :          95.44786129 Ha        2597.26845324 eV
  | Free-atom electrostatic energy:        -285.88577358 Ha       -7779.34770794 eV
  | Hartree energy correction     :         -15.84290899 Ha        -431.10748819 eV
  | van der Waals energy corr.    :           0.00000000 Ha           0.00000000 eV
  | Entropy correction            :           0.00000000 Ha           0.00000000 eV
  | ---------------------------
  | Total energy                  :        -612.40899346 Ha      -16664.49659219 eV
  | Total energy, T -> 0          :        -612.40899346 Ha      -16664.49659219 eV  <-- do not rely on this value for anything but (periodic) metals
  | Electronic free energy        :        -612.40899346 Ha      -16664.49659219 eV

  Derived energy quantities:
  | Kinetic energy                :         610.94873346 Ha       16624.76089602 eV
  | Electrostatic energy          :       -1148.70200734 Ha      -31257.77199769 eV
  | Energy correction for multipole
  | error in Hartree potential    :          -0.01128923 Ha          -0.30719565 eV
  | Sum of eigenvalues per atom                           :        -375.82601495 eV
  | Total energy (T->0) per atom                          :        -694.35402467 eV  <-- do not rely on this value for anything but (periodic) metals
  | Electronic free energy per atom                       :        -694.35402467 eV

  Self-consistency convergence accuracy:
  | Change of charge density      : 0.3166E-01
  | Change of sum of eigenvalues  : 0.2576E+01 eV
  | Change of total energy        : 0.5058E-02 eV

  End self-consistency iteration #     5       :  max(cpu_time)    wall_clock(cpu1)
  | Time for this iteration                    :        5.494 s           5.494 s
  | Charge density update                      :        1.712 s           1.712 s
  | Density mixing                             :        0.016 s           0.016 s
  | Hartree multipole update                   :        0.008 s           0.007 s
  | Hartree multipole summation                :        0.815 s           0.816 s
  | Integration                                :        2.778 s           2.777 s
  | Solution of K.-S. eqns.                    :        0.165 s           0.165 s
  | Total energy evaluation                    :        0.001 s           0.000 s
------------------------------------------------------------

------------------------------------------------------------
          Begin self-consistency iteration #    6

  Date     :  20150727, Time     :  113053.271
------------------------------------------------------------
  Evaluating new KS density.
  Integration grid: deviation in total charge (<rho> - N_e) =   1.421085E-14
  Pulay mixing of updated and previous charge densities.

  Evaluating partitioned Hartree potential by multipole expansion.
  | Analytical far-field extrapolation by fixed multipoles:
  | Hartree multipole sum: apparent total charge =  -0.988719E-05
  Summing up the Hartree potential.
  Time summed over all CPUs for potential: real work        6.522 s, elapsed        6.675 s
  | RMS charge density error from multipole expansion :   0.228884E-01

  Integrating Hamiltonian matrix: batch-based integration.
  Time summed over all CPUs for integration: real work       21.710 s, elapsed       22.187 s

  Updating Kohn-Sham eigenvalues, eigenvectors, occupation numbers, and Fermi level.
  Solving generalized eigenproblem
  Updating Kohn-Sham eigenvalues and eigenfunctions.
  Solving real generalised eigenvalue problem by standard LAPACK (fast)
  Determining occupation numbers for Kohn-Sham eigenstates.
  | Chemical potential (Fermi level) in eV                 : -.21549969E+01
  | Error in electron count due to remaining E_F inaccuracy: 0.00000000E+00
  | Maximum occupation number of highest empty state:  0.00E+00

  Highest occupied state (VBM) at     -2.92402511 eV
  | Occupation number:      2.00000000

  Lowest unoccupied state (CBM) at    -1.82497395 eV
  | Occupation number:      0.00000000

  Overall HOMO-LUMO gap:      1.09905115 eV.

  Total energy components:
  | Sum of eigenvalues            :        -331.51427305 Ha       -9020.96235127 eV
  | XC energy correction          :         -74.65420613 Ha       -2031.44430742 eV
  | XC potential correction       :          95.44552642 Ha        2597.20491823 eV
  | Free-atom electrostatic energy:        -285.88577358 Ha       -7779.34770794 eV
  | Hartree energy correction     :         -15.80022829 Ha        -429.94608731 eV
  | van der Waals energy corr.    :           0.00000000 Ha           0.00000000 eV
  | Entropy correction            :           0.00000000 Ha           0.00000000 eV
  | ---------------------------
  | Total energy                  :        -612.40895463 Ha      -16664.49553572 eV
  | Total energy, T -> 0          :        -612.40895463 Ha      -16664.49553572 eV  <-- do not rely on this value for anything but (periodic) metals
  | Electronic free energy        :        -612.40895463 Ha      -16664.49553572 eV

  Derived energy quantities:
  | Kinetic energy                :         610.95446003 Ha       16624.91672396 eV
  | Electrostatic energy          :       -1148.70920854 Ha      -31257.96795226 eV
  | Energy correction for multipole
  | error in Hartree potential    :          -0.01139796 Ha          -0.31015430 eV
  | Sum of eigenvalues per atom                           :        -375.87343130 eV
  | Total energy (T->0) per atom                          :        -694.35398065 eV  <-- do not rely on this value for anything but (periodic) metals
  | Electronic free energy per atom                       :        -694.35398065 eV

  Self-consistency convergence accuracy:
  | Change of charge density      : 0.1478E-01
  | Change of sum of eigenvalues  : -.1138E+01 eV
  | Change of total energy        : 0.1056E-02 eV

  End self-consistency iteration #     6       :  max(cpu_time)    wall_clock(cpu1)
  | Time for this iteration                    :        5.534 s           5.534 s
  | Charge density update                      :        1.731 s           1.731 s
  | Density mixing                             :        0.018 s           0.018 s
  | Hartree multipole update                   :        0.007 s           0.008 s
  | Hartree multipole summation                :        0.836 s           0.835 s
  | Integration                                :        2.779 s           2.779 s
  | Solution of K.-S. eqns.                    :        0.163 s           0.163 s
  | Total energy evaluation                    :        0.000 s           0.000 s
------------------------------------------------------------

------------------------------------------------------------
          Begin self-consistency iteration #    7

  Date     :  20150727, Time     :  113058.806
------------------------------------------------------------
  Evaluating new KS density.
  Integration grid: deviation in total charge (<rho> - N_e) =   2.842171E-14
  Pulay mixing of updated and previous charge densities.

  Evaluating partitioned Hartree potential by multipole expansion.
  | Analytical far-field extrapolation by fixed multipoles:
  | Hartree multipole sum: apparent total charge =  -0.960619E-05
  Summing up the Hartree potential.
  Time summed over all CPUs for potential: real work        6.498 s, elapsed        6.511 s
  | RMS charge density error from multipole expansion :   0.229422E-01

  Integrating Hamiltonian matrix: batch-based integration.
  Time summed over all CPUs for integration: real work       21.738 s, elapsed       22.204 s

  Updating Kohn-Sham eigenvalues, eigenvectors, occupation numbers, and Fermi level.
  Solving generalized eigenproblem
  Updating Kohn-Sham eigenvalues and eigenfunctions.
  Solving real generalised eigenvalue problem by standard LAPACK (fast)
  Determining occupation numbers for Kohn-Sham eigenstates.
  | Chemical potential (Fermi level) in eV                 : -.21796356E+01
  | Error in electron count due to remaining E_F inaccuracy: 0.00000000E+00
  | Maximum occupation number of highest empty state:  0.00E+00

  Highest occupied state (VBM) at     -3.09775498 eV
  | Occupation number:      2.00000000

  Lowest unoccupied state (CBM) at    -1.82999935 eV
  | Occupation number:      0.00000000

  Overall HOMO-LUMO gap:      1.26775563 eV.

  Total energy components:
  | Sum of eigenvalues            :        -331.71053091 Ha       -9026.30279924 eV
  | XC energy correction          :         -74.63921160 Ha       -2031.03628552 eV
  | XC potential correction       :          95.42523647 Ha        2596.65280068 eV
  | Free-atom electrostatic energy:        -285.88577358 Ha       -7779.34770794 eV
  | Hartree energy correction     :         -15.59856917 Ha        -424.45866345 eV
  | van der Waals energy corr.    :           0.00000000 Ha           0.00000000 eV
  | Entropy correction            :           0.00000000 Ha           0.00000000 eV
  | ---------------------------
  | Total energy                  :        -612.40884878 Ha      -16664.49265548 eV
  | Total energy, T -> 0          :        -612.40884878 Ha      -16664.49265548 eV  <-- do not rely on this value for anything but (periodic) metals
  | Electronic free energy        :        -612.40884878 Ha      -16664.49265548 eV

  Derived energy quantities:
  | Kinetic energy                :         611.03415460 Ha       16627.08532341 eV
  | Electrostatic energy          :       -1148.80379179 Ha      -31260.54169336 eV
  | Energy correction for multipole
  | error in Hartree potential    :          -0.01146465 Ha          -0.31196907 eV
  | Sum of eigenvalues per atom                           :        -376.09594997 eV
  | Total energy (T->0) per atom                          :        -694.35386064 eV  <-- do not rely on this value for anything but (periodic) metals
  | Electronic free energy per atom                       :        -694.35386064 eV

  Self-consistency convergence accuracy:
  | Change of charge density      : 0.1170E-01
  | Change of sum of eigenvalues  : -.5340E+01 eV
  | Change of total energy        : 0.2880E-02 eV

  End self-consistency iteration #     7       :  max(cpu_time)    wall_clock(cpu1)
  | Time for this iteration                    :        5.503 s           5.503 s
  | Charge density update                      :        1.716 s           1.716 s
  | Density mixing                             :        0.020 s           0.020 s
  | Hartree multipole update                   :        0.008 s           0.008 s
  | Hartree multipole summation                :        0.815 s           0.815 s
  | Integration                                :        2.781 s           2.780 s
[...]
  |  12         -0.159552373415544E+01          0.948528113139635E+00         -0.342531614346687E+00
  |  13         -0.220236951936970E+00          0.994850083643761E+00          0.251689023796608E+01
  |  14         -0.276265318274171E+00          0.169339014168702E+00         -0.219874169395410E+01
  |  15          0.707150892835982E+00         -0.970764594032029E+00          0.168277347253787E+00
  |  16          0.162827370755274E+01          0.110468892879073E+01         -0.221734854792388E+01
  |  17         -0.315538234460643E+00         -0.227659507314466E+00          0.255388829665931E+00
  |  18         -0.113492961779299E+01         -0.700314661875608E+00          0.197018639343510E+01
  |  19          0.782656030867487E+00          0.198954344189629E+01         -0.768811240219309E+00
  |  20          0.167287401945022E+00         -0.481037076670467E+00          0.252072395425717E+00
  |  21         -0.787706888543310E+00         -0.136149391148654E+01          0.612787157221758E+00
  |  22          0.769227331162588E+00          0.440649284673983E+00         -0.132070520877873E+01
  |  23         -0.371030466386743E+00          0.499179494045595E+00          0.418119537909609E+00
  |  24         -0.638563009533709E+00         -0.739162867618128E+00          0.830088465013432E+00
 
  ------------------------------------ 
  Start decomposition of the XC Energy 
  ------------------------------------ 
  Hartree-Fock part   :          0.000000000 Ha              0.000000000 eV
  ------------------------------------ 
  X Energy            :        -72.002352322 Ha          -1959.283693932 eV
  C Energy GGA        :         -2.639575840 Ha            -71.826513094 eV
  Total XC Energy     :        -74.641928162 Ha          -2031.110207025 eV
  LDA X and C from self-consistent density 
  X Energy LDA        :        -64.942634059 Ha          -1767.178985834 eV
  C Energy LDA        :         -5.290054596 Ha           -143.949709627 eV
  ------------------------------------ 
  End decomposition of the XC Energy 
  ------------------------------------ 
  Performing Hirshfeld analysis of fragment charges and moments.
  ----------------------------------------------------------------------
  | Atom     1: O
  |   Hirshfeld charge        :     -0.40686739
  |   Free atom volume        :     23.95238533
  |   Hirshfeld volume        :     24.72908306
  |   Hirshfeld dipole vector :      0.02494591       0.07078557       0.03316065
  |   Hirshfeld dipole moment :      0.08205196
  |   Hirshfeld second moments:     -0.01475735      -0.02179996       0.01457537
  |                                 -0.02179996      -0.07929919      -0.03499777
  |                                  0.01457537      -0.03499777      -0.09863316
  ----------------------------------------------------------------------
  | Atom     2: H
  |   Hirshfeld charge        :      0.05010817
  |   Free atom volume        :     10.44207651
  |   Hirshfeld volume        :      8.91861607
  |   Hirshfeld dipole vector :     -0.02210358       0.04406904      -0.00659868
  |   Hirshfeld dipole moment :      0.04974124
  |   Hirshfeld second moments:      0.05853681       0.02730661       0.00280207
  |                                  0.02730661       0.01456748       0.00561509
  |                                  0.00280207       0.00561509       0.05304596
  ----------------------------------------------------------------------
  | Atom     3: H
  |   Hirshfeld charge        :      0.03828249
  |   Free atom volume        :     10.44207651
  |   Hirshfeld volume        :      9.11181508
  |   Hirshfeld dipole vector :      0.04661243       0.01643630       0.01960561
  |   Hirshfeld dipole moment :      0.05317190
  |   Hirshfeld second moments:      0.01654053      -0.02873600      -0.00184108
  |                                 -0.02873600       0.05531906      -0.00766696
  |                                 -0.00184108      -0.00766696       0.04176792
  ----------------------------------------------------------------------
  | Atom     4: O
  |   Hirshfeld charge        :     -0.30986208
  |   Free atom volume        :     23.95238533
  |   Hirshfeld volume        :     22.60887798
  |   Hirshfeld dipole vector :     -0.03201722       0.02629151       0.00947072
  |   Hirshfeld dipole moment :      0.04249754
  |   Hirshfeld second moments:      0.01408932       0.05545081      -0.01152217
  |                                  0.05545081       0.00737781       0.01832869
  |                                 -0.01152217       0.01832869      -0.01867065
  ----------------------------------------------------------------------
  | Atom     5: H
  |   Hirshfeld charge        :      0.06791928
  |   Free atom volume        :     10.44207651
  |   Hirshfeld volume        :      8.19067557
  |   Hirshfeld dipole vector :      0.01396148       0.04546517       0.02831020
  |   Hirshfeld dipole moment :      0.05534864
  |   Hirshfeld second moments:      0.08157271       0.00182270      -0.01248948
  |                                  0.00182270       0.03374843      -0.01735370
  |                                 -0.01248948      -0.01735370       0.06616821
  ----------------------------------------------------------------------
  | Atom     6: H
  |   Hirshfeld charge        :      0.11825097
  |   Free atom volume        :     10.44207651
  |   Hirshfeld volume        :      7.17124197
  |   Hirshfeld dipole vector :     -0.10155254      -0.05851704       0.01693985
  |   Hirshfeld dipole moment :      0.11842348
  |   Hirshfeld second moments:      0.08740634       0.01451309      -0.00044545
  |                                  0.01451309       0.10227799       0.01232953
  |                                 -0.00044545       0.01232953       0.08892760
  ----------------------------------------------------------------------
  | Atom     7: O
  |   Hirshfeld charge        :     -0.20281267
  |   Free atom volume        :     23.95238533
  |   Hirshfeld volume        :     20.62859813
  |   Hirshfeld dipole vector :      0.03401393      -0.01466392      -0.01395056
  |   Hirshfeld dipole moment :      0.03958025
  |   Hirshfeld second moments:      0.03155773       0.01385966       0.02682244
  |                                  0.01385966       0.07092671       0.00573684
  |                                  0.02682244       0.00573684       0.09722467
  ----------------------------------------------------------------------
  | Atom     8: H
  |   Hirshfeld charge        :      0.11355185
  |   Free atom volume        :     10.44207651
  |   Hirshfeld volume        :      7.36858476
  |   Hirshfeld dipole vector :      0.03043931       0.03933966       0.01132826
  |   Hirshfeld dipole moment :      0.05101460
  |   Hirshfeld second moments:      0.07976459      -0.01965653      -0.00689720
  |                                 -0.01965653       0.07046993      -0.02632526
  |                                 -0.00689720      -0.02632526       0.10251243
  ----------------------------------------------------------------------
  | Atom     9: H
  |   Hirshfeld charge        :      0.15579819
  |   Free atom volume        :     10.44207651
  |   Hirshfeld volume        :      6.18295505
  |   Hirshfeld dipole vector :     -0.01654094       0.00763863      -0.11781129
  |   Hirshfeld dipole moment :      0.11921179
  |   Hirshfeld second moments:      0.11429079       0.01045485       0.00879952
  |                                  0.01045485       0.12721125       0.00208440
  |                                  0.00879952       0.00208440       0.12023671
  ----------------------------------------------------------------------
  | Atom    10: O
  |   Hirshfeld charge        :     -0.21498093
  |   Free atom volume        :     23.95238533
  |   Hirshfeld volume        :     21.26663734
  |   Hirshfeld dipole vector :     -0.02497117      -0.03184732       0.03603816
  |   Hirshfeld dipole moment :      0.05419004
  |   Hirshfeld second moments:      0.05904469      -0.02901442       0.00719544
  |                                 -0.02901442       0.05701674       0.03051195
  |                                  0.00719544       0.03051195       0.02164423
  ----------------------------------------------------------------------
  | Atom    11: H
  |   Hirshfeld charge        :      0.10436717
  |   Free atom volume        :     10.44207651
  |   Hirshfeld volume        :      7.51178062
  |   Hirshfeld dipole vector :      0.00704398       0.02268919       0.04951855
  |   Hirshfeld dipole moment :      0.05492270
  |   Hirshfeld second moments:      0.10561842      -0.00237536       0.00979213
  |                                 -0.00237536       0.07298377      -0.02510394
  |                                  0.00979213      -0.02510394       0.05983473
  ----------------------------------------------------------------------
  | Atom    12: H
  |   Hirshfeld charge        :      0.15183207
  |   Free atom volume        :     10.44207651
  |   Hirshfeld volume        :      6.30505819
  |   Hirshfeld dipole vector :      0.08622350      -0.07888185       0.01453551
  |   Hirshfeld dipole moment :      0.11776298
  |   Hirshfeld second moments:      0.11430494      -0.00040285       0.00040212
  |                                 -0.00040285       0.11626623       0.01465138
  |                                  0.00040212       0.01465138       0.11705869
  ----------------------------------------------------------------------
  | Atom    13: O
  |   Hirshfeld charge        :     -0.19335781
  |   Free atom volume        :     23.95238533
  |   Hirshfeld volume        :     20.32814129
  |   Hirshfeld dipole vector :     -0.00790473      -0.01112435      -0.01427647
  |   Hirshfeld dipole moment :      0.01974978
  |   Hirshfeld second moments:      0.06097133      -0.01264291       0.00507113
  |                                 -0.01264291       0.05604410      -0.00715647
  |                                  0.00507113      -0.00715647       0.09962676
  ----------------------------------------------------------------------
  | Atom    14: H
  |   Hirshfeld charge        :      0.16200359
  |   Free atom volume        :     10.44207651
  |   Hirshfeld volume        :      5.91454277
  |   Hirshfeld dipole vector :      0.01570974      -0.01594020       0.11387609
  |   Hirshfeld dipole moment :      0.11605451
  |   Hirshfeld second moments:      0.12992796      -0.00774326      -0.00059430
  |                                 -0.00774326       0.12265250       0.00025319
  |                                 -0.00059430       0.00025319       0.12121791
  ----------------------------------------------------------------------
  | Atom    15: H
  |   Hirshfeld charge        :      0.10404489
  |   Free atom volume        :     10.44207651
  |   Hirshfeld volume        :      7.40132075
  |   Hirshfeld dipole vector :     -0.02590620       0.01991014       0.00311142
  |   Hirshfeld dipole moment :      0.03282112
  |   Hirshfeld second moments:      0.06507575       0.02471084      -0.01872812
  |                                  0.02471084       0.06594654       0.01304625
  |                                 -0.01872812       0.01304625       0.10867625
  ----------------------------------------------------------------------
  | Atom    16: O
  |   Hirshfeld charge        :     -0.20481417
  |   Free atom volume        :     23.95238533
  |   Hirshfeld volume        :     19.94148382
  |   Hirshfeld dipole vector :     -0.00499683      -0.01005250       0.00696980
  |   Hirshfeld dipole moment :      0.01321360
  |   Hirshfeld second moments:      0.09701556       0.02455554       0.00605451
  |                                  0.02455554       0.07568353       0.00299178
  |                                  0.00605451       0.00299178       0.07441483
  ----------------------------------------------------------------------
  | Atom    17: H
  |   Hirshfeld charge        :      0.16866088
  |   Free atom volume        :     10.44207651
  |   Hirshfeld volume        :      5.65562847
  |   Hirshfeld dipole vector :      0.09611949       0.06229750       0.03341240
  |   Hirshfeld dipole moment :      0.11931606
  |   Hirshfeld second moments:      0.12990029       0.00300881      -0.00505338
  |                                  0.00300881       0.12780503      -0.00451050
  |                                 -0.00505338      -0.00451050       0.13600183
  ----------------------------------------------------------------------
  | Atom    18: H
  |   Hirshfeld charge        :      0.11095436
  |   Free atom volume        :     10.44207651
  |   Hirshfeld volume        :      7.25510268
  |   Hirshfeld dipole vector :     -0.01953575      -0.01830820       0.02659522
  |   Hirshfeld dipole moment :      0.03773780
  |   Hirshfeld second moments:      0.08173513      -0.00699183       0.03573093
  |                                 -0.00699183       0.09699686       0.01439204
  |                                  0.03573093       0.01439204       0.07805983
  ----------------------------------------------------------------------
  | Atom    19: O
  |   Hirshfeld charge        :     -0.18605189
  |   Free atom volume        :     23.95238533
  |   Hirshfeld volume        :     19.92802637
  |   Hirshfeld dipole vector :      0.00265477      -0.01680826      -0.00295046
  |   Hirshfeld dipole moment :      0.01727051
  |   Hirshfeld second moments:      0.07790175       0.00138535       0.00007138
  |                                  0.00138535       0.10137459      -0.02369325
  |                                  0.00007138      -0.02369325       0.06810855
  ----------------------------------------------------------------------
  | Atom    20: H
  |   Hirshfeld charge        :      0.12623680
  |   Free atom volume        :     10.44207651
  |   Hirshfeld volume        :      7.03870119
  |   Hirshfeld dipole vector :      0.04769661      -0.01935819       0.00479316
  |   Hirshfeld dipole moment :      0.05169798
  |   Hirshfeld second moments:      0.07982390       0.02916391      -0.02301663
  |                                  0.02916391       0.10515392       0.00614820
  |                                 -0.02301663       0.00614820       0.09362607
  ----------------------------------------------------------------------
  | Atom    21: H
  |   Hirshfeld charge        :      0.17350389
  |   Free atom volume        :     10.44207651
  |   Hirshfeld volume        :      5.53076467
  |   Hirshfeld dipole vector :      0.03472962       0.10009226      -0.05391530
  |   Hirshfeld dipole moment :      0.11887585
  |   Hirshfeld second moments:      0.14166214      -0.00552287       0.00415363
  |                                 -0.00552287       0.13027625      -0.00094545
  |                                  0.00415363      -0.00094545       0.12925841
  ----------------------------------------------------------------------
  | Atom    22: O
  |   Hirshfeld charge        :     -0.21187745
  |   Free atom volume        :     23.95238533
  |   Hirshfeld volume        :     20.46406813
  |   Hirshfeld dipole vector :      0.01751920       0.01085110       0.00738338
  |   Hirshfeld dipole moment :      0.02189025
  |   Hirshfeld second moments:      0.05089563      -0.02794260      -0.03252029
  |                                 -0.02794260       0.06790438      -0.00250305
  |                                 -0.03252029      -0.00250305       0.07797012
  ----------------------------------------------------------------------
  | Atom    23: H
  |   Hirshfeld charge        :      0.16096212
  |   Free atom volume        :     10.44207651
  |   Hirshfeld volume        :      5.73222087
  |   Hirshfeld dipole vector :     -0.06217445       0.08280070       0.06430627
  |   Hirshfeld dipole moment :      0.12188894
  |   Hirshfeld second moments:      0.12407529      -0.00153410      -0.00789151
  |                                 -0.00153410       0.12730699      -0.01117938
  |                                 -0.00789151      -0.01117938       0.13364382
  ----------------------------------------------------------------------
  | Atom    24: H
  |   Hirshfeld charge        :      0.12410666
  |   Free atom volume        :     10.44207651
  |   Hirshfeld volume        :      7.18074186
  |   Hirshfeld dipole vector :      0.01677771       0.03667963      -0.03701016
  |   Hirshfeld dipole moment :      0.05474156
  |   Hirshfeld second moments:      0.08399726      -0.01924520       0.02093680
  |                                 -0.01924520       0.11291126       0.01263624
  |                                  0.02093680       0.01263624       0.06760189
  ----------------------------------------------------------------------


------------------------------------------------------------------------------
  Final output of selected total energy values:

  The following output summarizes some interesting total energy values
  at the end of a run (AFTER all relaxation, molecular dynamics, etc.).

  | Total energy of the DFT / Hartree-Fock s.c.f. calculation      :         -16664.676649948 eV
  | Final zero-broadening corrected energy (caution - metals only) :         -16664.676649948 eV
  | For reference only, the value of 1 Hartree used in FHI-aims is :             27.211384500 eV

  Before relying on these values, please be sure to understand exactly which
  total energy value is referred to by a given number. Different objects may
  all carry the same name 'total energy'. Definitions:

  Total energy of the DFT / Hartree-Fock s.c.f. calculation:
  | Note that this energy does not include ANY quantities calculated after the
  | s.c.f. cycle, in particular not ANY RPA, MP2, etc. many-body perturbation terms.

  Final zero-broadening corrected energy:
  | For metallic systems only, a broadening of the occupation numbers at the Fermi
  | level can be extrapolated back to zero broadening by an electron-gas inspired
  | formula. For all systems that are not real metals, this value can be
  | meaningless and should be avoided.

------------------------------------------------------------------------------

------------------------------------------------------------
          Leaving FHI-aims.
          Date     :  20150727, Time     :  113204.547

          Computational steps:
          | Number of self-consistency cycles          :           16

          Detailed time accounting                     :  max(cpu_time)    wall_clock(cpu1)
          | Total time                                 :      104.665 s         105.910 s
          | Preparation time                           :        0.178 s           0.773 s
          | Grid partitioning                          :        0.239 s           0.329 s
          | Preloading free-atom quantities on grid    :        0.013 s           0.014 s
          | Free-atom superposition energy             :        0.150 s           0.149 s
          | Total time for integrations                :       48.855 s          48.879 s
          | Total time for solution of K.-S. equations :        3.243 s           3.250 s
          | Total time for density & force components  :       35.036 s          35.036 s
          | Total time for mixing                      :        0.343 s           0.363 s
          | Total time for Hartree multipole update    :        0.123 s           0.124 s
          | Total time for Hartree multipole sum       :       15.803 s          15.803 s
          | Total time for total energy evaluation     :        0.006 s           0.005 s
          | Total time for scaled ZORA corrections     :        0.000 s           0.000 s
          | Total time for TS (2009) vdW correction    :        0.124 s           0.125 s

          Have a nice day.
------------------------------------------------------------
