  MPI-parallelism will be employed.
------------------------------------------------------------
          Invoking FHI-aims ...
          Version 081213
          Compiled on 2013/08/29 at 17:41:06 on host generoso.

          When using FHI-aims, please cite the following reference:

          Volker Blum, Ralf Gehrke, Felix Hanke, Paula Havu,
          Ville Havu, Xinguo Ren, Karsten Reuter, and Matthias Scheffler,
          'Ab Initio Molecular Simulations with Numeric Atom-Centered Orbitals: FHI-aims',
          Computer Physics Communications 180, 2175-2196 (2009)

          For any questions about FHI-aims, please visit the aimsclub website
          with its forums and wiki. Contributions to both the forums and the
          wiki are warmly encouraged - they are for you, and everyone is welcome there.

------------------------------------------------------------

  Date     :  20150727, Time     :  114811.690
  Time zero on CPU 1             :   0.399930000000000E-01  s.
  Internal wall clock time zero  :           207229691.690  s.

  Using        8 parallel tasks.
  Task        0 on host gen60 reporting.
  Task        1 on host gen60 reporting.
  Task        2 on host gen60 reporting.
  Task        3 on host gen60 reporting.
  Task        4 on host gen60 reporting.
  Task        5 on host gen60 reporting.
  Task        6 on host gen60 reporting.
  Task        7 on host gen60 reporting.

  Performing system and environment tests:
  | Environment variable OMP_NUM_THREADS correctly set to 1.
  | Checking for scalapack...
  | No scalapack compiled in.

  Obtaining array dimensions for all initial allocations:
  
  -----------------------------------------------------------------------
  Parsing control.in (first pass over file, find array dimensions only).
  The contents of control.in will be repeated verbatim below
  unless switched off by setting 'verbatim_writeout .false.' .
  in the first line of control.in .
  -----------------------------------------------------------------------
  
  #########################################################################################
  #
  #  Volker Blum, FHI 2008 : Test run input file control.in
  #
  #########################################################################################
  #
  #  Physical model
  #
    xc                 rpbe
    spin               none
    relativistic       atomic_zora scalar
    charge             0.
   vdw_correction_hirshfeld
  #
  #  SCF convergence
  #
    occupation_type    gaussian 0.01
    mixer              pulay
      n_max_pulay        10
      charge_mix_param   0.1
    sc_accuracy_rho    5E-5
    sc_accuracy_eev    5E-3
    sc_accuracy_etot   5E-6
    sc_iter_limit      3000
  #
  #  Eigenvalue solver
  #
    KS_method          lapack
      empty_states       8
      basis_threshold    0.e-5
  #
  #  Efficiency
  #
  #   all previous settings are now default, except stratmann still
  #   undecided. Continue to handle stratmann with care, if at all.
  #
  #  partition_type stratmann
    partition_type rho_r2
  #  hartree_partition_type stratmann
  #
  #  Oprions for large clusters (100's of atoms: memory saving / better scaling)
  #
  # for periodic systems:
  #
    density_update_method orbital
    packed_matrix_format none
  #  k_grid 6 6 6
  #  output k_eigenvalue 1
  #  distributed_spline_storage .true.
  #
  #  Relaxation
  #
  #  relax_geometry   bfgs 5.e-3
    sc_accuracy_forces 5.E-4
    final_forces_cleaned .true.
  #
  #  Output options
  #
  #  output mulliken
    output Hirshfeld
  #  output dipole
  
  #harmonic_length_scale 0.001
  
  ################################################################################
  #
  #  FHI-aims code project
  #  VB, Fritz-Haber Institut, 2007
  #
  #  Suggested "safe" defaults for H atom (to be pasted into control.in file)
  #  Basis constructed for a non-relativistic H2 molecule using the
  #  PW-LDA functional.
  #
  ################################################################################
    species        H
  #     global species definitions
      nucleus             1
      cut_pot             4.0  2.0  1.0
      cut_free_atom       finite 8.0
      logarithmic         0.00010000 100.00  1.0123
      basis_dep_cutoff    1d-4  # 1d-4 is safe default - please check 5d-4 if you wish!
      radial_base         24 7.0
      radial_multiplier   2
      angular_grids       specified
        division   0.2783  110
        division   0.3822  194
        division   0.5626  302
  #      division   0.5922  434
  #      division   0.6227  590
  #      division   0.7206  770
        outer_grid  302
      l_hartree           4
  ################################################################################
  #
  #  Definition of "minimal" basis
  #
  ################################################################################
  #     valence basis states
      valence      1  s   1.
  #     ion occupancy
      ion_occ      1  s   0.5
  ################################################################################
  #
  #  Suggested additional basis functions. For production calculations,
  #  uncomment them one after another (the most important basis functions are
  #  listed first).
  #
  ################################################################################
  #  "First tier" - improvements: -1014.90 meV to -62.69 meV
       hydro 2 s 2.1
       hydro 2 p 3.5
  #  "Second tier" - improvements: -12.89 meV to -1.83 meV
       hydro 1 s 0.85
       hydro 2 p 3.7
       hydro 2 s 1.2
       hydro 3 d 7
  #  "Third tier" - improvements: -0.25 meV to -0.12 meV
  #     hydro 4 f 11.2
  #     hydro 3 p 4.8
  #     hydro 4 d 9
  #     hydro 3 s 3.2
  
  ################################################################################
  #
  #  FHI-aims code project
  #  VB, Fritz-Haber Institut, 2007
  #
  #  Suggested "safe" defaults for O atom (to be pasted into control.in file)
  #  All values have been tested for a non-relativistic, non-spinpolarized O2
  #  molecule using the PW-LDA functional. Validity for PBE is expected.
  #
  #  Constructed for dimers: 1.0 A, 1.208 A, 1.5 A, 2.0 A, 3.0 A
  #
  ################################################################################
    species        O
  #     global species definitions
      nucleus             8
      mass                15.9994
      l_hartree           4
      cut_pot             4.0  2.0  1.0
      cut_free_atom       finite 8.0
      basis_dep_cutoff    1d-4  # 1d-4 is safe default - please check 5d-4 if you wish!
      logarithmic         0.00010000 100.00  1.0123
      radial_base         36 7.0
      radial_multiplier   2
       angular_grids specified
        division   0.4087  110
        division   0.5181  194
        division   0.6184  302
  #      division   0.7315  434
  #      division   0.7934  590
  #      division   0.9656  770
  #      division   1.4041  974
  #      outer_grid 974
        outer_grid 302
  ################################################################################
  #
  #  Definition of "minimal" basis
  #
  ################################################################################
  #     valence basis states
      valence      2  s   2.
      valence      2  p   4.
  #     ion occupancy
      ion_occ      2  s   1.
      ion_occ      2  p   3.
  ################################################################################
  #
  #  Suggested additional basis functions. For production calculations,
  #  uncomment them one after another (the most important basis functions are
  #  listed first).
  #
  ################################################################################
  #  "First tier" - improvements: -699.05 meV to -159.38 meV
       hydro 2 p 1.8
       hydro 3 d 7.6
       hydro 3 s 6.4
  #  "Second tier" - improvements: -49.91 meV to -5.39 meV
       hydro 4 f 11.6
       hydro 3 p 6.2
       hydro 3 d 5.6
       hydro 5 g 17.6
       hydro 1 s 0.75
  #  "Third tier" - improvements: -2.83 meV to -0.50 meV
  #     ionic 2 p auto
  #     hydro 4 f 10.8
  #     hydro 4 d 4.7
  #     hydro 2 s 6.8
  #  "Fourth tier" - improvements: -0.40 meV to -0.12 meV
  #     hydro 3 p 5
  #     hydro 3 s 3.3
  #     hydro 5 g 15.6
  #     hydro 4 f 17.6
  #     hydro 4 d 14
  # Further basis functions - -0.08 meV and below
  #     hydro 3 s 2.1
  #     hydro 4 d 11.6
  #     hydro 3 p 16
  #     hydro 2 s 17.2
  
  
  -----------------------------------------------------------------------
  Completed first pass over input file control.in .
  -----------------------------------------------------------------------
  
  
  -----------------------------------------------------------------------
  Parsing geometry.in (first pass over file, find array dimensions only).
  The contents of geometry.in will be repeated verbatim below
  unless switched off by setting 'verbatim_writeout .false.' .
  in the first line of geometry.in .
  -----------------------------------------------------------------------
  
  atom      -4.053030000      0.065001000     -1.525160000  O
  atom      -4.566710000      0.974813000     -1.912820000  H
  atom      -3.067820000      0.330172000     -1.477310000  H
  atom      -4.581760000     -0.256435000      0.939478000  O
  atom      -4.349860000      0.471090000      1.504340000  H
  atom      -5.393870000     -0.726611000      1.228070000  H
  atom      -5.293160000      2.192130000     -2.328800000  O
  atom      -4.829300000      2.988660000     -1.973850000  H
  atom      -5.428570000      2.328640000     -3.235170000  H
  atom      -3.818880000      2.024990000      2.187990000  O
  atom      -3.690880000      1.961360000      3.202150000  H
  atom      -4.546490000      2.751300000      2.045370000  H
  atom      -1.975360000      2.858040000      0.453140000  O
  atom      -1.223550000      3.375850000      0.786238000  H
  atom      -2.537520000      2.567960000      1.156120000  H
  atom      -5.628340000      3.730740000      1.385610000  O
  atom      -6.090650000      4.418470000      1.860350000  H
  atom      -5.158540000      4.200260000      0.615875000  H
  
  -----------------------------------------------------------------------
  Completed first pass over input file geometry.in .
  -----------------------------------------------------------------------
  
 
  Basic array size parameters: 
  | Number of species                 :        2
  | Number of atoms                   :       18
  | Max. basis fn. angular momentum   :        4
  | Max. atomic/ionic basis occupied n:        2
  | Max. number of basis fn. types    :        2
  | Max. radial fns per species/type  :        8
  | Max. logarithmic grid size        :     1301
  | Max. radial integration grid size :       73
  | Max. angular integration grid size:      302
  | Max. angular grid division number :        8
  | Radial grid for Hartree potential :     1301
  | Number of spin channels           :        1

------------------------------------------------------------
          Reading file control.in.
------------------------------------------------------------
  XC: Using RPBE gradient-corrected functionals.
  Spin treatment: No spin polarisation.
  Scalar relativistic treatment of kinetic energy: on-site free-atom approximation to ZORA.
  Charge =   0.000000E+00: Neutral system requested explicitly.
  Using non-empirical van der Waals correction (Hirshfeld partitioning):
  Occupation type: Gaussian broadening, width =   0.100000E-01 eV.
  Using pulay charge density mixing.
  Pulay mixing - number of memorized iterations:   10
  Charge density mixing - mixing parameter:     0.1000
  Convergence accuracy of self-consistent charge density: 0.5000E-04
  Convergence accuracy of sum of eigenvalues: 0.5000E-02
  Convergence accuracy of total energy: 0.5000E-05
  Maximum number of s.-c. iterations  :  3000
  Kohn-Sham eigenvalues and eigenfunctions calculated by lapack diagonalisation (D&C).
  Number of empty states per atom:        8
  Threshold for basis singularities: 0.0000E+00
  Partition function in integrals calculations: rho / r^2
 Using packed matrix format           0
  Convergence accuracy of forces: 0.5000E-03
  Cleaning forces before final output.
  Hirshfeld charge analysis will be performed.
 
  Reading configuration options for species H                   .
  | Found nuclear charge :   1.0000
  | Found cutoff potl. onset [A], width [A], scale factor :    4.00000    2.00000    1.00000
  | Found cutoff specification for free atom: Cutoff potential begins at    8.00000 A.
  | Found logarithmic grid data [bohr] : 0.1000E-03 0.1000E+03 0.1012E+01
  | Threshold for basis-dependent cutoff potential is   0.100000E-03
  | Found data for basic radial integration grid :    24 points, outermost radius =    7.000 A
  | Found multiplier for basic radial grid :   2
  | Found angular grid specification: user-specified.
  | Specified grid contains     4 separate shells.
  | Check grid settings after all constraints further below.
  | Found l_max for Hartree potential  :   4
  | Found free-atom valence shell :  1 s   1.000
  | No ionic wave fns used. Skipping ion_occ.
  | Found hydrogenic basis function :  2 s   2.100
  | Found hydrogenic basis function :  2 p   3.500
  | Found hydrogenic basis function :  1 s   0.850
  | Found hydrogenic basis function :  2 p   3.700
  | Found hydrogenic basis function :  2 s   1.200
  | Found hydrogenic basis function :  3 d   7.000
  Species H                   : Missing cutoff potential type.
  Defaulting to exp(1/x)/(1-x)^2 type cutoff potential.
  Species H : On-site basis accuracy parameter (for Gram-Schmidt orthonormalisation) not specified.
  Using default value basis_acc =  0.1000000E-03.
  Species H                   : Using default innermost maximum threshold i_radial=  2 for radial functions.
  Species H                   : Basic radial grid will be enhanced according to radial_multiplier =   2, to contain    49 grid points.
 
  Reading configuration options for species O                   .
  | Found nuclear charge :   8.0000
  | Found atomic mass :    15.9994000000000      amu
  | Found l_max for Hartree potential  :   4
  | Found cutoff potl. onset [A], width [A], scale factor :    4.00000    2.00000    1.00000
  | Found cutoff specification for free atom: Cutoff potential begins at    8.00000 A.
  | Threshold for basis-dependent cutoff potential is   0.100000E-03
  | Found logarithmic grid data [bohr] : 0.1000E-03 0.1000E+03 0.1012E+01
  | Found data for basic radial integration grid :    36 points, outermost radius =    7.000 A
  | Found multiplier for basic radial grid :   2
  | Found angular grid specification: user-specified.
  | Specified grid contains     4 separate shells.
  | Check grid settings after all constraints further below.
  | Found free-atom valence shell :  2 s   2.000
  | Found free-atom valence shell :  2 p   4.000
  | No ionic wave fns used. Skipping ion_occ.
  | No ionic wave fns used. Skipping ion_occ.
  | Found hydrogenic basis function :  2 p   1.800
  | Found hydrogenic basis function :  3 d   7.600
  | Found hydrogenic basis function :  3 s   6.400
  | Found hydrogenic basis function :  4 f  11.600
  | Found hydrogenic basis function :  3 p   6.200
  | Found hydrogenic basis function :  3 d   5.600
  | Found hydrogenic basis function :  5 g  17.600
  | Found hydrogenic basis function :  1 s   0.750
  Species O                   : Missing cutoff potential type.
  Defaulting to exp(1/x)/(1-x)^2 type cutoff potential.
  Species O : On-site basis accuracy parameter (for Gram-Schmidt orthonormalisation) not specified.
  Using default value basis_acc =  0.1000000E-03.
  Species O                   : Using default innermost maximum threshold i_radial=  2 for radial functions.
  Species O                   : Basic radial grid will be enhanced according to radial_multiplier =   2, to contain    73 grid points.
 
  Finished reading input file 'control.in'. Consistency checks are next.
 
  Target number of points in a grid batch is not set. Defaulting to  100
  Method for grid partitioning is not set. Defaulting to parallel hash+maxmin partitioning.
  Batch size limit is not set. Defaulting to    200
  By default, will store active basis functions for each batch.
  If in need of memory, prune_basis_once .false. can be used to disable this option.
  communication_type for Hartree potential was not specified.
  Defaulting to calc_hartree .
  Pulay mixer: Number of initial linear mixing iterations not set.
  Defaulting to    0 iterations.
  Work space size for distributed Hartree potential not set.
  Defaulting to   0.200000E+03 MB.
  Algorithm-dependent basis array size parameters:
  | n_max_pulay                         :       10
  Geometry relaxation not requested: no relaxation will be performed.
  Handling of forces: Unphysical translation and rotation will be removed from forces.
  No accuracy limit for integral partition fn. given. Defaulting to 0.1000E-14.
  No threshold value for u(r) in integrations given. Defaulting to 0.1000E-05.
  No accuracy for occupation numbers given. Defaulting to 0.1000E-07.
  No threshold value for occupation numbers given. Defaulting to 0.0000E+00.
  No accuracy for fermi level given. Defaulting to 0.1000E-19.
  Maximum # of iterations to find E_F not set. Defaulting to  200.
  Will not use alltoall communication since running on < 1024 CPUs.
  Partitioning for Hartree potential was not defined. Using partition_type for integrals.
  | Reporting present value of keyword multip_moments_threshold  :       0.10000000E-09
  | This value may affect high angular momentum components of the Hartree potential in periodic systems.
  No q(lm)/r^(l+1) cutoff set for long-range Hartree potential.
  | Using default value of  0.100000E-09 .
  | Verify using the multipole_threshold keyword.
  Defaulting to new monopole extrapolation.
  Density update method: Loop over occupied states selected for charge density update.
------------------------------------------------------------


------------------------------------------------------------
          Reading geometry description geometry.in.
------------------------------------------------------------
  Input structure read successfully.
  The structure contains       18 atoms,  and a total of         60.000 electrons.

  Input geometry:
  | No unit cell requested.
  | Atomic structure:
  |       Atom                x [A]            y [A]            z [A]
  |    1: Species O             -4.053030         0.065001        -1.525160
  |    2: Species H             -4.566710         0.974813        -1.912820
  |    3: Species H             -3.067820         0.330172        -1.477310
  |    4: Species O             -4.581760        -0.256435         0.939478
  |    5: Species H             -4.349860         0.471090         1.504340
  |    6: Species H             -5.393870        -0.726611         1.228070
  |    7: Species O             -5.293160         2.192130        -2.328800
  |    8: Species H             -4.829300         2.988660        -1.973850
  |    9: Species H             -5.428570         2.328640        -3.235170
  |   10: Species O             -3.818880         2.024990         2.187990
  |   11: Species H             -3.690880         1.961360         3.202150
  |   12: Species H             -4.546490         2.751300         2.045370
  |   13: Species O             -1.975360         2.858040         0.453140
  |   14: Species H             -1.223550         3.375850         0.786238
  |   15: Species H             -2.537520         2.567960         1.156120
  |   16: Species O             -5.628340         3.730740         1.385610
  |   17: Species H             -6.090650         4.418470         1.860350
  |   18: Species H             -5.158540         4.200260         0.615875
  |

  | The smallest distance between any two atoms is         0.92654057 AA.
  |
  | The first atom of this pair is atom number                      7 .
  | The second atom of this pair is atom number                     9 .

  Structure-dependent array size parameters: 
  | Maximum number of distinct radial functions  :       18
  | Maximum number of basis functions            :      414
  | Number of Kohn-Sham states (occupied + empty):      102
------------------------------------------------------------

------------------------------------------------------------
          Preparing all fixed parts of the calculation.
------------------------------------------------------------
  Determining machine precision:
    2.225073858507201E-308
  Setting up grids for atomic and cluster calculations.

  Creating wave function, potential, and density for free atoms.

  Species: H

  List of occupied orbitals and eigenvalues:
    n    l              occ      energy [Ha]    energy [eV]
    1    0           1.0000        -0.241408        -6.5691


  Species: O

  List of occupied orbitals and eigenvalues:
    n    l              occ      energy [Ha]    energy [eV]
    1    0           2.0000       -18.944147      -515.4965
    2    0           2.0000        -0.883529       -24.0421
    2    1           4.0000        -0.330176        -8.9845

  Creating fixed part of basis set: Ionic, confined, hydrogenic.
 
  H                    hydrogenic:
 
  List of hydrogenic basis orbitals: 
    n    l      effective z      eigenvalue [eV]  inner max. [A]     outer max. [A]     outer radius [A]   
    2    0         2.100000       -14.9965           0.193241           1.317192           5.372934
    2    1         3.500000       -41.6672           0.602363           0.602363           4.056010
    1    0         0.850000        -9.8292           0.624864           0.624864           5.372934
    2    1         3.700000       -46.5653           0.573616           0.573616           3.909951
    2    0         1.200000        -4.5995           0.334977           2.228160           5.505921
    3    2         7.000000       -74.0753           0.680692           0.680692           3.769152
 
 
  O                    hydrogenic:
 
  List of hydrogenic basis orbitals: 
    n    l      effective z      eigenvalue [eV]  inner max. [A]     outer max. [A]     outer radius [A]   
    2    1         1.800000       -11.0118           1.178546           1.178546           5.432516
    3    2         7.600000       -87.3182           0.624117           0.624117           3.541422
    3    0         6.400000       -61.9209           0.061166           1.081887           4.306510
    4    3        11.600000      -114.4238           0.731621           0.731621           3.584982
    3    1         6.200000       -58.1113           0.255677           1.030255           4.306510
    3    2         5.600000       -47.4081           0.847222           0.847222           4.413102
    5    4        17.600000      -168.5799           0.749730           0.749730           3.372413
    1    0         0.750000        -7.6499           0.705275           0.705275           5.366508
 

  Adding cutoff potential to free-atom effective potential.
  Creating atomic-like basis functions for current effective potential.

  Species H                   :

  List of atomic basis orbitals and eigenvalues:
    n    l      energy [Ha]    energy [eV]    outer radius [A]
    1    0        -0.241374        -6.5681       5.372934


  Species O                   :

  List of atomic basis orbitals and eigenvalues:
    n    l      energy [Ha]    energy [eV]    outer radius [A]
    1    0       -18.944147      -515.4965       1.415745
    2    0        -0.883529       -24.0421       5.048305
    2    1        -0.330173        -8.9845       5.301302

  Assembling full basis from fixed parts.
  | Species H :   atomic orbital   1 s accepted.
  | Species H :    hydro orbital   2 s accepted.
  | Species H :    hydro orbital   1 s accepted.
  | Species H :    hydro orbital   2 s accepted.
  | Species H :    hydro orbital   2 p accepted.
  | Species H :    hydro orbital   2 p accepted.
  | Species H :    hydro orbital   3 d accepted.
  | Species O :   atomic orbital   1 s accepted.
  | Species O :    hydro orbital   3 s accepted.
  | Species O :   atomic orbital   2 s accepted.
  | Species O :    hydro orbital   1 s accepted.
  | Species O :    hydro orbital   3 p accepted.
  | Species O :   atomic orbital   2 p accepted.
  | Species O :    hydro orbital   2 p accepted.
  | Species O :    hydro orbital   3 d accepted.
  | Species O :    hydro orbital   3 d accepted.
  | Species O :    hydro orbital   4 f accepted.
  | Species O :    hydro orbital   5 g accepted.
 
  Basis size parameters after reduction:
  | Total number of radial functions:       18
  | Total number of basis functions :      414
 
  Testing on-site integration grid accuracy.
  |  Species  Function  <phi|h_atom|phi> (log., in eV)  <phi|h_atom|phi> (rad., in eV)
           1        1                 -6.5683835025                 -6.5684759159
           1        2                 13.3711789951                 13.3708738703
           1        3                 23.6590910787                 23.6532055418
           1        4                 16.2963827186                 16.1870710655 ***
           1        5                 28.7627214838                 28.7627215090
           1        6                 59.5965249172                 59.5965950857
           1        7                 60.2220506392                 60.2220503827
           2        8               -515.4964576505               -515.4964530710
           2        9                 15.3030791347                 15.3030722972
           2       10                -21.7296094581                -21.7296135470
           2       11                 14.2969371730                 14.2969701621
           2       12                 21.0679693190                 21.0679697493
           2       13                 -2.3833606469                 -2.3833613176
           2       14                 13.7067136422                 13.7066766629
           2       15                 45.8013116808                 45.8013116965
           2       16                 52.2309815402                 52.2309831494
           2       17                 85.4120732416                 85.4120732763
           2       18                142.1019167745                142.1019167817
 * Note: Onsite integrals marked "***" above are less accurate than
 * onsite_accuracy_threshold =    0.03000 eV. Usually, this is harmless.
 * When in doubt, tighten the "radial" and/or "radial_multiplier" flags to check.

  Preparing densities etc. for the partition functions (integrals / Hartree potential).

  Preparations completed.
  max(cpu_time)          :      0.174 s.
  Wall clock time (cpu1) :      0.556 s.
------------------------------------------------------------

------------------------------------------------------------
          Begin self-consistency loop: Initialization.

          Date     :  20150727, Time     :  114812.271
------------------------------------------------------------

  Initializing index lists of integration centers etc. from given atomic structure:
  | Number of centers in hartree potential         :        18
  | Number of centers in hartree multipole         :        18
  | Number of centers in electron density summation:        18
  | Number of centers in basis integrals           :        18
  | Number of centers in integrals                 :        18
  Partitioning the integration grid into batches with parallel hashing+maxmin method.
  | Number of batches:     2359
  | Maximal batch size:     161
  | Minimal batch size:      50
  | Average batch size:     100.064
  | Standard deviation of batch sizes:      28.757

  Integration load balanced across     8 MPI tasks.
  Work distribution over tasks is as follows:
  Task     0 has      29510 integration points.
  Task     1 has      29468 integration points.
  Task     2 has      29478 integration points.
  Task     3 has      29483 integration points.
  Task     4 has      29463 integration points.
  Task     5 has      29605 integration points.
  Task     6 has      29577 integration points.
  Task     7 has      29468 integration points.
  Initializing partition tables, free-atom densities, potentials, etc. across the integration grid (initialize_grid_storage).
  | Net number of integration points:   236052
  | of which are non-zero points    :   235490
  Obtaining max. number of non-zero basis functions in each batch (get_n_compute_maxes).
  | Maximal number of non-zero basis functions:      410 in task     0
  | Maximal number of non-zero basis functions:      410 in task     1
  | Maximal number of non-zero basis functions:      409 in task     2
  | Maximal number of non-zero basis functions:      410 in task     3
  | Maximal number of non-zero basis functions:      409 in task     4
  | Maximal number of non-zero basis functions:      410 in task     5
  | Maximal number of non-zero basis functions:      409 in task     6
  | Maximal number of non-zero basis functions:      409 in task     7
  Integrating Hamiltonian matrix: batch-based integration.
  Time summed over all CPUs for integration: real work       10.861 s, elapsed       11.032 s
  Integrating overlap matrix.
  Time summed over all CPUs for integration: real work        5.894 s, elapsed        5.996 s

  Updating Kohn-Sham eigenvalues, eigenvectors, occupation numbers, and Fermi level.
  Solving generalized eigenproblem
  Updating Kohn-Sham eigenvalues and eigenfunctions.
  Transforming overlap matrix and checking for singularities.
  Overlap matrix is nonsingular:
  | Lowest eigenvalue:  0.272929E-03
  Solving real generalised eigenvalue problem by standard LAPACK (fast)
  Determining occupation numbers for Kohn-Sham eigenstates.
  | Chemical potential (Fermi level) in eV                 : -.30751147E+01
  | Error in electron count due to remaining E_F inaccuracy: 0.00000000E+00
  | Maximum occupation number of highest empty state:  0.00E+00

  Writing Kohn-Sham eigenvalues.

  State    Occupation    Eigenvalue [Ha]    Eigenvalue [eV]
      1       2.00000         -19.064797         -518.77953
      2       2.00000         -19.054657         -518.50361
      3       2.00000         -19.052095         -518.43389
      4       2.00000         -19.050556         -518.39199
      5       2.00000         -19.036160         -518.00028
      6       2.00000         -19.019669         -517.55154
      7       2.00000          -1.121180          -30.50887
      8       2.00000          -1.106348          -30.10525
      9       2.00000          -1.100661          -29.95050
     10       2.00000          -1.098365          -29.88804
     11       2.00000          -1.067986          -29.06138
     12       2.00000          -1.043466          -28.39417
     13       2.00000          -0.652187          -17.74691
     14       2.00000          -0.650173          -17.69210
     15       2.00000          -0.648434          -17.64480
     16       2.00000          -0.629144          -17.11987
     17       2.00000          -0.605105          -16.46573
     18       2.00000          -0.596431          -16.22972
     19       2.00000          -0.525577          -14.30167
     20       2.00000          -0.525185          -14.29101
     21       2.00000          -0.506683          -13.78754
     22       2.00000          -0.504496          -13.72804
     23       2.00000          -0.488988          -13.30604
     24       2.00000          -0.479093          -13.03678
     25       2.00000          -0.442002          -12.02748
     26       2.00000          -0.440447          -11.98517
     27       2.00000          -0.438631          -11.93576
     28       2.00000          -0.438239          -11.92508
     29       2.00000          -0.430422          -11.71237
     30       2.00000          -0.402519          -10.95309
     31       0.00000          -0.099532           -2.70840
     32       0.00000          -0.069438           -1.88952
     33       0.00000          -0.062719           -1.70666
     34       0.00000          -0.048260           -1.31321
     35       0.00000          -0.036594           -0.99579
     36       0.00000          -0.029865           -0.81266
     37       0.00000          -0.011777           -0.32048
     38       0.00000           0.024198            0.65846
     39       0.00000           0.036359            0.98937
     40       0.00000           0.040213            1.09424
     41       0.00000           0.053007            1.44240
     42       0.00000           0.059155            1.60968
     43       0.00000           0.070499            1.91839
     44       0.00000           0.083018            2.25904
     45       0.00000           0.089962            2.44799
     46       0.00000           0.096099            2.61498
     47       0.00000           0.098532            2.68120
     48       0.00000           0.106369            2.89444
     49       0.00000           0.113484            3.08806
     50       0.00000           0.115637            3.14663
     51       0.00000           0.116295            3.16454
     52       0.00000           0.126866            3.45221
     53       0.00000           0.133683            3.63769
     54       0.00000           0.136068            3.70260
     55       0.00000           0.146265            3.98006
     56       0.00000           0.154044            4.19176
     57       0.00000           0.162310            4.41668
     58       0.00000           0.166823            4.53950
     59       0.00000           0.184948            5.03270
     60       0.00000           0.193905            5.27642
     61       0.00000           0.196705            5.35261
     62       0.00000           0.214899            5.84769
     63       0.00000           0.238941            6.50192
     64       0.00000           0.240821            6.55308
     65       0.00000           0.254928            6.93696
     66       0.00000           0.258300            7.02870
     67       0.00000           0.277718            7.55708
     68       0.00000           0.286713            7.80185
     69       0.00000           0.299646            8.15378
     70       0.00000           0.320643            8.72514
     71       0.00000           0.322435            8.77391
     72       0.00000           0.333119            9.06464
     73       0.00000           0.342223            9.31237
     74       0.00000           0.353595            9.62181
     75       0.00000           0.367821           10.00893
     76       0.00000           0.377581           10.27450
     77       0.00000           0.387760           10.55149
     78       0.00000           0.397356           10.81261
     79       0.00000           0.415747           11.31304
     80       0.00000           0.427031           11.62010
     81       0.00000           0.434388           11.82029
     82       0.00000           0.444202           12.08736
     83       0.00000           0.449788           12.23935
     84       0.00000           0.458682           12.48137
     85       0.00000           0.470325           12.79819
     86       0.00000           0.490054           13.33506
     87       0.00000           0.498880           13.57523
     88       0.00000           0.511656           13.92286
     89       0.00000           0.517044           14.06949
     90       0.00000           0.537577           14.62821
     91       0.00000           0.550096           14.96888
     92       0.00000           0.553859           15.07126
     93       0.00000           0.569335           15.49238
     94       0.00000           0.583974           15.89074
     95       0.00000           0.600763           16.34758
     96       0.00000           0.628528           17.10312
     97       0.00000           0.659529           17.94671
     98       0.00000           0.676583           18.41077
     99       0.00000           0.690326           18.78474
    100       0.00000           0.731595           19.90773
    101       0.00000           0.745589           20.28852
    102       0.00000           0.764332           20.79854

  Highest occupied state (VBM) at    -10.95309244 eV
  | Occupation number:      2.00000000

  Lowest unoccupied state (CBM) at    -2.70840016 eV
  | Occupation number:      0.00000000

  Overall HOMO-LUMO gap:      8.24469229 eV.
  Calculating total energy contributions from superposition of free atom densities.

  Total energy components:
  | Sum of eigenvalues            :        -260.43939156 Ha       -7086.91642260 eV
  | XC energy correction          :         -54.70739969 Ha       -1488.66408782 eV
  | XC potential correction       :          69.90929963 Ha        1902.32883249 eV
  | Free-atom electrostatic energy:        -214.46809262 Ha       -5835.97373128 eV
  | Hartree energy correction     :           0.00000000 Ha           0.00000000 eV
  | van der Waals energy corr.    :           0.00000000 Ha           0.00000000 eV
  | Entropy correction            :           0.00000000 Ha           0.00000000 eV
  | ---------------------------
  | Total energy                  :        -459.70558423 Ha      -12509.22540921 eV
  | Total energy, T -> 0          :        -459.70558423 Ha      -12509.22540921 eV  <-- do not rely on this value for anything but (periodic) metals
  | Electronic free energy        :        -459.70558423 Ha      -12509.22540921 eV

  Derived energy quantities:
  | Kinetic energy                :         455.02427364 Ha       12381.84046688 eV
  | Electrostatic energy          :        -860.02245818 Ha      -23402.40178827 eV
  | Energy correction for multipole
  | error in Hartree potential    :           0.00000000 Ha           0.00000000 eV
  | Sum of eigenvalues per atom                           :        -393.71757903 eV
  | Total energy (T->0) per atom                          :        -694.95696718 eV  <-- do not rely on this value for anything but (periodic) metals
  | Electronic free energy per atom                       :        -694.95696718 eV
  Initialize hartree_potential_storage
  Max. number of atoms included in rho_multipole:           18

  End scf initialization - timings             :  max(cpu_time)    wall_clock(cpu1)
  | Time for scf. initialization               :        2.934 s           2.933 s
  | Boundary condition initialization          :        0.000 s           0.000 s
  | Integration                                :        2.134 s           2.134 s
  | Solution of K.-S. eqns.                    :        0.297 s           0.296 s
  | Grid partitioning                          :        0.207 s           0.207 s
  | Preloading free-atom quantities on grid    :        0.014 s           0.013 s
  | Free-atom superposition energy             :        0.088 s           0.089 s
  | Total energy evaluation                    :        0.001 s           0.000 s
------------------------------------------------------------

------------------------------------------------------------
          Begin self-consistency iteration #    1

  Date     :  20150727, Time     :  114815.204
------------------------------------------------------------
  Evaluating new KS density.
  Integration grid: deviation in total charge (<rho> - N_e) =   3.552714E-14
  Pulay mixing of updated and previous charge densities.

  Evaluating partitioned Hartree potential by multipole expansion.
  | Analytical far-field extrapolation by fixed multipoles:
  | Hartree multipole sum: apparent total charge =  -0.251230E-05
  Summing up the Hartree potential.
  Time summed over all CPUs for potential: real work        3.784 s, elapsed        3.811 s
  | RMS charge density error from multipole expansion :   0.181891E-02

  Integrating Hamiltonian matrix: batch-based integration.
  Time summed over all CPUs for integration: real work       10.851 s, elapsed       11.030 s

  Updating Kohn-Sham eigenvalues, eigenvectors, occupation numbers, and Fermi level.
  Solving generalized eigenproblem
  Updating Kohn-Sham eigenvalues and eigenfunctions.
  Solving real generalised eigenvalue problem by standard LAPACK (fast)
  Determining occupation numbers for Kohn-Sham eigenstates.
  | Chemical potential (Fermi level) in eV                 : -.26537439E+01
  | Error in electron count due to remaining E_F inaccuracy: 0.00000000E+00
  | Maximum occupation number of highest empty state:  0.00E+00

  Writing Kohn-Sham eigenvalues.

  State    Occupation    Eigenvalue [Ha]    Eigenvalue [eV]
      1       2.00000         -18.996725         -516.92719
      2       2.00000         -18.985739         -516.62825
      3       2.00000         -18.968598         -516.16182
      4       2.00000         -18.967634         -516.13559
      5       2.00000         -18.957855         -515.86949
      6       2.00000         -18.926309         -515.01107
      7       2.00000          -1.088937          -29.63148
      8       2.00000          -1.070621          -29.13309
      9       2.00000          -1.061531          -28.88573
     10       2.00000          -1.049500          -28.55836
     11       2.00000          -1.032099          -28.08484
     12       2.00000          -0.990586          -26.95522
     13       2.00000          -0.622581          -16.94129
     14       2.00000          -0.613890          -16.70480
     15       2.00000          -0.604237          -16.44212
     16       2.00000          -0.602992          -16.40826
     17       2.00000          -0.577368          -15.71098
     18       2.00000          -0.557592          -15.17285
     19       2.00000          -0.493426          -13.42680
     20       2.00000          -0.483113          -13.14618
     21       2.00000          -0.465408          -12.66439
     22       2.00000          -0.459444          -12.50212
     23       2.00000          -0.448537          -12.20532
     24       2.00000          -0.436749          -11.88454
     25       2.00000          -0.407828          -11.09756
     26       2.00000          -0.398152          -10.83427
     27       2.00000          -0.394194          -10.72657
     28       2.00000          -0.390568          -10.62789
     29       2.00000          -0.385100          -10.47910
     30       2.00000          -0.346885           -9.43921
     31       0.00000          -0.092143           -2.50733
     32       0.00000          -0.061681           -1.67843
     33       0.00000          -0.052903           -1.43955
     34       0.00000          -0.038167           -1.03856
     35       0.00000          -0.027919           -0.75972
     36       0.00000          -0.017477           -0.47557
     37       0.00000          -0.006438           -0.17519
     38       0.00000           0.029784            0.81046
     39       0.00000           0.046010            1.25199
     40       0.00000           0.052813            1.43710
     41       0.00000           0.061036            1.66088
     42       0.00000           0.067129            1.82668
     43       0.00000           0.083189            2.26370
     44       0.00000           0.091538            2.49089
     45       0.00000           0.100146            2.72511
     46       0.00000           0.109036            2.96703
     47       0.00000           0.109900            2.99052
     48       0.00000           0.120485            3.27856
     49       0.00000           0.124170            3.37884
     50       0.00000           0.126050            3.43000
     51       0.00000           0.128427            3.49469
     52       0.00000           0.135754            3.69405
     53       0.00000           0.145238            3.95213
     54       0.00000           0.153726            4.18309
     55       0.00000           0.160715            4.37328
     56       0.00000           0.164973            4.48915
     57       0.00000           0.176360            4.79899
     58       0.00000           0.178781            4.86488
     59       0.00000           0.198203            5.39338
     60       0.00000           0.204628            5.56820
     61       0.00000           0.207891            5.65701
     62       0.00000           0.228331            6.21320
     63       0.00000           0.251400            6.84094
     64       0.00000           0.252749            6.87765
     65       0.00000           0.266243            7.24484
     66       0.00000           0.268804            7.31453
     67       0.00000           0.291772            7.93951
     68       0.00000           0.296268            8.06186
     69       0.00000           0.307409            8.36502
     70       0.00000           0.330154            8.98394
     71       0.00000           0.334279            9.09618
     72       0.00000           0.343239            9.34000
     73       0.00000           0.353211            9.61137
     74       0.00000           0.364476            9.91790
     75       0.00000           0.380442           10.35237
     76       0.00000           0.388374           10.56820
     77       0.00000           0.398946           10.85588
     78       0.00000           0.409417           11.14079
     79       0.00000           0.424974           11.56413
     80       0.00000           0.436163           11.86860
     81       0.00000           0.446743           12.15650
     82       0.00000           0.454199           12.35938
     83       0.00000           0.458824           12.48523
     84       0.00000           0.469739           12.78224
     85       0.00000           0.484627           13.18736
     86       0.00000           0.503203           13.69284
     87       0.00000           0.511120           13.90829
     88       0.00000           0.522039           14.20542
     89       0.00000           0.529695           14.41374
     90       0.00000           0.551821           15.01581
     91       0.00000           0.562907           15.31747
     92       0.00000           0.568033           15.45698
     93       0.00000           0.584432           15.90322
     94       0.00000           0.599798           16.32134
     95       0.00000           0.617021           16.79000
     96       0.00000           0.643137           17.50066
     97       0.00000           0.674396           18.35125
     98       0.00000           0.691043           18.80425
     99       0.00000           0.705562           19.19933
    100       0.00000           0.748857           20.37743
    101       0.00000           0.759163           20.65788
    102       0.00000           0.777383           21.15367

  Highest occupied state (VBM) at     -9.43920960 eV
  | Occupation number:      2.00000000

  Lowest unoccupied state (CBM) at    -2.50732635 eV
  | Occupation number:      0.00000000

  Overall HOMO-LUMO gap:      6.93188325 eV.

  Total energy components:
  | Sum of eigenvalues            :        -257.56839903 Ha       -7008.79274112 eV
  | XC energy correction          :         -54.99972006 Ha       -1496.61853003 eV
  | XC potential correction       :          70.29156108 Ha        1912.73069578 eV
  | Free-atom electrostatic energy:        -214.46809262 Ha       -5835.97373128 eV
  | Hartree energy correction     :          -2.77960683 Ha         -75.63695014 eV
  | van der Waals energy corr.    :           0.00000000 Ha           0.00000000 eV
  | Entropy correction            :           0.00000000 Ha           0.00000000 eV
  | ---------------------------
  | Total energy                  :        -459.52425746 Ha      -12504.29125680 eV
  | Total energy, T -> 0          :        -459.52425746 Ha      -12504.29125680 eV  <-- do not rely on this value for anything but (periodic) metals
  | Electronic free energy        :        -459.52425746 Ha      -12504.29125680 eV

  Derived energy quantities:
  | Kinetic energy                :         456.77340437 Ha       12429.43673568 eV
  | Electrostatic energy          :        -861.29794177 Ha      -23437.10946244 eV
  | Energy correction for multipole
  | error in Hartree potential    :           0.00001830 Ha           0.00049809 eV
  | Sum of eigenvalues per atom                           :        -389.37737451 eV
  | Total energy (T->0) per atom                          :        -694.68284760 eV  <-- do not rely on this value for anything but (periodic) metals
  | Electronic free energy per atom                       :        -694.68284760 eV

  Self-consistency convergence accuracy:
  | Change of charge density      : 0.7333E+00
  | Change of sum of eigenvalues  : 0.7812E+02 eV
  | Change of total energy        : 0.4934E+01 eV

  End self-consistency iteration #     1       :  max(cpu_time)    wall_clock(cpu1)
  | Time for this iteration                    :        2.847 s           2.848 s
  | Charge density update                      :        0.896 s           0.897 s
  | Density mixing                             :        0.004 s           0.004 s
  | Hartree multipole update                   :        0.006 s           0.006 s
  | Hartree multipole summation                :        0.478 s           0.477 s
  | Integration                                :        1.381 s           1.381 s
  | Solution of K.-S. eqns.                    :        0.081 s           0.081 s
  | Total energy evaluation                    :        0.000 s           0.000 s
------------------------------------------------------------

------------------------------------------------------------
          Begin self-consistency iteration #    2

  Date     :  20150727, Time     :  114818.052
------------------------------------------------------------
  Evaluating new KS density.
  Integration grid: deviation in total charge (<rho> - N_e) =   1.421085E-14
  Pulay mixing of updated and previous charge densities.

  Evaluating partitioned Hartree potential by multipole expansion.
  | Analytical far-field extrapolation by fixed multipoles:
  | Hartree multipole sum: apparent total charge =  -0.753946E-05
  Summing up the Hartree potential.
  Time summed over all CPUs for potential: real work        3.788 s, elapsed        3.814 s
  | RMS charge density error from multipole expansion :   0.733237E-02

  Integrating Hamiltonian matrix: batch-based integration.
  Time summed over all CPUs for integration: real work       10.821 s, elapsed       11.005 s

  Updating Kohn-Sham eigenvalues, eigenvectors, occupation numbers, and Fermi level.
  Solving generalized eigenproblem
  Updating Kohn-Sham eigenvalues and eigenfunctions.
  Solving real generalised eigenvalue problem by standard LAPACK (fast)
  Determining occupation numbers for Kohn-Sham eigenstates.
  | Chemical potential (Fermi level) in eV                 : -.27417188E+01
  | Error in electron count due to remaining E_F inaccuracy: 0.00000000E+00
  | Maximum occupation number of highest empty state:  0.00E+00

  Highest occupied state (VBM) at     -5.76466659 eV
  | Occupation number:      2.00000000

  Lowest unoccupied state (CBM) at    -2.12271729 eV
  | Occupation number:      0.00000000

  Overall HOMO-LUMO gap:      3.64194929 eV.

  Total energy components:
  | Sum of eigenvalues            :        -250.66794408 Ha       -6821.02180815 eV
  | XC energy correction          :         -55.73123024 Ha       -1516.52393475 eV
  | XC potential correction       :          71.24728884 Ha        1938.73737112 eV
  | Free-atom electrostatic energy:        -214.46809262 Ha       -5835.97373128 eV
  | Hartree energy correction     :          -9.68926628 Ha        -263.65835015 eV
  | van der Waals energy corr.    :           0.00000000 Ha           0.00000000 eV
  | Entropy correction            :           0.00000000 Ha           0.00000000 eV
  | ---------------------------
  | Total energy                  :        -459.30924438 Ha      -12498.44045322 eV
  | Total energy, T -> 0          :        -459.30924438 Ha      -12498.44045322 eV  <-- do not rely on this value for anything but (periodic) metals
  | Electronic free energy        :        -459.30924438 Ha      -12498.44045322 eV

  Derived energy quantities:
  | Kinetic energy                :         460.33880733 Ha       12526.45628650 eV
  | Electrostatic energy          :        -863.91682147 Ha      -23508.37280496 eV
  | Energy correction for multipole
  | error in Hartree potential    :          -0.00092052 Ha          -0.02504873 eV
  | Sum of eigenvalues per atom                           :        -378.94565601 eV
  | Total energy (T->0) per atom                          :        -694.35780296 eV  <-- do not rely on this value for anything but (periodic) metals
  | Electronic free energy per atom                       :        -694.35780296 eV

  Self-consistency convergence accuracy:
  | Change of charge density      : 0.5554E+00
  | Change of sum of eigenvalues  : 0.1878E+03 eV
  | Change of total energy        : 0.5851E+01 eV

  End self-consistency iteration #     2       :  max(cpu_time)    wall_clock(cpu1)
  | Time for this iteration                    :        2.842 s           2.840 s
  | Charge density update                      :        0.891 s           0.890 s
  | Density mixing                             :        0.007 s           0.007 s
  | Hartree multipole update                   :        0.006 s           0.006 s
  | Hartree multipole summation                :        0.477 s           0.477 s
  | Integration                                :        1.378 s           1.378 s
  | Solution of K.-S. eqns.                    :        0.081 s           0.082 s
  | Total energy evaluation                    :        0.001 s           0.000 s
------------------------------------------------------------

------------------------------------------------------------
          Begin self-consistency iteration #    3

  Date     :  20150727, Time     :  114820.893
------------------------------------------------------------
  Evaluating new KS density.
  Integration grid: deviation in total charge (<rho> - N_e) =   2.131628E-14
  Pulay mixing of updated and previous charge densities.

  Evaluating partitioned Hartree potential by multipole expansion.
  | Analytical far-field extrapolation by fixed multipoles:
  | Hartree multipole sum: apparent total charge =  -0.783700E-05
  Summing up the Hartree potential.
  Time summed over all CPUs for potential: real work        3.784 s, elapsed        3.810 s
  | RMS charge density error from multipole expansion :   0.145118E-01

  Integrating Hamiltonian matrix: batch-based integration.
  Time summed over all CPUs for integration: real work       10.815 s, elapsed       11.003 s

  Updating Kohn-Sham eigenvalues, eigenvectors, occupation numbers, and Fermi level.
  Solving generalized eigenproblem
  Updating Kohn-Sham eigenvalues and eigenfunctions.
  Solving real generalised eigenvalue problem by standard LAPACK (fast)
  Determining occupation numbers for Kohn-Sham eigenstates.
  | Chemical potential (Fermi level) in eV                 : -.25622200E+01
  | Error in electron count due to remaining E_F inaccuracy: 0.00000000E+00
  | Maximum occupation number of highest empty state:  0.00E+00

  Highest occupied state (VBM) at     -5.58012979 eV
  | Occupation number:      2.00000000

  Lowest unoccupied state (CBM) at    -2.16626590 eV
  | Occupation number:      0.00000000

  Overall HOMO-LUMO gap:      3.41386388 eV.

  Total energy components:
  | Sum of eigenvalues            :        -250.92620533 Ha       -6828.04945435 eV
  | XC energy correction          :         -55.69078221 Ha       -1515.42328773 eV
  | XC potential correction       :          71.18817614 Ha        1937.12883280 eV
  | Free-atom electrostatic energy:        -214.46809262 Ha       -5835.97373128 eV
  | Hartree energy correction     :          -9.40568294 Ha        -255.94165504 eV
  | van der Waals energy corr.    :           0.00000000 Ha           0.00000000 eV
  | Entropy correction            :           0.00000000 Ha           0.00000000 eV
  | ---------------------------
  | Total energy                  :        -459.30258696 Ha      -12498.25929560 eV
  | Total energy, T -> 0          :        -459.30258696 Ha      -12498.25929560 eV  <-- do not rely on this value for anything but (periodic) metals
  | Electronic free energy        :        -459.30258696 Ha      -12498.25929560 eV

  Derived energy quantities:
  | Kinetic energy                :         457.86922388 Ha       12459.25550159 eV
  | Electrostatic energy          :        -861.48102863 Ha      -23442.09150946 eV
  | Energy correction for multipole
  | error in Hartree potential    :          -0.00612233 Ha          -0.16659695 eV
  | Sum of eigenvalues per atom                           :        -379.33608080 eV
  | Total energy (T->0) per atom                          :        -694.34773864 eV  <-- do not rely on this value for anything but (periodic) metals
  | Electronic free energy per atom                       :        -694.34773864 eV

  Self-consistency convergence accuracy:
  | Change of charge density      : 0.2745E+00
  | Change of sum of eigenvalues  : -.7028E+01 eV
  | Change of total energy        : 0.1812E+00 eV

  End self-consistency iteration #     3       :  max(cpu_time)    wall_clock(cpu1)
  | Time for this iteration                    :        2.839 s           2.838 s
  | Charge density update                      :        0.888 s           0.887 s
  | Density mixing                             :        0.008 s           0.009 s
  | Hartree multipole update                   :        0.006 s           0.006 s
  | Hartree multipole summation                :        0.477 s           0.477 s
  | Integration                                :        1.378 s           1.377 s
  | Solution of K.-S. eqns.                    :        0.082 s           0.081 s
  | Total energy evaluation                    :        0.000 s           0.000 s
------------------------------------------------------------

------------------------------------------------------------
          Begin self-consistency iteration #    4

  Date     :  20150727, Time     :  114823.732
------------------------------------------------------------
  Evaluating new KS density.
  Integration grid: deviation in total charge (<rho> - N_e) =   2.842171E-14
  Pulay mixing of updated and previous charge densities.

  Evaluating partitioned Hartree potential by multipole expansion.
  | Analytical far-field extrapolation by fixed multipoles:
  | Hartree multipole sum: apparent total charge =  -0.958945E-05
  Summing up the Hartree potential.
  Time summed over all CPUs for potential: real work        3.782 s, elapsed        3.809 s
  | RMS charge density error from multipole expansion :   0.191243E-01

  Integrating Hamiltonian matrix: batch-based integration.
  Time summed over all CPUs for integration: real work       10.818 s, elapsed       10.989 s

  Updating Kohn-Sham eigenvalues, eigenvectors, occupation numbers, and Fermi level.
  Solving generalized eigenproblem
  Updating Kohn-Sham eigenvalues and eigenfunctions.
  Solving real generalised eigenvalue problem by standard LAPACK (fast)
  Determining occupation numbers for Kohn-Sham eigenstates.
  | Chemical potential (Fermi level) in eV                 : -.30552259E+01
  | Error in electron count due to remaining E_F inaccuracy: 0.00000000E+00
  | Maximum occupation number of highest empty state:  0.00E+00

  Highest occupied state (VBM) at     -4.22851055 eV
  | Occupation number:      2.00000000

  Lowest unoccupied state (CBM) at    -2.09248615 eV
  | Occupation number:      0.00000000

  Overall HOMO-LUMO gap:      2.13602439 eV.

  Total energy components:
  | Sum of eigenvalues            :        -248.69940724 Ha       -6767.45519542 eV
  | XC energy correction          :         -55.94782698 Ha       -1522.41783189 eV
  | XC potential correction       :          71.52280208 Ha        1946.23446778 eV
  | Free-atom electrostatic energy:        -214.46809262 Ha       -5835.97373128 eV
  | Hartree energy correction     :         -11.69486057 Ha        -318.23334753 eV
  | van der Waals energy corr.    :           0.00000000 Ha           0.00000000 eV
  | Entropy correction            :           0.00000000 Ha           0.00000000 eV
  | ---------------------------
  | Total energy                  :        -459.28738533 Ha      -12497.84563833 eV
  | Total energy, T -> 0          :        -459.28738533 Ha      -12497.84563833 eV  <-- do not rely on this value for anything but (periodic) metals
  | Electronic free energy        :        -459.28738533 Ha      -12497.84563833 eV

  Derived energy quantities:
  | Kinetic energy                :         458.09507752 Ha       12465.40129199 eV
  | Electrostatic energy          :        -861.43463588 Ha      -23440.82909844 eV
  | Energy correction for multipole
  | error in Hartree potential    :          -0.00852257 Ha          -0.23191085 eV
  | Sum of eigenvalues per atom                           :        -375.96973308 eV
  | Total energy (T->0) per atom                          :        -694.32475769 eV  <-- do not rely on this value for anything but (periodic) metals
  | Electronic free energy per atom                       :        -694.32475769 eV

  Self-consistency convergence accuracy:
  | Change of charge density      : 0.1546E+00
  | Change of sum of eigenvalues  : 0.6059E+02 eV
  | Change of total energy        : 0.4137E+00 eV

  End self-consistency iteration #     4       :  max(cpu_time)    wall_clock(cpu1)
  | Time for this iteration                    :        2.839 s           2.837 s
  | Charge density update                      :        0.888 s           0.887 s
  | Density mixing                             :        0.010 s           0.010 s
  | Hartree multipole update                   :        0.006 s           0.006 s
  | Hartree multipole summation                :        0.477 s           0.477 s
  | Integration                                :        1.376 s           1.376 s
  | Solution of K.-S. eqns.                    :        0.081 s           0.081 s
  | Total energy evaluation                    :        0.001 s           0.000 s
------------------------------------------------------------

------------------------------------------------------------
          Begin self-consistency iteration #    5

  Date     :  20150727, Time     :  114826.569
------------------------------------------------------------
  Evaluating new KS density.
  Integration grid: deviation in total charge (<rho> - N_e) =   2.131628E-14
  Pulay mixing of updated and previous charge densities.

  Evaluating partitioned Hartree potential by multipole expansion.
  | Analytical far-field extrapolation by fixed multipoles:
  | Hartree multipole sum: apparent total charge =  -0.957403E-05
  Summing up the Hartree potential.
  Time summed over all CPUs for potential: real work        3.782 s, elapsed        3.810 s
  | RMS charge density error from multipole expansion :   0.196743E-01

  Integrating Hamiltonian matrix: batch-based integration.
  Time summed over all CPUs for integration: real work       10.818 s, elapsed       11.007 s

  Updating Kohn-Sham eigenvalues, eigenvectors, occupation numbers, and Fermi level.
  Solving generalized eigenproblem
  Updating Kohn-Sham eigenvalues and eigenfunctions.
  Solving real generalised eigenvalue problem by standard LAPACK (fast)
  Determining occupation numbers for Kohn-Sham eigenstates.
  | Chemical potential (Fermi level) in eV                 : -.30409438E+01
  | Error in electron count due to remaining E_F inaccuracy: 0.00000000E+00
  | Maximum occupation number of highest empty state:  0.00E+00

  Highest occupied state (VBM) at     -4.06290200 eV
  | Occupation number:      2.00000000

  Lowest unoccupied state (CBM) at    -2.08118909 eV
  | Occupation number:      0.00000000

  Overall HOMO-LUMO gap:      1.98171291 eV.

  Total energy components:
  | Sum of eigenvalues            :        -248.63000904 Ha       -6765.56677419 eV
  | XC energy correction          :         -55.96098930 Ha       -1522.77599683 eV
  | XC potential correction       :          71.53932611 Ha        1946.68410962 eV
  | Free-atom electrostatic energy:        -214.46809262 Ha       -5835.97373128 eV
  | Hartree energy correction     :         -11.76740645 Ha        -320.20742150 eV
  | van der Waals energy corr.    :           0.00000000 Ha           0.00000000 eV
  | Entropy correction            :           0.00000000 Ha           0.00000000 eV
  | ---------------------------
  | Total energy                  :        -459.28717130 Ha      -12497.83981418 eV
  | Total energy, T -> 0          :        -459.28717130 Ha      -12497.83981418 eV  <-- do not rely on this value for anything but (periodic) metals
  | Electronic free energy        :        -459.28717130 Ha      -12497.83981418 eV

  Derived energy quantities:
  | Kinetic energy                :         458.13515318 Ha       12466.49180604 eV
  | Electrostatic energy          :        -861.46133518 Ha      -23441.55562339 eV
  | Energy correction for multipole
  | error in Hartree potential    :          -0.00867059 Ha          -0.23593867 eV
  | Sum of eigenvalues per atom                           :        -375.86482079 eV
  | Total energy (T->0) per atom                          :        -694.32443412 eV  <-- do not rely on this value for anything but (periodic) metals
  | Electronic free energy per atom                       :        -694.32443412 eV

  Self-consistency convergence accuracy:
  | Change of charge density      : 0.3208E-01
  | Change of sum of eigenvalues  : 0.1888E+01 eV
  | Change of total energy        : 0.5824E-02 eV

  End self-consistency iteration #     5       :  max(cpu_time)    wall_clock(cpu1)
  | Time for this iteration                    :        2.842 s           2.841 s
  | Charge density update                      :        0.887 s           0.886 s
  | Density mixing                             :        0.011 s           0.012 s
  | Hartree multipole update                   :        0.006 s           0.006 s
  | Hartree multipole summation                :        0.477 s           0.477 s
  | Integration                                :        1.378 s           1.378 s
  | Solution of K.-S. eqns.                    :        0.081 s           0.081 s
  | Total energy evaluation                    :        0.000 s           0.000 s
------------------------------------------------------------

------------------------------------------------------------
          Begin self-consistency iteration #    6

  Date     :  20150727, Time     :  114829.411
------------------------------------------------------------
  Evaluating new KS density.
  Integration grid: deviation in total charge (<rho> - N_e) =   2.842171E-14
  Pulay mixing of updated and previous charge densities.

  Evaluating partitioned Hartree potential by multipole expansion.
  | Analytical far-field extrapolation by fixed multipoles:
  | Hartree multipole sum: apparent total charge =  -0.959238E-05
  Summing up the Hartree potential.
  Time summed over all CPUs for potential: real work        3.782 s, elapsed        3.809 s
  | RMS charge density error from multipole expansion :   0.198922E-01

  Integrating Hamiltonian matrix: batch-based integration.
  Time summed over all CPUs for integration: real work       10.818 s, elapsed       11.012 s

  Updating Kohn-Sham eigenvalues, eigenvectors, occupation numbers, and Fermi level.
  Solving generalized eigenproblem
  Updating Kohn-Sham eigenvalues and eigenfunctions.
  Solving real generalised eigenvalue problem by standard LAPACK (fast)
  Determining occupation numbers for Kohn-Sham eigenstates.
  | Chemical potential (Fermi level) in eV                 : -.30325104E+01
  | Error in electron count due to remaining E_F inaccuracy: 0.00000000E+00
  | Maximum occupation number of highest empty state:  0.00E+00

  Highest occupied state (VBM) at     -4.04359422 eV
  | Occupation number:      2.00000000

  Lowest unoccupied state (CBM) at    -2.07674715 eV
  | Occupation number:      0.00000000

  Overall HOMO-LUMO gap:      1.96684707 eV.

  Total energy components:
  | Sum of eigenvalues            :        -248.59253146 Ha       -6764.54695752 eV
  | XC energy correction          :         -55.96680111 Ha       -1522.93414436 eV
  | XC potential correction       :          71.54671063 Ha        1946.88505271 eV
  | Free-atom electrostatic energy:        -214.46809262 Ha       -5835.97373128 eV
  | Hartree energy correction     :         -11.80651136 Ha        -321.27152024 eV
  | van der Waals energy corr.    :           0.00000000 Ha           0.00000000 eV
  | Entropy correction            :           0.00000000 Ha           0.00000000 eV
  | ---------------------------
  | Total energy                  :        -459.28722593 Ha      -12497.84130069 eV
  | Total energy, T -> 0          :        -459.28722593 Ha      -12497.84130069 eV  <-- do not rely on this value for anything but (periodic) metals
  | Electronic free energy        :        -459.28722593 Ha      -12497.84130069 eV

  Derived energy quantities:
  | Kinetic energy                :         458.14175980 Ha       12466.67158144 eV
  | Electrostatic energy          :        -861.46218462 Ha      -23441.57873777 eV
  | Energy correction for multipole
  | error in Hartree potential    :          -0.00874701 Ha          -0.23801824 eV
  | Sum of eigenvalues per atom                           :        -375.80816431 eV
  | Total energy (T->0) per atom                          :        -694.32451671 eV  <-- do not rely on this value for anything but (periodic) metals
  | Electronic free energy per atom                       :        -694.32451671 eV

  Self-consistency convergence accuracy:
  | Change of charge density      : 0.1287E-01
  | Change of sum of eigenvalues  : 0.1020E+01 eV
  | Change of total energy        : -.1487E-02 eV

  End self-consistency iteration #     6       :  max(cpu_time)    wall_clock(cpu1)
  | Time for this iteration                    :        2.844 s           2.844 s
  | Charge density update                      :        0.887 s           0.887 s
  | Density mixing                             :        0.013 s           0.014 s
  | Hartree multipole update                   :        0.006 s           0.006 s
  | Hartree multipole summation                :        0.477 s           0.477 s
  | Integration                                :        1.379 s           1.378 s
  | Solution of K.-S. eqns.                    :        0.081 s           0.081 s
  | Total energy evaluation                    :        0.000 s           0.000 s
------------------------------------------------------------

------------------------------------------------------------
          Begin self-consistency iteration #    7

  Date     :  20150727, Time     :  114832.255
------------------------------------------------------------
  Evaluating new KS density.
  Integration grid: deviation in total charge (<rho> - N_e) =   3.552714E-14
  Pulay mixing of updated and previous charge densities.

  Evaluating partitioned Hartree potential by multipole expansion.
  | Analytical far-field extrapolation by fixed multipoles:
  | Hartree multipole sum: apparent total charge =  -0.933995E-05
  Summing up the Hartree potential.
  Time summed over all CPUs for potential: real work        3.782 s, elapsed        3.810 s
  | RMS charge density error from multipole expansion :   0.198742E-01

  Integrating Hamiltonian matrix: batch-based integration.
  Time summed over all CPUs for integration: real work       10.816 s, elapsed       11.026 s

  Updating Kohn-Sham eigenvalues, eigenvectors, occupation numbers, and Fermi level.
  Solving generalized eigenproblem
  Updating Kohn-Sham eigenvalues and eigenfunctions.
  Solving real generalised eigenvalue problem by standard LAPACK (fast)
  Determining occupation numbers for Kohn-Sham eigenstates.
  | Chemical potential (Fermi level) in eV                 : -.30682392E+01
  | Error in electron count due to remaining E_F inaccuracy: 0.00000000E+00
  | Maximum occupation number of highest empty state:  0.00E+00

  Highest occupied state (VBM) at     -4.21556025 eV
  | Occupation number:      2.00000000

  Lowest unoccupied state (CBM) at    -2.07317960 eV
  | Occupation number:      0.00000000

  Overall HOMO-LUMO gap:      2.14238065 eV.

  Total energy components:
  | Sum of eigenvalues            :        -248.79533218 Ha       -6770.06544573 eV
  | XC energy correction          :         -55.94797726 Ha       -1522.42192130 eV
  | XC potential correction       :          71.52140148 Ha        1946.19635567 eV
  | Free-atom electrostatic energy:        -214.46809262 Ha       -5835.97373128 eV
  | Hartree energy correction     :         -11.59706875 Ha        -315.57229683 eV
  | van der Waals energy corr.    :           0.00000000 Ha           0.00000000 eV
  | Entropy correction            :           0.00000000 Ha           0.00000000 eV
  | ---------------------------
  | Total energy                  :        -459.28706933 Ha      -12497.83703946 eV
  | Total energy, T -> 0          :        -459.28706933 Ha      -12497.83703946 eV  <-- do not rely on this value for anything but (periodic) metals
  | Electronic free energy        :        -459.28706933 Ha      -12497.83703946 eV

  Derived energy quantities:
  | Kinetic energy                :         458.20936521 Ha       12468.51121824 eV
  | Electrostatic energy          :        -861.54845728 Ha      -23443.92633640 eV
  | Energy correction for multipole
  | error in Hartree potential    :          -0.00851911 Ha          -0.23181680 eV
  | Sum of eigenvalues per atom                           :        -376.11474698 eV
  | Total energy (T->0) per atom                          :        -694.32427997 eV  <-- do not rely on this value for anything but (periodic) metals
  | Electronic free energy per atom                       :        -694.32427997 eV

  Self-consistency convergence accuracy:
  | Change of charge density      : 0.1251E-01
  | Change of sum of eigenvalues  : -.5518E+01 eV
  | Change of total energy        : 0.4261E-02 eV

  End self-consistency iteration #     7       :  max(cpu_time)    wall_clock(cpu1)
  | Time for this iteration                    :        2.848 s           2.847 s
  | Charge density update                      :        0.887 s           0.887 s
  | Density mixing                             :        0.015 s           0.015 s
  | Hartree multipole update                   :        0.006 s           0.006 s
  | Hartree multipole summation                :        0.477 s           0.477 s
  | Integration                                :        1.381 s           1.380 s
  | Solution of K.-S. eqns.                    :        0.081 s           0.082 s
  | Total energy evaluation                    :        0.000 s           0.000 s
------------------------------------------------------------

------------------------------------------------------------
          Begin self-consistency iteration #    8

  Date     :  20150727, Time     :  114835.103
------------------------------------------------------------
  Evaluating new KS density.
  Integration grid: deviation in total charge (<rho> - N_e) =   7.105427E-15
  Pulay mixing of updated and previous charge densities.

  Evaluating partitioned Hartree potential by multipole expansion.
  | Analytical far-field extrapolation by fixed multipoles:
  | Hartree multipole sum: apparent total charge =  -0.935164E-05
  Summing up the Hartree potential.
  Time summed over all CPUs for potential: real work        3.782 s, elapsed        3.809 s
  | RMS charge density error from multipole expansion :   0.199420E-01

  Integrating Hamiltonian matrix: batch-based integration.
  Time summed over all CPUs for integration: real work       10.811 s, elapsed       10.980 s

  Updating Kohn-Sham eigenvalues, eigenvectors, occupation numbers, and Fermi level.
  Solving generalized eigenproblem
  Updating Kohn-Sham eigenvalues and eigenfunctions.
  Solving real generalised eigenvalue problem by standard LAPACK (fast)
  Determining occupation numbers for Kohn-Sham eigenstates.
  | Chemical potential (Fermi level) in eV                 : -.30739026E+01
  | Error in electron count due to remaining E_F inaccuracy: 0.00000000E+00
  | Maximum occupation number of highest empty state:  0.00E+00

  Highest occupied state (VBM) at     -4.18333598 eV
  | Occupation number:      2.00000000

  Lowest unoccupied state (CBM) at    -2.07551269 eV
  | Occupation number:      0.00000000

  Overall HOMO-LUMO gap:      2.10782329 eV.

  Total energy components:
  | Sum of eigenvalues            :        -248.76583219 Ha       -6769.26271032 eV
  | XC energy correction          :         -55.95107714 Ha       -1522.50627325 eV
  | XC potential correction       :          71.52543771 Ha        1946.30618713 eV
  | Free-atom electrostatic energy:        -214.46809262 Ha       -5835.97373128 eV
  | Hartree energy correction     :         -11.62750478 Ha        -316.40050321 eV
  | van der Waals energy corr.    :           0.00000000 Ha           0.00000000 eV
  | Entropy correction            :           0.00000000 Ha           0.00000000 eV
  | ---------------------------
  | Total energy                  :        -459.28706902 Ha      -12497.83703093 eV
  | Total energy, T -> 0          :        -459.28706902 Ha      -12497.83703093 eV  <-- do not rely on this value for anything but (periodic) metals
  | Electronic free energy        :        -459.28706902 Ha      -12497.83703093 eV

  Derived energy quantities:
  | Kinetic energy                :         458.21158846 Ha       12468.57171582 eV
  | Electrostatic energy          :        -861.54758033 Ha      -23443.90247350 eV
  | Energy correction for multipole
  | error in Hartree potential    :          -0.00857433 Ha          -0.23331934 eV
  | Sum of eigenvalues per atom                           :        -376.07015057 eV
  | Total energy (T->0) per atom                          :        -694.32427950 eV  <-- do not rely on this value for anything but (periodic) metals
  | Electronic free energy per atom                       :        -694.32427950 eV

  Self-consistency convergence accuracy:
  | Change of charge density      : 0.2400E-02
  | Change of sum of eigenvalues  : 0.8027E+00 eV
  | Change of total energy        : 0.8533E-05 eV

  End self-consistency iteration #     8       :  max(cpu_time)    wall_clock(cpu1)
  | Time for this iteration                    :        2.842 s           2.841 s
  | Charge density update                      :        0.885 s           0.885 s
  | Density mixing                             :        0.017 s           0.016 s
  | Hartree multipole update                   :        0.006 s           0.006 s
  | Hartree multipole summation                :        0.477 s           0.477 s
  | Integration                                :        1.375 s           1.375 s
  | Solution of K.-S. eqns.                    :        0.082 s           0.082 s
  | Total energy evaluation                    :        0.000 s           0.000 s
------------------------------------------------------------

------------------------------------------------------------
          Begin self-consistency iteration #    9

  Date     :  20150727, Time     :  114837.944
------------------------------------------------------------
  Evaluating new KS density.
  Integration grid: deviation in total charge (<rho> - N_e) =   2.842171E-14
  Pulay mixing of updated and previous charge densities.

[...]
   Pulay + GGA                   : 0.308260E+01 0.484528E+01 0.136980E+02
   Van der Waals               : -.107197E-01 -.549049E-02 -.462948E-02
   ----------------------------------------------------------------
   Total forces(  13)            : 0.134359E+01 0.882123E+00 -.214178E+01
  atom #   14
   Hellmann-Feynman + Multipole  : -.485724E+00 -.346447E+00 0.189901E+00
   Pulay + GGA                   : 0.856713E-01 0.758166E-01 0.557225E-01
   Van der Waals               : -.536617E-02 -.220707E-02 0.106167E-02
   ----------------------------------------------------------------
   Total forces(  14)            : -.405418E+00 -.272837E+00 0.246685E+00
  atom #   15
   Hellmann-Feynman + Multipole  : -.617144E+00 -.453111E+00 0.150828E+01
   Pulay + GGA                   : -.461675E-01 -.435353E-02 0.624688E-01
   Van der Waals               : -.358830E-02 -.339760E-03 -.647048E-02
   ----------------------------------------------------------------
   Total forces(  15)            : -.666899E+00 -.457804E+00 0.156427E+01
  atom #   16
   Hellmann-Feynman + Multipole  : -.171667E+01 -.134336E+02 -.150843E+00
   Pulay + GGA                   : 0.267881E+01 0.139970E+02 -.185300E+01
   Van der Waals               : 0.692141E-02 -.804951E-02 -.613298E-02
   ----------------------------------------------------------------
   Total forces(  16)            : 0.969058E+00 0.555332E+00 -.200998E+01
  atom #   17
   Hellmann-Feynman + Multipole  : -.287252E+00 0.540275E+00 0.303230E+00
   Pulay + GGA                   : -.810510E-01 0.879631E-01 0.727671E-01
   Van der Waals               : 0.261044E-02 -.273301E-02 -.441775E-03
   ----------------------------------------------------------------
   Total forces(  17)            : -.365693E+00 0.625505E+00 0.375556E+00
  atom #   18
   Hellmann-Feynman + Multipole  : -.934440E+00 -.882000E+00 0.160642E+01
   Pulay + GGA                   : 0.385617E-01 0.705058E-01 -.113887E+00
   Van der Waals               : 0.357766E-02 -.384671E-02 -.322018E-02
   ----------------------------------------------------------------
   Total forces(  18)            : -.892300E+00 -.815341E+00 0.148931E+01
  Timings for vdw_correction_hirshfeld (Tkatchenko-Scheffler 2009):
  | CPU time:        7.499 s, Wall clock time:        7.498 s.
  Removing unitary transformations (pure translations, rotations) from forces on atoms.
  Atomic forces before filtering:
  | Net force on center of mass :  0.114328E-01 0.193007E-02 0.509936E-02 eV/A
  | Net torque on center of mass:  -.358712E-02 -.142524E-01 0.271755E-02 eV
  Atomic forces after filtering:
  | Net force on center of mass :  -.356812E-15 0.000000E+00 0.178406E-14 eV/A
  | Net torque on center of mass:  -.151054E-14 -.604214E-14 0.000000E+00 eV
 
  Energy and forces in a compact form:
  | Total energy uncorrected      :         -0.124979371688939E+05 eV
  | Total energy corrected        :         -0.124979371688939E+05 eV  <-- do not rely on this value for anything but (periodic) metals
  | Electronic free energy        :         -0.124979371688939E+05 eV
  Total atomic forces (unitary forces cleaned) [eV/Ang]:
  |   1          0.801011703044081E+00          0.278451040024096E+01         -0.184988468302409E+01
  |   2          0.203358831359156E+01         -0.315437102993038E+01          0.131796973712107E+01
  |   3         -0.206935467738752E+01         -0.436739198959663E+00         -0.849273255355995E-01
  |   4         -0.746563913388067E+00         -0.200119169320082E+01         -0.512189623119312E+00
  |   5         -0.250094839543987E+00          0.759477587394823E+00          0.101370372111387E+01
  |   6          0.637528360452785E+00          0.718540794027437E+00          0.206217098681122E+00
  |   7          0.599770312915732E-01          0.114631183911445E+01          0.257578356831533E+01
  |   8         -0.316837674016647E+00         -0.696793928112459E+00         -0.461432682239113E+00
  |   9         -0.266328762789501E+00          0.443462464615859E+00         -0.245139537727551E+01
  |  10         -0.652769815083887E+00          0.976546675189794E+00          0.261559402701867E+01
  |  11         -0.270275909179263E+00          0.182219529342514E+00         -0.219792517896289E+01
  |  12          0.106069621800195E+01         -0.123810279629753E+01          0.306255899366019E+00
  |  13          0.134299605725555E+01          0.881968893403459E+00         -0.214239103699299E+01
  |  14         -0.405947173944601E+00         -0.273015743662000E+00          0.245966336880625E+00
  |  15         -0.667383540702956E+00         -0.457971488954157E+00          0.156373827076909E+01
  |  16          0.968631485276133E+00          0.555213058724845E+00         -0.200998088267206E+01
  |  17         -0.366031228965028E+00          0.625378167326048E+00          0.375648467947679E+00
  |  18         -0.892841633912178E+00         -0.815443530263178E+00          0.148924966260811E+01
 
  ------------------------------------ 
  Start decomposition of the XC Energy 
  ------------------------------------ 
  Hartree-Fock part   :          0.000000000 Ha              0.000000000 eV
  ------------------------------------ 
  X Energy            :        -53.981545636 Ha          -1468.912594218 eV
  C Energy GGA        :         -1.968359220 Ha            -53.561779572 eV
  Total XC Energy     :        -55.949904857 Ha          -1522.474373790 eV
  LDA X and C from self-consistent density 
  X Energy LDA        :        -48.659765570 Ha          -1324.099590608 eV
  C Energy LDA        :         -3.962651021 Ha           -107.829220579 eV
  ------------------------------------ 
  End decomposition of the XC Energy 
  ------------------------------------ 
  Performing Hirshfeld analysis of fragment charges and moments.
  ----------------------------------------------------------------------
  | Atom     1: O
  |   Hirshfeld charge        :     -0.34863678
  |   Free atom volume        :     23.95238533
  |   Hirshfeld volume        :     23.75146128
  |   Hirshfeld dipole vector :      0.01486162       0.05760753       0.03403345
  |   Hirshfeld dipole moment :      0.06854029
  |   Hirshfeld second moments:      0.02562088      -0.01318564       0.01704764
  |                                 -0.01318564      -0.05245550      -0.03175661
  |                                  0.01704764      -0.03175661      -0.08022414
  ----------------------------------------------------------------------
  | Atom     2: H
  |   Hirshfeld charge        :      0.06482348
  |   Free atom volume        :     10.44207651
  |   Hirshfeld volume        :      8.40621955
  |   Hirshfeld dipole vector :     -0.02581610       0.03923594      -0.00772286
  |   Hirshfeld dipole moment :      0.04759803
  |   Hirshfeld second moments:      0.07099971       0.03030971       0.00147776
  |                                  0.03030971       0.02774276       0.00706995
  |                                  0.00147776       0.00706995       0.06226599
  ----------------------------------------------------------------------
  | Atom     3: H
  |   Hirshfeld charge        :      0.09805693
  |   Free atom volume        :     10.44207651
  |   Hirshfeld volume        :      7.96560522
  |   Hirshfeld dipole vector :      0.10615564       0.02385795       0.01975631
  |   Hirshfeld dipole moment :      0.11058270
  |   Hirshfeld second moments:      0.08505253      -0.01767619      -0.00358028
  |                                 -0.01767619       0.07531117      -0.01532623
  |                                 -0.00358028      -0.01532623       0.06264560
  ----------------------------------------------------------------------
  | Atom     4: O
  |   Hirshfeld charge        :     -0.31037559
  |   Free atom volume        :     23.95238533
  |   Hirshfeld volume        :     22.43928769
  |   Hirshfeld dipole vector :     -0.02740774       0.02492682       0.01416547
  |   Hirshfeld dipole moment :      0.03966347
  |   Hirshfeld second moments:      0.01673933       0.05526920      -0.01114699
  |                                  0.05526920       0.00928833       0.01740791
  |                                 -0.01114699       0.01740791      -0.01262634
  ----------------------------------------------------------------------
  | Atom     5: H
  |   Hirshfeld charge        :      0.07219693
  |   Free atom volume        :     10.44207651
  |   Hirshfeld volume        :      8.09274093
  |   Hirshfeld dipole vector :      0.01564523       0.04262110       0.03006407
  |   Hirshfeld dipole moment :      0.05445347
  |   Hirshfeld second moments:      0.08323026       0.00095371      -0.01204373
  |                                  0.00095371       0.03571088      -0.01902526
  |                                 -0.01204373      -0.01902526       0.06919725
  ----------------------------------------------------------------------
  | Atom     6: H
  |   Hirshfeld charge        :      0.12060585
  |   Free atom volume        :     10.44207651
  |   Hirshfeld volume        :      6.95844795
  |   Hirshfeld dipole vector :     -0.10102989      -0.06035412       0.01964358
  |   Hirshfeld dipole moment :      0.11931274
  |   Hirshfeld second moments:      0.09089294       0.01410070      -0.00011050
  |                                  0.01410070       0.10482293       0.01234550
  |                                 -0.00011050       0.01234550       0.09538900
  ----------------------------------------------------------------------
  | Atom     7: O
  |   Hirshfeld charge        :     -0.17250620
  |   Free atom volume        :     23.95238533
  |   Hirshfeld volume        :     19.96603780
  |   Hirshfeld dipole vector :      0.03178801      -0.01250692      -0.01526699
  |   Hirshfeld dipole moment :      0.03741633
  |   Hirshfeld second moments:      0.04900339       0.02108019       0.02900266
  |                                  0.02108019       0.09387449       0.01119013
  |                                  0.02900266       0.01119013       0.11119739
  ----------------------------------------------------------------------
  | Atom     8: H
  |   Hirshfeld charge        :      0.17546326
  |   Free atom volume        :     10.44207651
  |   Hirshfeld volume        :      6.21255095
  |   Hirshfeld dipole vector :      0.05527638       0.08772157       0.03979028
  |   Hirshfeld dipole moment :      0.11105772
  |   Hirshfeld second moments:      0.10651370      -0.00319115      -0.00085860
  |                                 -0.00319115       0.12325324      -0.00579112
  |                                 -0.00085860      -0.00579112       0.13578704
  ----------------------------------------------------------------------
  | Atom     9: H
  |   Hirshfeld charge        :      0.17351935
  |   Free atom volume        :     10.44207651
  |   Hirshfeld volume        :      5.71589412
  |   Hirshfeld dipole vector :     -0.01774883       0.00808032      -0.11999307
  |   Hirshfeld dipole moment :      0.12156747
  |   Hirshfeld second moments:      0.12620886       0.01184592       0.00853263
  |                                  0.01184592       0.14001831       0.00384466
  |                                  0.00853263       0.00384466       0.12934706
  ----------------------------------------------------------------------
  | Atom    10: O
  |   Hirshfeld charge        :     -0.19075243
  |   Free atom volume        :     23.95238533
  |   Hirshfeld volume        :     20.35212445
  |   Hirshfeld dipole vector :      0.00038343      -0.01020332      -0.01464654
  |   Hirshfeld dipole moment :      0.01785429
  |   Hirshfeld second moments:      0.06019956      -0.01437119       0.00716381
  |                                 -0.01437119       0.05776833      -0.00620658
  |                                  0.00716381      -0.00620658       0.09784873
  ----------------------------------------------------------------------
  | Atom    11: H
  |   Hirshfeld charge        :      0.16172771
  |   Free atom volume        :     10.44207651
  |   Hirshfeld volume        :      5.86224725
  |   Hirshfeld dipole vector :      0.01926584      -0.01581485       0.11370802
  |   Hirshfeld dipole moment :      0.11640788
  |   Hirshfeld second moments:      0.13004054      -0.00819084      -0.00020569
  |                                 -0.00819084       0.12516635       0.00018393
  |                                 -0.00020569       0.00018393       0.12145219
  ----------------------------------------------------------------------
  | Atom    12: H
  |   Hirshfeld charge        :      0.10300763
  |   Free atom volume        :     10.44207651
  |   Hirshfeld volume        :      7.32729660
  |   Hirshfeld dipole vector :     -0.02738324       0.02396467       0.00272187
  |   Hirshfeld dipole moment :      0.03649049
  |   Hirshfeld second moments:      0.06617316       0.02317302      -0.01752667
  |                                  0.02317302       0.06813087       0.01316402
  |                                 -0.01752667       0.01316402       0.10980736
  ----------------------------------------------------------------------
  | Atom    13: O
  |   Hirshfeld charge        :     -0.32804436
  |   Free atom volume        :     23.95238533
  |   Hirshfeld volume        :     22.24283087
  |   Hirshfeld dipole vector :      0.00835600      -0.00494240       0.06234780
  |   Hirshfeld dipole moment :      0.06309911
  |   Hirshfeld second moments:      0.03730342       0.05346072      -0.00371183
  |                                  0.05346072      -0.01255048       0.00283538
  |                                 -0.00371183       0.00283538      -0.01087854
  ----------------------------------------------------------------------
  | Atom    14: H
  |   Hirshfeld charge        :      0.13197730
  |   Free atom volume        :     10.44207651
  |   Hirshfeld volume        :      6.56965352
  |   Hirshfeld dipole vector :      0.10051213       0.06278320       0.03958990
  |   Hirshfeld dipole moment :      0.12494711
  |   Hirshfeld second moments:      0.11006935       0.01256541      -0.01082294
  |                                  0.01256541       0.09729866      -0.00506103
  |                                 -0.01082294      -0.00506103       0.10955887
  ----------------------------------------------------------------------
  | Atom    15: H
  |   Hirshfeld charge        :      0.08159138
  |   Free atom volume        :     10.44207651
  |   Hirshfeld volume        :      7.83192975
  |   Hirshfeld dipole vector :     -0.02578575      -0.02146371       0.03827660
  |   Hirshfeld dipole moment :      0.05089886
  |   Hirshfeld second moments:      0.06860914      -0.00127645       0.03527553
  |                                 -0.00127645       0.07649236       0.01465861
  |                                  0.03527553       0.01465861       0.06036093
  ----------------------------------------------------------------------
  | Atom    16: O
  |   Hirshfeld charge        :     -0.18647370
  |   Free atom volume        :     23.95238533
  |   Hirshfeld volume        :     19.99296436
  |   Hirshfeld dipole vector :      0.02074992       0.01191732       0.01245657
  |   Hirshfeld dipole moment :      0.02697680
  |   Hirshfeld second moments:      0.06317532      -0.02242296      -0.04033123
  |                                 -0.02242296       0.07725345      -0.00654712
  |                                 -0.04033123      -0.00654712       0.09640906
  ----------------------------------------------------------------------
  | Atom    17: H
  |   Hirshfeld charge        :      0.17379579
  |   Free atom volume        :     10.44207651
  |   Hirshfeld volume        :      5.45234250
  |   Hirshfeld dipole vector :     -0.06130967       0.08280215       0.06755256
  |   Hirshfeld dipole moment :      0.12320073
  |   Hirshfeld second moments:      0.13156746       0.00033318      -0.00930406
  |                                  0.00033318       0.13365409      -0.01217847
  |                                 -0.00930406      -0.01217847       0.14153165
  ----------------------------------------------------------------------
  | Atom    18: H
  |   Hirshfeld charge        :      0.17994978
  |   Free atom volume        :     10.44207651
  |   Hirshfeld volume        :      6.11809275
  |   Hirshfeld dipole vector :      0.05009984       0.05161790      -0.08659563
  |   Hirshfeld dipole moment :      0.11257532
  |   Hirshfeld second moments:      0.10959191      -0.01085510      -0.00147114
  |                                 -0.01085510       0.13565092       0.00392425
  |                                 -0.00147114       0.00392425       0.12483945
  ----------------------------------------------------------------------


------------------------------------------------------------------------------
  Final output of selected total energy values:

  The following output summarizes some interesting total energy values
  at the end of a run (AFTER all relaxation, molecular dynamics, etc.).

  | Total energy of the DFT / Hartree-Fock s.c.f. calculation      :         -12497.937168894 eV
  | Final zero-broadening corrected energy (caution - metals only) :         -12497.937168894 eV
  | For reference only, the value of 1 Hartree used in FHI-aims is :             27.211384500 eV

  Before relying on these values, please be sure to understand exactly which
  total energy value is referred to by a given number. Different objects may
  all carry the same name 'total energy'. Definitions:

  Total energy of the DFT / Hartree-Fock s.c.f. calculation:
  | Note that this energy does not include ANY quantities calculated after the
  | s.c.f. cycle, in particular not ANY RPA, MP2, etc. many-body perturbation terms.

  Final zero-broadening corrected energy:
  | For metallic systems only, a broadening of the occupation numbers at the Fermi
  | level can be extrapolated back to zero broadening by an electron-gas inspired
  | formula. For all systems that are not real metals, this value can be
  | meaningless and should be avoided.

------------------------------------------------------------------------------

------------------------------------------------------------
          Leaving FHI-aims.
          Date     :  20150727, Time     :  114906.356

          Computational steps:
          | Number of self-consistency cycles          :           16

          Detailed time accounting                     :  max(cpu_time)    wall_clock(cpu1)
          | Total time                                 :       54.661 s          54.666 s
          | Preparation time                           :        0.174 s           0.556 s
          | Grid partitioning                          :        0.207 s           0.207 s
          | Preloading free-atom quantities on grid    :        0.014 s           0.013 s
          | Free-atom superposition energy             :        0.088 s           0.089 s
          | Total time for integrations                :       24.162 s          24.160 s
          | Total time for solution of K.-S. equations :        1.594 s           1.594 s
          | Total time for density & force components  :       18.070 s          18.072 s
          | Total time for mixing                      :        0.248 s           0.249 s
          | Total time for Hartree multipole update    :        0.098 s           0.097 s
          | Total time for Hartree multipole sum       :        9.207 s           9.209 s
          | Total time for total energy evaluation     :        0.008 s           0.002 s
          | Total time for scaled ZORA corrections     :        0.000 s           0.000 s
          | Total time for TS (2009) vdW correction    :        0.072 s           0.072 s

          Have a nice day.
------------------------------------------------------------
