  MPI-parallelism will be employed.
------------------------------------------------------------
          Invoking FHI-aims ...
          Version 081213
          Compiled on 2013/08/29 at 17:41:06 on host generoso.

          When using FHI-aims, please cite the following reference:

          Volker Blum, Ralf Gehrke, Felix Hanke, Paula Havu,
          Ville Havu, Xinguo Ren, Karsten Reuter, and Matthias Scheffler,
          'Ab Initio Molecular Simulations with Numeric Atom-Centered Orbitals: FHI-aims',
          Computer Physics Communications 180, 2175-2196 (2009)

          For any questions about FHI-aims, please visit the aimsclub website
          with its forums and wiki. Contributions to both the forums and the
          wiki are warmly encouraged - they are for you, and everyone is welcome there.

------------------------------------------------------------

  Date     :  20150727, Time     :  122836.595
  Time zero on CPU 1             :   0.419920000000000E-01  s.
  Internal wall clock time zero  :           207232116.595  s.

  Using        8 parallel tasks.
  Task        0 on host gen60 reporting.
  Task        1 on host gen60 reporting.
  Task        2 on host gen60 reporting.
  Task        3 on host gen60 reporting.
  Task        4 on host gen60 reporting.
  Task        5 on host gen60 reporting.
  Task        6 on host gen60 reporting.
  Task        7 on host gen60 reporting.

  Performing system and environment tests:
  | Environment variable OMP_NUM_THREADS correctly set to 1.
  | Checking for scalapack...
  | No scalapack compiled in.

  Obtaining array dimensions for all initial allocations:
  
  -----------------------------------------------------------------------
  Parsing control.in (first pass over file, find array dimensions only).
  The contents of control.in will be repeated verbatim below
  unless switched off by setting 'verbatim_writeout .false.' .
  in the first line of control.in .
  -----------------------------------------------------------------------
  
  #########################################################################################
  #
  #  Volker Blum, FHI 2008 : Test run input file control.in
  #
  #########################################################################################
  #
  #  Physical model
  #
    xc                 rpbe
    spin               none
    relativistic       atomic_zora scalar
    charge             0.
   vdw_correction_hirshfeld
  #
  #  SCF convergence
  #
    occupation_type    gaussian 0.01
    mixer              pulay
      n_max_pulay        10
      charge_mix_param   0.1
    sc_accuracy_rho    5E-5
    sc_accuracy_eev    5E-3
    sc_accuracy_etot   5E-6
    sc_iter_limit      3000
  #
  #  Eigenvalue solver
  #
    KS_method          lapack
      empty_states       8
      basis_threshold    0.e-5
  #
  #  Efficiency
  #
  #   all previous settings are now default, except stratmann still
  #   undecided. Continue to handle stratmann with care, if at all.
  #
  #  partition_type stratmann
    partition_type rho_r2
  #  hartree_partition_type stratmann
  #
  #  Oprions for large clusters (100's of atoms: memory saving / better scaling)
  #
  # for periodic systems:
  #
    density_update_method orbital
    packed_matrix_format none
  #  k_grid 6 6 6
  #  output k_eigenvalue 1
  #  distributed_spline_storage .true.
  #
  #  Relaxation
  #
  #  relax_geometry   bfgs 5.e-3
    sc_accuracy_forces 5.E-4
    final_forces_cleaned .true.
  #
  #  Output options
  #
  #  output mulliken
    output Hirshfeld
  #  output dipole
  
  #harmonic_length_scale 0.001
  
  ################################################################################
  #
  #  FHI-aims code project
  #  VB, Fritz-Haber Institut, 2007
  #
  #  Suggested "safe" defaults for H atom (to be pasted into control.in file)
  #  Basis constructed for a non-relativistic H2 molecule using the
  #  PW-LDA functional.
  #
  ################################################################################
    species        H
  #     global species definitions
      nucleus             1
      cut_pot             4.0  2.0  1.0
      cut_free_atom       finite 8.0
      logarithmic         0.00010000 100.00  1.0123
      basis_dep_cutoff    1d-4  # 1d-4 is safe default - please check 5d-4 if you wish!
      radial_base         24 7.0
      radial_multiplier   2
      angular_grids       specified
        division   0.2783  110
        division   0.3822  194
        division   0.5626  302
  #      division   0.5922  434
  #      division   0.6227  590
  #      division   0.7206  770
        outer_grid  302
      l_hartree           4
  ################################################################################
  #
  #  Definition of "minimal" basis
  #
  ################################################################################
  #     valence basis states
      valence      1  s   1.
  #     ion occupancy
      ion_occ      1  s   0.5
  ################################################################################
  #
  #  Suggested additional basis functions. For production calculations,
  #  uncomment them one after another (the most important basis functions are
  #  listed first).
  #
  ################################################################################
  #  "First tier" - improvements: -1014.90 meV to -62.69 meV
       hydro 2 s 2.1
       hydro 2 p 3.5
  #  "Second tier" - improvements: -12.89 meV to -1.83 meV
       hydro 1 s 0.85
       hydro 2 p 3.7
       hydro 2 s 1.2
       hydro 3 d 7
  #  "Third tier" - improvements: -0.25 meV to -0.12 meV
  #     hydro 4 f 11.2
  #     hydro 3 p 4.8
  #     hydro 4 d 9
  #     hydro 3 s 3.2
  
  ################################################################################
  #
  #  FHI-aims code project
  #  VB, Fritz-Haber Institut, 2007
  #
  #  Suggested "safe" defaults for O atom (to be pasted into control.in file)
  #  All values have been tested for a non-relativistic, non-spinpolarized O2
  #  molecule using the PW-LDA functional. Validity for PBE is expected.
  #
  #  Constructed for dimers: 1.0 A, 1.208 A, 1.5 A, 2.0 A, 3.0 A
  #
  ################################################################################
    species        O
  #     global species definitions
      nucleus             8
      mass                15.9994
      l_hartree           4
      cut_pot             4.0  2.0  1.0
      cut_free_atom       finite 8.0
      basis_dep_cutoff    1d-4  # 1d-4 is safe default - please check 5d-4 if you wish!
      logarithmic         0.00010000 100.00  1.0123
      radial_base         36 7.0
      radial_multiplier   2
       angular_grids specified
        division   0.4087  110
        division   0.5181  194
        division   0.6184  302
  #      division   0.7315  434
  #      division   0.7934  590
  #      division   0.9656  770
  #      division   1.4041  974
  #      outer_grid 974
        outer_grid 302
  ################################################################################
  #
  #  Definition of "minimal" basis
  #
  ################################################################################
  #     valence basis states
      valence      2  s   2.
      valence      2  p   4.
  #     ion occupancy
      ion_occ      2  s   1.
      ion_occ      2  p   3.
  ################################################################################
  #
  #  Suggested additional basis functions. For production calculations,
  #  uncomment them one after another (the most important basis functions are
  #  listed first).
  #
  ################################################################################
  #  "First tier" - improvements: -699.05 meV to -159.38 meV
       hydro 2 p 1.8
       hydro 3 d 7.6
       hydro 3 s 6.4
  #  "Second tier" - improvements: -49.91 meV to -5.39 meV
       hydro 4 f 11.6
       hydro 3 p 6.2
       hydro 3 d 5.6
       hydro 5 g 17.6
       hydro 1 s 0.75
  #  "Third tier" - improvements: -2.83 meV to -0.50 meV
  #     ionic 2 p auto
  #     hydro 4 f 10.8
  #     hydro 4 d 4.7
  #     hydro 2 s 6.8
  #  "Fourth tier" - improvements: -0.40 meV to -0.12 meV
  #     hydro 3 p 5
  #     hydro 3 s 3.3
  #     hydro 5 g 15.6
  #     hydro 4 f 17.6
  #     hydro 4 d 14
  # Further basis functions - -0.08 meV and below
  #     hydro 3 s 2.1
  #     hydro 4 d 11.6
  #     hydro 3 p 16
  #     hydro 2 s 17.2
  
  
  -----------------------------------------------------------------------
  Completed first pass over input file control.in .
  -----------------------------------------------------------------------
  
  
  -----------------------------------------------------------------------
  Parsing geometry.in (first pass over file, find array dimensions only).
  The contents of geometry.in will be repeated verbatim below
  unless switched off by setting 'verbatim_writeout .false.' .
  in the first line of geometry.in .
  -----------------------------------------------------------------------
  
  atom      -4.053030000      0.065001000     -1.525160000  O
  atom      -4.566710000      0.974813000     -1.912820000  H
  atom      -3.067820000      0.330172000     -1.477310000  H
  atom      -5.293160000      2.192130000     -2.328800000  O
  atom      -4.829300000      2.988660000     -1.973850000  H
  atom      -5.428570000      2.328640000     -3.235170000  H
  atom      -1.975360000      2.858040000      0.453140000  O
  atom      -1.223550000      3.375850000      0.786238000  H
  atom      -2.537520000      2.567960000      1.156120000  H
  atom      -4.066610000      4.258280000     -0.900064000  O
  atom      -3.224110000      3.876870000     -0.569443000  H
  atom      -3.737450000      5.116530000     -1.322720000  H
  atom      -5.628340000      3.730740000      1.385610000  O
  atom      -6.090650000      4.418470000      1.860350000  H
  atom      -5.158540000      4.200260000      0.615875000  H
  
  -----------------------------------------------------------------------
  Completed first pass over input file geometry.in .
  -----------------------------------------------------------------------
  
 
  Basic array size parameters: 
  | Number of species                 :        2
  | Number of atoms                   :       15
  | Max. basis fn. angular momentum   :        4
  | Max. atomic/ionic basis occupied n:        2
  | Max. number of basis fn. types    :        2
  | Max. radial fns per species/type  :        8
  | Max. logarithmic grid size        :     1301
  | Max. radial integration grid size :       73
  | Max. angular integration grid size:      302
  | Max. angular grid division number :        8
  | Radial grid for Hartree potential :     1301
  | Number of spin channels           :        1

------------------------------------------------------------
          Reading file control.in.
------------------------------------------------------------
  XC: Using RPBE gradient-corrected functionals.
  Spin treatment: No spin polarisation.
  Scalar relativistic treatment of kinetic energy: on-site free-atom approximation to ZORA.
  Charge =   0.000000E+00: Neutral system requested explicitly.
  Using non-empirical van der Waals correction (Hirshfeld partitioning):
  Occupation type: Gaussian broadening, width =   0.100000E-01 eV.
  Using pulay charge density mixing.
  Pulay mixing - number of memorized iterations:   10
  Charge density mixing - mixing parameter:     0.1000
  Convergence accuracy of self-consistent charge density: 0.5000E-04
  Convergence accuracy of sum of eigenvalues: 0.5000E-02
  Convergence accuracy of total energy: 0.5000E-05
  Maximum number of s.-c. iterations  :  3000
  Kohn-Sham eigenvalues and eigenfunctions calculated by lapack diagonalisation (D&C).
  Number of empty states per atom:        8
  Threshold for basis singularities: 0.0000E+00
  Partition function in integrals calculations: rho / r^2
 Using packed matrix format           0
  Convergence accuracy of forces: 0.5000E-03
  Cleaning forces before final output.
  Hirshfeld charge analysis will be performed.
 
  Reading configuration options for species H                   .
  | Found nuclear charge :   1.0000
  | Found cutoff potl. onset [A], width [A], scale factor :    4.00000    2.00000    1.00000
  | Found cutoff specification for free atom: Cutoff potential begins at    8.00000 A.
  | Found logarithmic grid data [bohr] : 0.1000E-03 0.1000E+03 0.1012E+01
  | Threshold for basis-dependent cutoff potential is   0.100000E-03
  | Found data for basic radial integration grid :    24 points, outermost radius =    7.000 A
  | Found multiplier for basic radial grid :   2
  | Found angular grid specification: user-specified.
  | Specified grid contains     4 separate shells.
  | Check grid settings after all constraints further below.
  | Found l_max for Hartree potential  :   4
  | Found free-atom valence shell :  1 s   1.000
  | No ionic wave fns used. Skipping ion_occ.
  | Found hydrogenic basis function :  2 s   2.100
  | Found hydrogenic basis function :  2 p   3.500
  | Found hydrogenic basis function :  1 s   0.850
  | Found hydrogenic basis function :  2 p   3.700
  | Found hydrogenic basis function :  2 s   1.200
  | Found hydrogenic basis function :  3 d   7.000
  Species H                   : Missing cutoff potential type.
  Defaulting to exp(1/x)/(1-x)^2 type cutoff potential.
  Species H : On-site basis accuracy parameter (for Gram-Schmidt orthonormalisation) not specified.
  Using default value basis_acc =  0.1000000E-03.
  Species H                   : Using default innermost maximum threshold i_radial=  2 for radial functions.
  Species H                   : Basic radial grid will be enhanced according to radial_multiplier =   2, to contain    49 grid points.
 
  Reading configuration options for species O                   .
  | Found nuclear charge :   8.0000
  | Found atomic mass :    15.9994000000000      amu
  | Found l_max for Hartree potential  :   4
  | Found cutoff potl. onset [A], width [A], scale factor :    4.00000    2.00000    1.00000
  | Found cutoff specification for free atom: Cutoff potential begins at    8.00000 A.
  | Threshold for basis-dependent cutoff potential is   0.100000E-03
  | Found logarithmic grid data [bohr] : 0.1000E-03 0.1000E+03 0.1012E+01
  | Found data for basic radial integration grid :    36 points, outermost radius =    7.000 A
  | Found multiplier for basic radial grid :   2
  | Found angular grid specification: user-specified.
  | Specified grid contains     4 separate shells.
  | Check grid settings after all constraints further below.
  | Found free-atom valence shell :  2 s   2.000
  | Found free-atom valence shell :  2 p   4.000
  | No ionic wave fns used. Skipping ion_occ.
  | No ionic wave fns used. Skipping ion_occ.
  | Found hydrogenic basis function :  2 p   1.800
  | Found hydrogenic basis function :  3 d   7.600
  | Found hydrogenic basis function :  3 s   6.400
  | Found hydrogenic basis function :  4 f  11.600
  | Found hydrogenic basis function :  3 p   6.200
  | Found hydrogenic basis function :  3 d   5.600
  | Found hydrogenic basis function :  5 g  17.600
  | Found hydrogenic basis function :  1 s   0.750
  Species O                   : Missing cutoff potential type.
  Defaulting to exp(1/x)/(1-x)^2 type cutoff potential.
  Species O : On-site basis accuracy parameter (for Gram-Schmidt orthonormalisation) not specified.
  Using default value basis_acc =  0.1000000E-03.
  Species O                   : Using default innermost maximum threshold i_radial=  2 for radial functions.
  Species O                   : Basic radial grid will be enhanced according to radial_multiplier =   2, to contain    73 grid points.
 
  Finished reading input file 'control.in'. Consistency checks are next.
 
  Target number of points in a grid batch is not set. Defaulting to  100
  Method for grid partitioning is not set. Defaulting to parallel hash+maxmin partitioning.
  Batch size limit is not set. Defaulting to    200
  By default, will store active basis functions for each batch.
  If in need of memory, prune_basis_once .false. can be used to disable this option.
  communication_type for Hartree potential was not specified.
  Defaulting to calc_hartree .
  Pulay mixer: Number of initial linear mixing iterations not set.
  Defaulting to    0 iterations.
  Work space size for distributed Hartree potential not set.
  Defaulting to   0.200000E+03 MB.
  Algorithm-dependent basis array size parameters:
  | n_max_pulay                         :       10
  Geometry relaxation not requested: no relaxation will be performed.
  Handling of forces: Unphysical translation and rotation will be removed from forces.
  No accuracy limit for integral partition fn. given. Defaulting to 0.1000E-14.
  No threshold value for u(r) in integrations given. Defaulting to 0.1000E-05.
  No accuracy for occupation numbers given. Defaulting to 0.1000E-07.
  No threshold value for occupation numbers given. Defaulting to 0.0000E+00.
  No accuracy for fermi level given. Defaulting to 0.1000E-19.
  Maximum # of iterations to find E_F not set. Defaulting to  200.
  Will not use alltoall communication since running on < 1024 CPUs.
  Partitioning for Hartree potential was not defined. Using partition_type for integrals.
  | Reporting present value of keyword multip_moments_threshold  :       0.10000000E-09
  | This value may affect high angular momentum components of the Hartree potential in periodic systems.
  No q(lm)/r^(l+1) cutoff set for long-range Hartree potential.
  | Using default value of  0.100000E-09 .
  | Verify using the multipole_threshold keyword.
  Defaulting to new monopole extrapolation.
  Density update method: Loop over occupied states selected for charge density update.
------------------------------------------------------------


------------------------------------------------------------
          Reading geometry description geometry.in.
------------------------------------------------------------
  Input structure read successfully.
  The structure contains       15 atoms,  and a total of         50.000 electrons.

  Input geometry:
  | No unit cell requested.
  | Atomic structure:
  |       Atom                x [A]            y [A]            z [A]
  |    1: Species O             -4.053030         0.065001        -1.525160
  |    2: Species H             -4.566710         0.974813        -1.912820
  |    3: Species H             -3.067820         0.330172        -1.477310
  |    4: Species O             -5.293160         2.192130        -2.328800
  |    5: Species H             -4.829300         2.988660        -1.973850
  |    6: Species H             -5.428570         2.328640        -3.235170
  |    7: Species O             -1.975360         2.858040         0.453140
  |    8: Species H             -1.223550         3.375850         0.786238
  |    9: Species H             -2.537520         2.567960         1.156120
  |   10: Species O             -4.066610         4.258280        -0.900064
  |   11: Species H             -3.224110         3.876870        -0.569443
  |   12: Species H             -3.737450         5.116530        -1.322720
  |   13: Species O             -5.628340         3.730740         1.385610
  |   14: Species H             -6.090650         4.418470         1.860350
  |   15: Species H             -5.158540         4.200260         0.615875
  |

  | The smallest distance between any two atoms is         0.92654057 AA.
  |
  | The first atom of this pair is atom number                      4 .
  | The second atom of this pair is atom number                     6 .

  Structure-dependent array size parameters: 
  | Maximum number of distinct radial functions  :       18
  | Maximum number of basis functions            :      345
  | Number of Kohn-Sham states (occupied + empty):       85
------------------------------------------------------------

------------------------------------------------------------
          Preparing all fixed parts of the calculation.
------------------------------------------------------------
  Determining machine precision:
    2.225073858507201E-308
  Setting up grids for atomic and cluster calculations.

  Creating wave function, potential, and density for free atoms.

  Species: H

  List of occupied orbitals and eigenvalues:
    n    l              occ      energy [Ha]    energy [eV]
    1    0           1.0000        -0.241408        -6.5691


  Species: O

  List of occupied orbitals and eigenvalues:
    n    l              occ      energy [Ha]    energy [eV]
    1    0           2.0000       -18.944147      -515.4965
    2    0           2.0000        -0.883529       -24.0421
    2    1           4.0000        -0.330176        -8.9845

  Creating fixed part of basis set: Ionic, confined, hydrogenic.
 
  H                    hydrogenic:
 
  List of hydrogenic basis orbitals: 
    n    l      effective z      eigenvalue [eV]  inner max. [A]     outer max. [A]     outer radius [A]   
    2    0         2.100000       -14.9965           0.193241           1.317192           5.372934
    2    1         3.500000       -41.6672           0.602363           0.602363           4.056010
    1    0         0.850000        -9.8292           0.624864           0.624864           5.372934
    2    1         3.700000       -46.5653           0.573616           0.573616           3.909951
    2    0         1.200000        -4.5995           0.334977           2.228160           5.505921
    3    2         7.000000       -74.0753           0.680692           0.680692           3.769152
 
 
  O                    hydrogenic:
 
  List of hydrogenic basis orbitals: 
    n    l      effective z      eigenvalue [eV]  inner max. [A]     outer max. [A]     outer radius [A]   
    2    1         1.800000       -11.0118           1.178546           1.178546           5.432516
    3    2         7.600000       -87.3182           0.624117           0.624117           3.541422
    3    0         6.400000       -61.9209           0.061166           1.081887           4.306510
    4    3        11.600000      -114.4238           0.731621           0.731621           3.584982
    3    1         6.200000       -58.1113           0.255677           1.030255           4.306510
    3    2         5.600000       -47.4081           0.847222           0.847222           4.413102
    5    4        17.600000      -168.5799           0.749730           0.749730           3.372413
    1    0         0.750000        -7.6499           0.705275           0.705275           5.366508
 

  Adding cutoff potential to free-atom effective potential.
  Creating atomic-like basis functions for current effective potential.

  Species H                   :

  List of atomic basis orbitals and eigenvalues:
    n    l      energy [Ha]    energy [eV]    outer radius [A]
    1    0        -0.241374        -6.5681       5.372934


  Species O                   :

  List of atomic basis orbitals and eigenvalues:
    n    l      energy [Ha]    energy [eV]    outer radius [A]
    1    0       -18.944147      -515.4965       1.415745
    2    0        -0.883529       -24.0421       5.048305
    2    1        -0.330173        -8.9845       5.301302

  Assembling full basis from fixed parts.
  | Species H :   atomic orbital   1 s accepted.
  | Species H :    hydro orbital   2 s accepted.
  | Species H :    hydro orbital   1 s accepted.
  | Species H :    hydro orbital   2 s accepted.
  | Species H :    hydro orbital   2 p accepted.
  | Species H :    hydro orbital   2 p accepted.
  | Species H :    hydro orbital   3 d accepted.
  | Species O :   atomic orbital   1 s accepted.
  | Species O :    hydro orbital   3 s accepted.
  | Species O :   atomic orbital   2 s accepted.
  | Species O :    hydro orbital   1 s accepted.
  | Species O :    hydro orbital   3 p accepted.
  | Species O :   atomic orbital   2 p accepted.
  | Species O :    hydro orbital   2 p accepted.
  | Species O :    hydro orbital   3 d accepted.
  | Species O :    hydro orbital   3 d accepted.
  | Species O :    hydro orbital   4 f accepted.
  | Species O :    hydro orbital   5 g accepted.
 
  Basis size parameters after reduction:
  | Total number of radial functions:       18
  | Total number of basis functions :      345
 
  Testing on-site integration grid accuracy.
  |  Species  Function  <phi|h_atom|phi> (log., in eV)  <phi|h_atom|phi> (rad., in eV)
           1        1                 -6.5683835025                 -6.5684759159
           1        2                 13.3711789951                 13.3708738703
           1        3                 23.6590910787                 23.6532055418
           1        4                 16.2963827186                 16.1870710655 ***
           1        5                 28.7627214838                 28.7627215090
           1        6                 59.5965249172                 59.5965950857
           1        7                 60.2220506392                 60.2220503827
           2        8               -515.4964576505               -515.4964530710
           2        9                 15.3030791347                 15.3030722972
           2       10                -21.7296094581                -21.7296135470
           2       11                 14.2969371730                 14.2969701621
           2       12                 21.0679693190                 21.0679697493
           2       13                 -2.3833606469                 -2.3833613176
           2       14                 13.7067136422                 13.7066766629
           2       15                 45.8013116808                 45.8013116965
           2       16                 52.2309815402                 52.2309831494
           2       17                 85.4120732416                 85.4120732763
           2       18                142.1019167745                142.1019167817
 * Note: Onsite integrals marked "***" above are less accurate than
 * onsite_accuracy_threshold =    0.03000 eV. Usually, this is harmless.
 * When in doubt, tighten the "radial" and/or "radial_multiplier" flags to check.

  Preparing densities etc. for the partition functions (integrals / Hartree potential).

  Preparations completed.
  max(cpu_time)          :      0.173 s.
  Wall clock time (cpu1) :      0.519 s.
------------------------------------------------------------

------------------------------------------------------------
          Begin self-consistency loop: Initialization.

          Date     :  20150727, Time     :  122837.171
------------------------------------------------------------

  Initializing index lists of integration centers etc. from given atomic structure:
  | Number of centers in hartree potential         :        15
  | Number of centers in hartree multipole         :        15
  | Number of centers in electron density summation:        15
  | Number of centers in basis integrals           :        15
  | Number of centers in integrals                 :        15
  Partitioning the integration grid into batches with parallel hashing+maxmin method.
  | Number of batches:     2111
  | Maximal batch size:     200
  | Minimal batch size:      49
  | Average batch size:      93.183
  | Standard deviation of batch sizes:      31.219

  Integration load balanced across     8 MPI tasks.
  Work distribution over tasks is as follows:
  Task     0 has      24616 integration points.
  Task     1 has      24536 integration points.
  Task     2 has      24587 integration points.
  Task     3 has      24617 integration points.
  Task     4 has      24587 integration points.
  Task     5 has      24556 integration points.
  Task     6 has      24556 integration points.
  Task     7 has      24655 integration points.
  Initializing partition tables, free-atom densities, potentials, etc. across the integration grid (initialize_grid_storage).
  | Net number of integration points:   196710
  | of which are non-zero points    :   196169
  Obtaining max. number of non-zero basis functions in each batch (get_n_compute_maxes).
  | Maximal number of non-zero basis functions:      342 in task     0
  | Maximal number of non-zero basis functions:      342 in task     1
  | Maximal number of non-zero basis functions:      342 in task     2
  | Maximal number of non-zero basis functions:      342 in task     3
  | Maximal number of non-zero basis functions:      342 in task     4
  | Maximal number of non-zero basis functions:      342 in task     5
  | Maximal number of non-zero basis functions:      342 in task     6
  | Maximal number of non-zero basis functions:      342 in task     7
  Integrating Hamiltonian matrix: batch-based integration.
  Time summed over all CPUs for integration: real work        7.488 s, elapsed        7.687 s
  Integrating overlap matrix.
  Time summed over all CPUs for integration: real work        4.061 s, elapsed        4.141 s

  Updating Kohn-Sham eigenvalues, eigenvectors, occupation numbers, and Fermi level.
  Solving generalized eigenproblem
  Updating Kohn-Sham eigenvalues and eigenfunctions.
  Transforming overlap matrix and checking for singularities.
  Overlap matrix is nonsingular:
  | Lowest eigenvalue:  0.301107E-03
  Solving real generalised eigenvalue problem by standard LAPACK (fast)
  Determining occupation numbers for Kohn-Sham eigenstates.
  | Chemical potential (Fermi level) in eV                 : -.35976830E+01
  | Error in electron count due to remaining E_F inaccuracy: 0.00000000E+00
  | Maximum occupation number of highest empty state:  0.00E+00

  Writing Kohn-Sham eigenvalues.

  State    Occupation    Eigenvalue [Ha]    Eigenvalue [eV]
      1       2.00000         -19.064906         -518.78250
      2       2.00000         -19.056657         -518.55802
      3       2.00000         -19.045451         -518.25308
      4       2.00000         -19.044634         -518.23085
      5       2.00000         -19.019418         -517.54471
      6       2.00000          -1.122209          -30.53687
      7       2.00000          -1.107577          -30.13871
      8       2.00000          -1.093347          -29.75149
      9       2.00000          -1.086034          -29.55248
     10       2.00000          -1.043122          -28.38478
     11       2.00000          -0.653505          -17.78276
     12       2.00000          -0.649178          -17.66503
     13       2.00000          -0.623609          -16.96926
     14       2.00000          -0.610156          -16.60318
     15       2.00000          -0.596948          -16.24378
     16       2.00000          -0.529533          -14.40932
     17       2.00000          -0.518440          -14.10747
     18       2.00000          -0.504692          -13.73336
     19       2.00000          -0.498616          -13.56803
     20       2.00000          -0.482365          -13.12581
     21       2.00000          -0.444426          -12.09346
     22       2.00000          -0.440947          -11.99877
     23       2.00000          -0.438042          -11.91974
     24       2.00000          -0.430142          -11.70476
     25       2.00000          -0.409573          -11.14504
     26       0.00000          -0.094696           -2.57681
     27       0.00000          -0.058438           -1.59017
     28       0.00000          -0.056920           -1.54887
     29       0.00000          -0.042743           -1.16310
     30       0.00000          -0.027215           -0.74056
     31       0.00000          -0.000433           -0.01177
     32       0.00000           0.027115            0.73783
     33       0.00000           0.036417            0.99096
     34       0.00000           0.040014            1.08882
     35       0.00000           0.047382            1.28933
     36       0.00000           0.076373            2.07821
     37       0.00000           0.084328            2.29468
     38       0.00000           0.091147            2.48023
     39       0.00000           0.095780            2.60631
     40       0.00000           0.102206            2.78117
     41       0.00000           0.104926            2.85517
     42       0.00000           0.110008            2.99347
     43       0.00000           0.115368            3.13932
     44       0.00000           0.122818            3.34205
     45       0.00000           0.130001            3.53750
     46       0.00000           0.141696            3.85576
     47       0.00000           0.145636            3.96297
     48       0.00000           0.156721            4.26459
     49       0.00000           0.166541            4.53180
     50       0.00000           0.177057            4.81796
     51       0.00000           0.193509            5.26565
     52       0.00000           0.228938            6.22973
     53       0.00000           0.242506            6.59893
     54       0.00000           0.246141            6.69783
     55       0.00000           0.249802            6.79745
     56       0.00000           0.265977            7.23760
     57       0.00000           0.280547            7.63406
     58       0.00000           0.300315            8.17200
     59       0.00000           0.309924            8.43345
     60       0.00000           0.337310            9.17866
     61       0.00000           0.344861            9.38414
     62       0.00000           0.354046            9.63409
     63       0.00000           0.366252            9.96623
     64       0.00000           0.372489           10.13595
     65       0.00000           0.383508           10.43578
     66       0.00000           0.397849           10.82601
     67       0.00000           0.403191           10.97137
     68       0.00000           0.427956           11.64527
     69       0.00000           0.440978           11.99961
     70       0.00000           0.443224           12.06074
     71       0.00000           0.459172           12.49471
     72       0.00000           0.460052           12.51864
     73       0.00000           0.482612           13.13253
     74       0.00000           0.497522           13.53827
     75       0.00000           0.518976           14.12206
     76       0.00000           0.523968           14.25790
     77       0.00000           0.540041           14.69527
     78       0.00000           0.554081           15.07732
     79       0.00000           0.608115           16.54766
     80       0.00000           0.621666           16.91639
     81       0.00000           0.632575           17.21325
     82       0.00000           0.678382           18.45971
     83       0.00000           0.690475           18.78878
     84       0.00000           0.706116           19.21440
     85       0.00000           0.744779           20.26646

  Highest occupied state (VBM) at    -11.14503759 eV
  | Occupation number:      2.00000000

  Lowest unoccupied state (CBM) at    -2.57680839 eV
  | Occupation number:      0.00000000

  Overall HOMO-LUMO gap:      8.56822921 eV.
  Calculating total energy contributions from superposition of free atom densities.

  Total energy components:
  | Sum of eigenvalues            :        -217.02704959 Ha       -5905.60649324 eV
  | XC energy correction          :         -45.58291159 Ha       -1240.37413395 eV
  | XC potential correction       :          58.24803145 Ha        1585.00958026 eV
  | Free-atom electrostatic energy:        -178.73105788 Ha       -4863.51953808 eV
  | Hartree energy correction     :           0.00000000 Ha           0.00000000 eV
  | van der Waals energy corr.    :           0.00000000 Ha           0.00000000 eV
  | Entropy correction            :           0.00000000 Ha           0.00000000 eV
  | ---------------------------
  | Total energy                  :        -383.09298761 Ha      -10424.49058501 eV
  | Total energy, T -> 0          :        -383.09298761 Ha      -10424.49058501 eV  <-- do not rely on this value for anything but (periodic) metals
  | Electronic free energy        :        -383.09298761 Ha      -10424.49058501 eV

  Derived energy quantities:
  | Kinetic energy                :         379.16534494 Ha       10317.61399025 eV
  | Electrostatic energy          :        -716.67542096 Ha      -19501.73044131 eV
  | Energy correction for multipole
  | error in Hartree potential    :           0.00000000 Ha           0.00000000 eV
  | Sum of eigenvalues per atom                           :        -393.70709955 eV
  | Total energy (T->0) per atom                          :        -694.96603900 eV  <-- do not rely on this value for anything but (periodic) metals
  | Electronic free energy per atom                       :        -694.96603900 eV
  Initialize hartree_potential_storage
  Max. number of atoms included in rho_multipole:           15

  End scf initialization - timings             :  max(cpu_time)    wall_clock(cpu1)
  | Time for scf. initialization               :        2.052 s           2.052 s
  | Boundary condition initialization          :        0.000 s           0.001 s
  | Integration                                :        1.483 s           1.482 s
  | Solution of K.-S. eqns.                    :        0.197 s           0.197 s
  | Grid partitioning                          :        0.153 s           0.153 s
  | Preloading free-atom quantities on grid    :        0.013 s           0.014 s
  | Free-atom superposition energy             :        0.066 s           0.066 s
  | Total energy evaluation                    :        0.000 s           0.000 s
------------------------------------------------------------

------------------------------------------------------------
          Begin self-consistency iteration #    1

  Date     :  20150727, Time     :  122839.223
------------------------------------------------------------
  Evaluating new KS density.
  Integration grid: deviation in total charge (<rho> - N_e) =   1.421085E-14
  Pulay mixing of updated and previous charge densities.

  Evaluating partitioned Hartree potential by multipole expansion.
  | Analytical far-field extrapolation by fixed multipoles:
  | Hartree multipole sum: apparent total charge =  -0.171920E-05
  Summing up the Hartree potential.
  Time summed over all CPUs for potential: real work        2.567 s, elapsed        2.576 s
  | RMS charge density error from multipole expansion :   0.166015E-02

  Integrating Hamiltonian matrix: batch-based integration.
  Time summed over all CPUs for integration: real work        7.488 s, elapsed        7.735 s

  Updating Kohn-Sham eigenvalues, eigenvectors, occupation numbers, and Fermi level.
  Solving generalized eigenproblem
  Updating Kohn-Sham eigenvalues and eigenfunctions.
  Solving real generalised eigenvalue problem by standard LAPACK (fast)
  Determining occupation numbers for Kohn-Sham eigenstates.
  | Chemical potential (Fermi level) in eV                 : -.32351139E+01
  | Error in electron count due to remaining E_F inaccuracy: 0.00000000E+00
  | Maximum occupation number of highest empty state:  0.00E+00

  Writing Kohn-Sham eigenvalues.

  State    Occupation    Eigenvalue [Ha]    Eigenvalue [eV]
      1       2.00000         -18.992633         -516.81585
      2       2.00000         -18.984459         -516.59340
      3       2.00000         -18.981942         -516.52491
      4       2.00000         -18.962731         -516.00215
      5       2.00000         -18.931900         -515.16322
      6       2.00000          -1.086841          -29.57445
      7       2.00000          -1.074222          -29.23108
      8       2.00000          -1.061059          -28.87289
      9       2.00000          -1.046673          -28.48143
     10       2.00000          -0.995267          -27.08258
     11       2.00000          -0.622609          -16.94206
     12       2.00000          -0.620525          -16.88535
     13       2.00000          -0.591022          -16.08252
     14       2.00000          -0.582126          -15.84045
     15       2.00000          -0.559820          -15.23346
     16       2.00000          -0.495182          -13.47458
     17       2.00000          -0.481613          -13.10536
     18       2.00000          -0.469726          -12.78189
     19       2.00000          -0.459073          -12.49202
     20       2.00000          -0.441485          -12.01343
     21       2.00000          -0.410368          -11.16669
     22       2.00000          -0.404955          -11.01938
     23       2.00000          -0.397732          -10.82284
     24       2.00000          -0.386743          -10.52381
     25       2.00000          -0.360293           -9.80407
     26       0.00000          -0.086990           -2.36713
     27       0.00000          -0.051184           -1.39280
     28       0.00000          -0.047710           -1.29825
     29       0.00000          -0.035699           -0.97142
     30       0.00000          -0.018865           -0.51336
     31       0.00000           0.006175            0.16803
     32       0.00000           0.037457            1.01925
     33       0.00000           0.044972            1.22376
     34       0.00000           0.049301            1.34155
     35       0.00000           0.055586            1.51256
     36       0.00000           0.086214            2.34601
     37       0.00000           0.097608            2.65605
     38       0.00000           0.101474            2.76125
     39       0.00000           0.107105            2.91449
     40       0.00000           0.112616            3.06444
     41       0.00000           0.113919            3.09989
     42       0.00000           0.118241            3.21751
     43       0.00000           0.127257            3.46283
     44       0.00000           0.137978            3.75457
     45       0.00000           0.139175            3.78714
     46       0.00000           0.149960            4.08063
     47       0.00000           0.157550            4.28715
     48       0.00000           0.164763            4.48343
     49       0.00000           0.174908            4.75950
     50       0.00000           0.186003            5.06140
     51       0.00000           0.203491            5.53727
     52       0.00000           0.239002            6.50357
     53       0.00000           0.251099            6.83274
     54       0.00000           0.254025            6.91238
     55       0.00000           0.258184            7.02556
     56       0.00000           0.277168            7.54212
     57       0.00000           0.290497            7.90482
     58       0.00000           0.306641            8.34412
     59       0.00000           0.317884            8.65006
     60       0.00000           0.344415            9.37200
     61       0.00000           0.353194            9.61091
     62       0.00000           0.363181            9.88266
     63       0.00000           0.374203           10.18258
     64       0.00000           0.382592           10.41085
     65       0.00000           0.392324           10.67569
     66       0.00000           0.406971           11.07425
     67       0.00000           0.413036           11.23929
     68       0.00000           0.436211           11.86990
     69       0.00000           0.449172           12.22259
     70       0.00000           0.453249           12.33354
     71       0.00000           0.469134           12.76579
     72       0.00000           0.471809           12.83858
     73       0.00000           0.493261           13.42232
     74       0.00000           0.508160           13.82773
     75       0.00000           0.529087           14.39718
     76       0.00000           0.537383           14.62294
     77       0.00000           0.553372           15.05801
     78       0.00000           0.566225           15.40776
     79       0.00000           0.618855           16.83991
     80       0.00000           0.631574           17.18601
     81       0.00000           0.644057           17.52569
     82       0.00000           0.691643           18.82056
     83       0.00000           0.701474           19.08807
     84       0.00000           0.719194           19.57027
     85       0.00000           0.755372           20.55473

  Highest occupied state (VBM) at     -9.80407285 eV
  | Occupation number:      2.00000000

  Lowest unoccupied state (CBM) at    -2.36712724 eV
  | Occupation number:      0.00000000

  Overall HOMO-LUMO gap:      7.43694560 eV.

  Total energy components:
  | Sum of eigenvalues            :        -214.80199900 Ha       -5845.05978614 eV
  | XC energy correction          :         -45.82462699 Ha       -1246.95154466 eV
  | XC potential correction       :          58.56408360 Ha        1593.60979680 eV
  | Free-atom electrostatic energy:        -178.73105788 Ha       -4863.51953808 eV
  | Hartree energy correction     :          -2.15763577 Ha         -58.71225641 eV
  | van der Waals energy corr.    :           0.00000000 Ha           0.00000000 eV
  | Entropy correction            :           0.00000000 Ha           0.00000000 eV
  | ---------------------------
  | Total energy                  :        -382.95123603 Ha      -10420.63332850 eV
  | Total energy, T -> 0          :        -382.95123603 Ha      -10420.63332850 eV  <-- do not rely on this value for anything but (periodic) metals
  | Electronic free energy        :        -382.95123603 Ha      -10420.63332850 eV

  Derived energy quantities:
  | Kinetic energy                :         380.60277123 Ha       10356.72834975 eV
  | Electrostatic energy          :        -717.72938027 Ha      -19530.41013358 eV
  | Energy correction for multipole
  | error in Hartree potential    :           0.00003157 Ha           0.00085906 eV
  | Sum of eigenvalues per atom                           :        -389.67065241 eV
  | Total energy (T->0) per atom                          :        -694.70888857 eV  <-- do not rely on this value for anything but (periodic) metals
  | Electronic free energy per atom                       :        -694.70888857 eV

  Self-consistency convergence accuracy:
  | Change of charge density      : 0.6636E+00
  | Change of sum of eigenvalues  : 0.6055E+02 eV
  | Change of total energy        : 0.3857E+01 eV

  End self-consistency iteration #     1       :  max(cpu_time)    wall_clock(cpu1)
  | Time for this iteration                    :        2.009 s           2.008 s
  | Charge density update                      :        0.651 s           0.651 s
  | Density mixing                             :        0.003 s           0.003 s
  | Hartree multipole update                   :        0.004 s           0.005 s
  | Hartree multipole summation                :        0.322 s           0.323 s
  | Integration                                :        0.968 s           0.968 s
  | Solution of K.-S. eqns.                    :        0.054 s           0.054 s
  | Total energy evaluation                    :        0.000 s           0.001 s
------------------------------------------------------------

------------------------------------------------------------
          Begin self-consistency iteration #    2

  Date     :  20150727, Time     :  122841.232
------------------------------------------------------------
  Evaluating new KS density.
  Integration grid: deviation in total charge (<rho> - N_e) =   0.000000E+00
  Pulay mixing of updated and previous charge densities.

  Evaluating partitioned Hartree potential by multipole expansion.
  | Analytical far-field extrapolation by fixed multipoles:
  | Hartree multipole sum: apparent total charge =  -0.478765E-05
  Summing up the Hartree potential.
  Time summed over all CPUs for potential: real work        2.567 s, elapsed        2.576 s
  | RMS charge density error from multipole expansion :   0.670411E-02

  Integrating Hamiltonian matrix: batch-based integration.
  Time summed over all CPUs for integration: real work        7.480 s, elapsed        7.670 s

  Updating Kohn-Sham eigenvalues, eigenvectors, occupation numbers, and Fermi level.
  Solving generalized eigenproblem
  Updating Kohn-Sham eigenvalues and eigenfunctions.
  Solving real generalised eigenvalue problem by standard LAPACK (fast)
  Determining occupation numbers for Kohn-Sham eigenstates.
  | Chemical potential (Fermi level) in eV                 : -.23533471E+01
  | Error in electron count due to remaining E_F inaccuracy: 0.00000000E+00
  | Maximum occupation number of highest empty state:  0.00E+00

  Highest occupied state (VBM) at     -6.56796282 eV
  | Occupation number:      2.00000000

  Lowest unoccupied state (CBM) at    -1.93854739 eV
  | Occupation number:      0.00000000

  Overall HOMO-LUMO gap:      4.62941542 eV.

  Total energy components:
  | Sum of eigenvalues            :        -209.46358675 Ha       -5699.79419770 eV
  | XC energy correction          :         -46.43123065 Ha       -1263.45806993 eV
  | XC potential correction       :          59.35642562 Ha        1615.17052020 eV
  | Free-atom electrostatic energy:        -178.73105788 Ha       -4863.51953808 eV
  | Hartree energy correction     :          -7.51576485 Ha        -204.51436710 eV
  | van der Waals energy corr.    :           0.00000000 Ha           0.00000000 eV
  | Entropy correction            :           0.00000000 Ha           0.00000000 eV
  | ---------------------------
  | Total energy                  :        -382.78521450 Ha      -10416.11565261 eV
  | Total energy, T -> 0          :        -382.78521450 Ha      -10416.11565261 eV  <-- do not rely on this value for anything but (periodic) metals
  | Electronic free energy        :        -382.78521450 Ha      -10416.11565261 eV

  Derived energy quantities:
  | Kinetic energy                :         383.54892791 Ha       10436.89735200 eV
  | Electrostatic energy          :        -719.90291176 Ha      -19589.55493468 eV
  | Energy correction for multipole
  | error in Hartree potential    :          -0.00068047 Ha          -0.01851646 eV
  | Sum of eigenvalues per atom                           :        -379.98627985 eV
  | Total energy (T->0) per atom                          :        -694.40771017 eV  <-- do not rely on this value for anything but (periodic) metals
  | Electronic free energy per atom                       :        -694.40771017 eV

  Self-consistency convergence accuracy:
  | Change of charge density      : 0.5027E+00
  | Change of sum of eigenvalues  : 0.1453E+03 eV
  | Change of total energy        : 0.4518E+01 eV

  End self-consistency iteration #     2       :  max(cpu_time)    wall_clock(cpu1)
  | Time for this iteration                    :        1.997 s           1.996 s
  | Charge density update                      :        0.648 s           0.647 s
  | Density mixing                             :        0.005 s           0.005 s
  | Hartree multipole update                   :        0.005 s           0.005 s
  | Hartree multipole summation                :        0.323 s           0.323 s
  | Integration                                :        0.961 s           0.961 s
  | Solution of K.-S. eqns.                    :        0.053 s           0.053 s
  | Total energy evaluation                    :        0.000 s           0.001 s
------------------------------------------------------------

------------------------------------------------------------
          Begin self-consistency iteration #    3

  Date     :  20150727, Time     :  122843.228
------------------------------------------------------------
  Evaluating new KS density.
  Integration grid: deviation in total charge (<rho> - N_e) =   1.421085E-14
  Pulay mixing of updated and previous charge densities.

  Evaluating partitioned Hartree potential by multipole expansion.
  | Analytical far-field extrapolation by fixed multipoles:
  | Hartree multipole sum: apparent total charge =  -0.406815E-05
  Summing up the Hartree potential.
  Time summed over all CPUs for potential: real work        2.567 s, elapsed        2.575 s
  | RMS charge density error from multipole expansion :   0.136609E-01

  Integrating Hamiltonian matrix: batch-based integration.
  Time summed over all CPUs for integration: real work        7.483 s, elapsed        7.691 s

  Updating Kohn-Sham eigenvalues, eigenvectors, occupation numbers, and Fermi level.
  Solving generalized eigenproblem
  Updating Kohn-Sham eigenvalues and eigenfunctions.
  Solving real generalised eigenvalue problem by standard LAPACK (fast)
  Determining occupation numbers for Kohn-Sham eigenstates.
  | Chemical potential (Fermi level) in eV                 : -.21858333E+01
  | Error in electron count due to remaining E_F inaccuracy: 0.00000000E+00
  | Maximum occupation number of highest empty state:  0.00E+00

  Highest occupied state (VBM) at     -6.29722305 eV
  | Occupation number:      2.00000000

  Lowest unoccupied state (CBM) at    -1.88330919 eV
  | Occupation number:      0.00000000

  Overall HOMO-LUMO gap:      4.41391386 eV.

  Total energy components:
  | Sum of eigenvalues            :        -209.57039704 Ha       -5702.70065381 eV
  | XC energy correction          :         -46.42284395 Ha       -1263.22985617 eV
  | XC potential correction       :          59.33991863 Ha        1614.72134191 eV
  | Free-atom electrostatic energy:        -178.73105788 Ha       -4863.51953808 eV
  | Hartree energy correction     :          -7.39479576 Ha        -201.22263080 eV
  | van der Waals energy corr.    :           0.00000000 Ha           0.00000000 eV
  | Entropy correction            :           0.00000000 Ha           0.00000000 eV
  | ---------------------------
  | Total energy                  :        -382.77917601 Ha      -10415.95133695 eV
  | Total energy, T -> 0          :        -382.77917601 Ha      -10415.95133695 eV  <-- do not rely on this value for anything but (periodic) metals
  | Electronic free energy        :        -382.77917601 Ha      -10415.95133695 eV

  Derived energy quantities:
  | Kinetic energy                :         381.52772703 Ha       10381.89767762 eV
  | Electrostatic energy          :        -717.88405909 Ha      -19534.61915840 eV
  | Energy correction for multipole
  | error in Hartree potential    :          -0.00520719 Ha          -0.14169472 eV
  | Sum of eigenvalues per atom                           :        -380.18004359 eV
  | Total energy (T->0) per atom                          :        -694.39675580 eV  <-- do not rely on this value for anything but (periodic) metals
  | Electronic free energy per atom                       :        -694.39675580 eV

  Self-consistency convergence accuracy:
  | Change of charge density      : 0.2469E+00
  | Change of sum of eigenvalues  : -.2906E+01 eV
  | Change of total energy        : 0.1643E+00 eV

  End self-consistency iteration #     3       :  max(cpu_time)    wall_clock(cpu1)
  | Time for this iteration                    :        1.994 s           1.994 s
  | Charge density update                      :        0.641 s           0.641 s
  | Density mixing                             :        0.007 s           0.007 s
  | Hartree multipole update                   :        0.005 s           0.005 s
  | Hartree multipole summation                :        0.323 s           0.323 s
  | Integration                                :        0.963 s           0.963 s
  | Solution of K.-S. eqns.                    :        0.054 s           0.053 s
  | Total energy evaluation                    :        0.000 s           0.001 s
------------------------------------------------------------

------------------------------------------------------------
          Begin self-consistency iteration #    4

  Date     :  20150727, Time     :  122845.222
------------------------------------------------------------
  Evaluating new KS density.
  Integration grid: deviation in total charge (<rho> - N_e) =   1.421085E-14
  Pulay mixing of updated and previous charge densities.

  Evaluating partitioned Hartree potential by multipole expansion.
  | Analytical far-field extrapolation by fixed multipoles:
  | Hartree multipole sum: apparent total charge =  -0.461487E-05
  Summing up the Hartree potential.
  Time summed over all CPUs for potential: real work        2.566 s, elapsed        2.574 s
  | RMS charge density error from multipole expansion :   0.170611E-01

  Integrating Hamiltonian matrix: batch-based integration.
  Time summed over all CPUs for integration: real work        7.462 s, elapsed        7.701 s

  Updating Kohn-Sham eigenvalues, eigenvectors, occupation numbers, and Fermi level.
  Solving generalized eigenproblem
  Updating Kohn-Sham eigenvalues and eigenfunctions.
  Solving real generalised eigenvalue problem by standard LAPACK (fast)
  Determining occupation numbers for Kohn-Sham eigenstates.
  | Chemical potential (Fermi level) in eV                 : -.19138226E+01
  | Error in electron count due to remaining E_F inaccuracy: 0.00000000E+00
  | Maximum occupation number of highest empty state:  0.00E+00

  Highest occupied state (VBM) at     -5.32574303 eV
  | Occupation number:      2.00000000

  Lowest unoccupied state (CBM) at    -1.77087361 eV
  | Occupation number:      0.00000000

  Overall HOMO-LUMO gap:      3.55486942 eV.

  Total energy components:
  | Sum of eigenvalues            :        -208.20255739 Ha       -5665.47984294 eV
  | XC energy correction          :         -46.59653342 Ha       -1267.95618734 eV
  | XC potential correction       :          59.56588831 Ha        1620.87028981 eV
  | Free-atom electrostatic energy:        -178.73105788 Ha       -4863.51953808 eV
  | Hartree energy correction     :          -8.80530016 Ha        -239.60440838 eV
  | van der Waals energy corr.    :           0.00000000 Ha           0.00000000 eV
  | Entropy correction            :           0.00000000 Ha           0.00000000 eV
  | ---------------------------
  | Total energy                  :        -382.76956055 Ha      -10415.68968693 eV
  | Total energy, T -> 0          :        -382.76956055 Ha      -10415.68968693 eV  <-- do not rely on this value for anything but (periodic) metals
  | Electronic free energy        :        -382.76956055 Ha      -10415.68968693 eV

  Derived energy quantities:
  | Kinetic energy                :         381.68212651 Ha       10386.09910130 eV
  | Electrostatic energy          :        -717.85515364 Ha      -19533.83260088 eV
  | Energy correction for multipole
  | error in Hartree potential    :          -0.00682254 Ha          -0.18565074 eV
  | Sum of eigenvalues per atom                           :        -377.69865620 eV
  | Total energy (T->0) per atom                          :        -694.37931246 eV  <-- do not rely on this value for anything but (periodic) metals
  | Electronic free energy per atom                       :        -694.37931246 eV

  Self-consistency convergence accuracy:
  | Change of charge density      : 0.1266E+00
  | Change of sum of eigenvalues  : 0.3722E+02 eV
  | Change of total energy        : 0.2617E+00 eV

  End self-consistency iteration #     4       :  max(cpu_time)    wall_clock(cpu1)
  | Time for this iteration                    :        1.998 s           1.997 s
  | Charge density update                      :        0.643 s           0.641 s
  | Density mixing                             :        0.008 s           0.009 s
  | Hartree multipole update                   :        0.005 s           0.005 s
  | Hartree multipole summation                :        0.323 s           0.322 s
  | Integration                                :        0.964 s           0.964 s
  | Solution of K.-S. eqns.                    :        0.054 s           0.054 s
  | Total energy evaluation                    :        0.001 s           0.000 s
------------------------------------------------------------

------------------------------------------------------------
          Begin self-consistency iteration #    5

  Date     :  20150727, Time     :  122847.220
------------------------------------------------------------
  Evaluating new KS density.
  Integration grid: deviation in total charge (<rho> - N_e) =  -2.131628E-14
  Pulay mixing of updated and previous charge densities.

  Evaluating partitioned Hartree potential by multipole expansion.
  | Analytical far-field extrapolation by fixed multipoles:
  | Hartree multipole sum: apparent total charge =  -0.461412E-05
  Summing up the Hartree potential.
  Time summed over all CPUs for potential: real work        2.566 s, elapsed        2.575 s
  | RMS charge density error from multipole expansion :   0.178813E-01

  Integrating Hamiltonian matrix: batch-based integration.
  Time summed over all CPUs for integration: real work        7.459 s, elapsed        7.710 s

  Updating Kohn-Sham eigenvalues, eigenvectors, occupation numbers, and Fermi level.
  Solving generalized eigenproblem
  Updating Kohn-Sham eigenvalues and eigenfunctions.
  Solving real generalised eigenvalue problem by standard LAPACK (fast)
  Determining occupation numbers for Kohn-Sham eigenstates.
  | Chemical potential (Fermi level) in eV                 : -.18818376E+01
  | Error in electron count due to remaining E_F inaccuracy: 0.00000000E+00
  | Maximum occupation number of highest empty state:  0.00E+00

  Highest occupied state (VBM) at     -5.04277437 eV
  | Occupation number:      2.00000000

  Lowest unoccupied state (CBM) at    -1.75430647 eV
  | Occupation number:      0.00000000

  Overall HOMO-LUMO gap:      3.28846790 eV.

  Total energy components:
  | Sum of eigenvalues            :        -208.00946176 Ha       -5660.22544360 eV
  | XC energy correction          :         -46.62546890 Ha       -1268.74356186 eV
  | XC potential correction       :          59.60319622 Ha        1621.88548985 eV
  | Free-atom electrostatic energy:        -178.73105788 Ha       -4863.51953808 eV
  | Hartree energy correction     :          -9.00649235 Ha        -245.07912638 eV
  | van der Waals energy corr.    :           0.00000000 Ha           0.00000000 eV
  | Entropy correction            :           0.00000000 Ha           0.00000000 eV
  | ---------------------------
  | Total energy                  :        -382.76928467 Ha      -10415.68218007 eV
  | Total energy, T -> 0          :        -382.76928467 Ha      -10415.68218007 eV  <-- do not rely on this value for anything but (periodic) metals
  | Electronic free energy        :        -382.76928467 Ha      -10415.68218007 eV

  Derived energy quantities:
  | Kinetic energy                :         381.71923729 Ha       10387.10893706 eV
  | Electrostatic energy          :        -717.86305306 Ha      -19534.04755527 eV
  | Energy correction for multipole
  | error in Hartree potential    :          -0.00723489 Ha          -0.19687143 eV
  | Sum of eigenvalues per atom                           :        -377.34836291 eV
  | Total energy (T->0) per atom                          :        -694.37881200 eV  <-- do not rely on this value for anything but (periodic) metals
  | Electronic free energy per atom                       :        -694.37881200 eV

  Self-consistency convergence accuracy:
  | Change of charge density      : 0.3327E-01
  | Change of sum of eigenvalues  : 0.5254E+01 eV
  | Change of total energy        : 0.7507E-02 eV

  End self-consistency iteration #     5       :  max(cpu_time)    wall_clock(cpu1)
  | Time for this iteration                    :        2.003 s           2.002 s
  | Charge density update                      :        0.645 s           0.644 s
  | Density mixing                             :        0.010 s           0.010 s
  | Hartree multipole update                   :        0.005 s           0.005 s
  | Hartree multipole summation                :        0.322 s           0.323 s
  | Integration                                :        0.966 s           0.965 s
  | Solution of K.-S. eqns.                    :        0.054 s           0.054 s
  | Total energy evaluation                    :        0.000 s           0.001 s
------------------------------------------------------------

------------------------------------------------------------
          Begin self-consistency iteration #    6

  Date     :  20150727, Time     :  122849.223
------------------------------------------------------------
  Evaluating new KS density.
  Integration grid: deviation in total charge (<rho> - N_e) =   2.131628E-14
  Pulay mixing of updated and previous charge densities.

  Evaluating partitioned Hartree potential by multipole expansion.
  | Analytical far-field extrapolation by fixed multipoles:
  | Hartree multipole sum: apparent total charge =  -0.457974E-05
  Summing up the Hartree potential.
  Time summed over all CPUs for potential: real work        2.566 s, elapsed        2.576 s
  | RMS charge density error from multipole expansion :   0.181523E-01

  Integrating Hamiltonian matrix: batch-based integration.
  Time summed over all CPUs for integration: real work        7.459 s, elapsed        7.678 s

  Updating Kohn-Sham eigenvalues, eigenvectors, occupation numbers, and Fermi level.
  Solving generalized eigenproblem
  Updating Kohn-Sham eigenvalues and eigenfunctions.
  Solving real generalised eigenvalue problem by standard LAPACK (fast)
  Determining occupation numbers for Kohn-Sham eigenstates.
  | Chemical potential (Fermi level) in eV                 : -.18729134E+01
  | Error in electron count due to remaining E_F inaccuracy: 0.00000000E+00
  | Maximum occupation number of highest empty state:  0.00E+00

  Highest occupied state (VBM) at     -5.00924123 eV
  | Occupation number:      2.00000000

  Lowest unoccupied state (CBM) at    -1.74791059 eV
  | Occupation number:      0.00000000

  Overall HOMO-LUMO gap:      3.26133064 eV.

  Total energy components:
  | Sum of eigenvalues            :        -207.96532409 Ha       -5659.02439638 eV
  | XC energy correction          :         -46.63242261 Ha       -1268.93278180 eV
  | XC potential correction       :          59.61207899 Ha        1622.12720232 eV
  | Free-atom electrostatic energy:        -178.73105788 Ha       -4863.51953808 eV
  | Hartree energy correction     :          -9.05262528 Ha        -246.33446717 eV
  | van der Waals energy corr.    :           0.00000000 Ha           0.00000000 eV
  | Entropy correction            :           0.00000000 Ha           0.00000000 eV
  | ---------------------------
  | Total energy                  :        -382.76935086 Ha      -10415.68398111 eV
  | Total energy, T -> 0          :        -382.76935086 Ha      -10415.68398111 eV  <-- do not rely on this value for anything but (periodic) metals
  | Electronic free energy        :        -382.76935086 Ha      -10415.68398111 eV

  Derived energy quantities:
  | Kinetic energy                :         381.72035432 Ha       10387.13933274 eV
  | Electrostatic energy          :        -717.85728257 Ha      -19533.89053205 eV
  | Energy correction for multipole
  | error in Hartree potential    :          -0.00737019 Ha          -0.20055306 eV
  | Sum of eigenvalues per atom                           :        -377.26829309 eV
  | Total energy (T->0) per atom                          :        -694.37893207 eV  <-- do not rely on this value for anything but (periodic) metals
  | Electronic free energy per atom                       :        -694.37893207 eV

  Self-consistency convergence accuracy:
  | Change of charge density      : 0.9776E-02
  | Change of sum of eigenvalues  : 0.1201E+01 eV
  | Change of total energy        : -.1801E-02 eV

  End self-consistency iteration #     6       :  max(cpu_time)    wall_clock(cpu1)
  | Time for this iteration                    :        2.000 s           1.999 s
  | Charge density update                      :        0.645 s           0.644 s
  | Density mixing                             :        0.011 s           0.011 s
  | Hartree multipole update                   :        0.005 s           0.005 s
  | Hartree multipole summation                :        0.323 s           0.323 s
  | Integration                                :        0.962 s           0.961 s
  | Solution of K.-S. eqns.                    :        0.053 s           0.054 s
  | Total energy evaluation                    :        0.000 s           0.001 s
------------------------------------------------------------

------------------------------------------------------------
          Begin self-consistency iteration #    7

  Date     :  20150727, Time     :  122851.223
------------------------------------------------------------
  Evaluating new KS density.
  Integration grid: deviation in total charge (<rho> - N_e) =   2.842171E-14
  Pulay mixing of updated and previous charge densities.

  Evaluating partitioned Hartree potential by multipole expansion.
  | Analytical far-field extrapolation by fixed multipoles:
  | Hartree multipole sum: apparent total charge =  -0.441338E-05
  Summing up the Hartree potential.
  Time summed over all CPUs for potential: real work        2.566 s, elapsed        2.574 s
  | RMS charge density error from multipole expansion :   0.180950E-01

  Integrating Hamiltonian matrix: batch-based integration.
  Time summed over all CPUs for integration: real work        7.452 s, elapsed        7.678 s

  Updating Kohn-Sham eigenvalues, eigenvectors, occupation numbers, and Fermi level.
  Solving generalized eigenproblem
  Updating Kohn-Sham eigenvalues and eigenfunctions.
  Solving real generalised eigenvalue problem by standard LAPACK (fast)
  Determining occupation numbers for Kohn-Sham eigenstates.
  | Chemical potential (Fermi level) in eV                 : -.19038661E+01
  | Error in electron count due to remaining E_F inaccuracy: 0.00000000E+00
  | Maximum occupation number of highest empty state:  0.00E+00

  Highest occupied state (VBM) at     -5.14328010 eV
  | Occupation number:      2.00000000

  Lowest unoccupied state (CBM) at    -1.76209925 eV
  | Occupation number:      0.00000000

  Overall HOMO-LUMO gap:      3.38118086 eV.

  Total energy components:
  | Sum of eigenvalues            :        -208.09965772 Ha       -5662.67980064 eV
  | XC energy correction          :         -46.61724199 Ha       -1268.51969605 eV
  | XC potential correction       :          59.59181438 Ha        1621.57577417 eV
  | Free-atom electrostatic energy:        -178.73105788 Ha       -4863.51953808 eV
  | Hartree energy correction     :          -8.91310184 Ha        -242.53784137 eV
  | van der Waals energy corr.    :           0.00000000 Ha           0.00000000 eV
  | Entropy correction            :           0.00000000 Ha           0.00000000 eV
  | ---------------------------
  | Total energy                  :        -382.76924505 Ha      -10415.68110197 eV
  | Total energy, T -> 0          :        -382.76924505 Ha      -10415.68110197 eV  <-- do not rely on this value for anything but (periodic) metals
  | Electronic free energy        :        -382.76924505 Ha      -10415.68110197 eV

  Derived energy quantities:
  | Kinetic energy                :         381.76189447 Ha       10388.26969794 eV
  | Electrostatic energy          :        -717.91389754 Ha      -19535.43110386 eV
  | Energy correction for multipole
  | error in Hartree potential    :          -0.00730875 Ha          -0.19888109 eV
  | Sum of eigenvalues per atom                           :        -377.51198671 eV
  | Total energy (T->0) per atom                          :        -694.37874013 eV  <-- do not rely on this value for anything but (periodic) metals
  | Electronic free energy per atom                       :        -694.37874013 eV

  Self-consistency convergence accuracy:
  | Change of charge density      : 0.1038E-01
  | Change of sum of eigenvalues  : -.3655E+01 eV
  | Change of total energy        : 0.2879E-02 eV

  End self-consistency iteration #     7       :  max(cpu_time)    wall_clock(cpu1)
  | Time for this iteration                    :        2.002 s           2.001 s
  | Charge density update                      :        0.645 s           0.645 s
  | Density mixing                             :        0.013 s           0.012 s
  | Hartree multipole update                   :        0.004 s           0.005 s
  | Hartree multipole summation                :        0.322 s           0.323 s
  | Integration                                :        0.962 s           0.961 s
  | Solution of K.-S. eqns.                    :        0.053 s           0.054 s
  | Total energy evaluation                    :        0.000 s           0.001 s
------------------------------------------------------------

------------------------------------------------------------
          Begin self-consistency iteration #    8

  Date     :  20150727, Time     :  122853.225
------------------------------------------------------------
  Evaluating new KS density.
  Integration grid: deviation in total charge (<rho> - N_e) =   2.842171E-14
  Pulay mixing of updated and previous charge densities.

  Evaluating partitioned Hartree potential by multipole expansion.
  | Analytical far-field extrapolation by fixed multipoles:
  | Hartree multipole sum: apparent total charge =  -0.439758E-05
  Summing up the Hartree potential.
  Time summed over all CPUs for potential: real work        2.566 s, elapsed        2.574 s
  | RMS charge density error from multipole expansion :   0.181278E-01

  Integrating Hamiltonian matrix: batch-based integration.
  Time summed over all CPUs for integration: real work        7.455 s, elapsed        7.671 s

  Updating Kohn-Sham eigenvalues, eigenvectors, occupation numbers, and Fermi level.
  Solving generalized eigenproblem
  Updating Kohn-Sham eigenvalues and eigenfunctions.
  Solving real generalised eigenvalue problem by standard LAPACK (fast)
  Determining occupation numbers for Kohn-Sham eigenstates.
  | Chemical potential (Fermi level) in eV                 : -.19049816E+01
  | Error in electron count due to remaining E_F inaccuracy: 0.00000000E+00
  | Maximum occupation number of highest empty state:  0.00E+00

  Highest occupied state (VBM) at     -5.13281829 eV
  | Occupation number:      2.00000000

  Lowest unoccupied state (CBM) at    -1.76251417 eV
  | Occupation number:      0.00000000

  Overall HOMO-LUMO gap:      3.37030413 eV.

  Total energy components:
  | Sum of eigenvalues            :        -208.09902994 Ha       -5662.66271783 eV
  | XC energy correction          :         -46.61738469 Ha       -1268.52357915 eV
  | XC potential correction       :          59.59194795 Ha        1621.57940878 eV
  | Free-atom electrostatic energy:        -178.73105788 Ha       -4863.51953808 eV
  | Hartree energy correction     :          -8.91371968 Ha        -242.55465345 eV
  | van der Waals energy corr.    :           0.00000000 Ha           0.00000000 eV
  | Entropy correction            :           0.00000000 Ha           0.00000000 eV
  | ---------------------------
  | Total energy                  :        -382.76924424 Ha      -10415.68107973 eV
  | Total energy, T -> 0          :        -382.76924424 Ha      -10415.68107973 eV  <-- do not rely on this value for anything but (periodic) metals
  | Electronic free energy        :        -382.76924424 Ha      -10415.68107973 eV

  Derived energy quantities:
  | Kinetic energy                :         381.76614541 Ha       10388.38537187 eV
  | Electrostatic energy          :        -717.91800496 Ha      -19535.54287246 eV
  | Energy correction for multipole
  | error in Hartree potential    :          -0.00732942 Ha          -0.19944377 eV
  | Sum of eigenvalues per atom                           :        -377.51084786 eV
  | Total energy (T->0) per atom                          :        -694.37873865 eV  <-- do not rely on this value for anything but (periodic) metals
  | Electronic free energy per atom                       :        -694.37873865 eV

  Self-consistency convergence accuracy:
  | Change of charge density      : 0.1828E-02
  | Change of sum of eigenvalues  : 0.1708E-01 eV
  | Change of total energy        : 0.2223E-04 eV

  End self-consistency iteration #     8       :  max(cpu_time)    wall_clock(cpu1)
  | Time for this iteration                    :        2.001 s           2.001 s
  | Charge density update                      :        0.645 s           0.644 s
  | Density mixing                             :        0.014 s           0.014 s
  | Hartree multipole update                   :        0.004 s           0.005 s
  | Hartree multipole summation                :        0.322 s           0.322 s
  | Integration                                :        0.961 s           0.961 s
  | Solution of K.-S. eqns.                    :        0.053 s           0.053 s
  | Total energy evaluation                    :        0.000 s           0.000 s
------------------------------------------------------------

------------------------------------------------------------
          Begin self-consistency iteration #    9

  Date     :  20150727, Time     :  122855.226
------------------------------------------------------------
  Evaluating new KS density.
  Integration grid: deviation in total charge (<rho> - N_e) =   1.421085E-14
  Pulay mixing of updated and previous charge densities.

  Evaluating partitioned Hartree potential by multipole expansion.
  | Analytical far-field extrapolation by fixed multipoles:
  | Hartree multipole sum: apparent total charge =  -0.439306E-05
  Summing up the Hartree potential.
  Time summed over all CPUs for potential: real work        2.566 s, elapsed        2.574 s
  | RMS charge density error from multipole expansion :   0.181274E-01

  Integrating Hamiltonian matrix: batch-based integration.
  Time summed over all CPUs for integration: real work        7.458 s, elapsed        7.674 s

  Updating Kohn-Sham eigenvalues, eigenvectors, occupation numbers, and Fermi level.
  Solving generalized eigenproblem
  Updating Kohn-Sham eigenvalues and eigenfunctions.
  Solving real generalised eigenvalue problem by standard LAPACK (fast)
  Determining occupation numbers for Kohn-Sham eigenstates.
  | Chemical potential (Fermi level) in eV                 : -.19052818E+01
  | Error in electron count due to remaining E_F inaccuracy: 0.00000000E+00
  | Maximum occupation number of highest empty state:  0.00E+00

  Highest occupied state (VBM) at     -5.13774544 eV
  | Occupation number:      2.00000000

  Lowest unoccupied state (CBM) at    -1.76263419 eV
  | Occupation number:      0.00000000

  Overall HOMO-LUMO gap:      3.37511125 eV.

  Total energy components:
  | Sum of eigenvalues            :        -208.10005077 Ha       -5662.69049608 eV
  | XC energy correction          :         -46.61723632 Ha       -1268.51954183 eV
  | XC potential correction       :          59.59174255 Ha        1621.57381963 eV
  | Free-atom electrostatic energy:        -178.73105788 Ha       -4863.51953808 eV
  | Hartree energy correction     :          -8.91264136 Ha        -242.52531092 eV
  | van der Waals energy corr.    :           0.00000000 Ha           0.00000000 eV
  | Entropy correction            :           0.00000000 Ha           0.00000000 eV
  | ---------------------------
  | Total energy                  :        -382.76924378 Ha      -10415.68106728 eV
  | Total energy, T -> 0          :        -382.76924378 Ha      -10415.68106728 eV  <-- do not rely on this value for anything but (periodic) metals
  | Electronic free energy        :        -382.76924378 Ha      -10415.68106728 eV

  Derived energy quantities:
  | Kinetic energy                :         381.76913017 Ha       10388.46659130 eV
  | Electrostatic energy          :        -717.92113763 Ha      -19535.62811675 eV
  | Energy correction for multipole
[...]
   ----------------------------------------------------------------
   Total forces(   4)            : 0.299297E-01 0.368364E+00 0.213640E+01
  atom #    5
   Hellmann-Feynman + Multipole  : -.244935E+00 -.228514E+00 -.302982E-01
   Pulay + GGA                   : 0.409085E-01 0.825808E-01 -.343517E-03
   Van der Waals               : -.227561E-03 -.694929E-03 0.479232E-03
   ----------------------------------------------------------------
   Total forces(   5)            : -.204254E+00 -.146628E+00 -.301624E-01
  atom #    6
   Hellmann-Feynman + Multipole  : -.281010E+00 0.288772E+00 -.225256E+01
   Pulay + GGA                   : -.328743E-01 0.369849E-01 -.120084E+00
   Van der Waals               : 0.237332E-02 0.247231E-02 0.352882E-02
   ----------------------------------------------------------------
   Total forces(   6)            : -.311511E+00 0.328229E+00 -.236912E+01
  atom #    7
   Hellmann-Feynman + Multipole  : -.681100E+00 -.470690E+01 -.152805E+02
   Pulay + GGA                   : 0.146292E+01 0.524669E+01 0.136195E+02
   Van der Waals               : -.872140E-02 -.312954E-02 -.349959E-02
   ----------------------------------------------------------------
   Total forces(   7)            : 0.773101E+00 0.536655E+00 -.166446E+01
  atom #    8
   Hellmann-Feynman + Multipole  : -.450738E+00 -.325081E+00 0.345837E+00
   Pulay + GGA                   : 0.102506E+00 0.590773E-01 0.499696E-01
   Van der Waals               : -.214912E-02 0.349201E-04 -.765177E-03
   ----------------------------------------------------------------
   Total forces(   8)            : -.350381E+00 -.265969E+00 0.395041E+00
  atom #    9
   Hellmann-Feynman + Multipole  : -.419439E+00 -.201349E+00 0.114411E+01
   Pulay + GGA                   : -.630668E-01 -.441101E-01 0.941769E-01
   Van der Waals               : -.481712E-02 -.106267E-02 -.280047E-02
   ----------------------------------------------------------------
   Total forces(   9)            : -.487323E+00 -.246522E+00 0.123549E+01
  atom #   10
   Hellmann-Feynman + Multipole  : -.109622E+02 -.322243E+01 0.718810E+00
   Pulay + GGA                   : 0.118495E+02 0.510464E+01 -.175555E+01
   Van der Waals               : -.655964E-03 -.567690E-03 -.348350E-02
   ----------------------------------------------------------------
   Total forces(  10)            : 0.886676E+00 0.188165E+01 -.104022E+01
  atom #   11
   Hellmann-Feynman + Multipole  : 0.323661E-01 -.400120E+00 0.282503E+00
   Pulay + GGA                   : 0.866460E-01 -.248362E-01 0.160996E-01
   Van der Waals               : -.151465E-02 -.298230E-02 -.514704E-02
   ----------------------------------------------------------------
   Total forces(  11)            : 0.117497E+00 -.427939E+00 0.293455E+00
  atom #   12
   Hellmann-Feynman + Multipole  : -.830099E+00 -.144732E+01 0.682630E+00
   Pulay + GGA                   : 0.418482E-01 0.957207E-01 -.585347E-01
   Van der Waals               : 0.199459E-02 -.324020E-02 0.143998E-02
   ----------------------------------------------------------------
   Total forces(  12)            : -.786257E+00 -.135484E+01 0.625535E+00
  atom #   13
   Hellmann-Feynman + Multipole  : 0.721736E+00 -.156047E+02 0.155704E+01
   Pulay + GGA                   : 0.392192E+00 0.157976E+02 -.292083E+01
   Van der Waals               : 0.356982E-02 -.411003E-02 -.401441E-02
   ----------------------------------------------------------------
   Total forces(  13)            : 0.111750E+01 0.188837E+00 -.136781E+01
  atom #   14
   Hellmann-Feynman + Multipole  : -.272166E+00 0.440799E+00 0.244394E+00
   Pulay + GGA                   : -.654422E-01 0.955824E-01 0.834049E-01
   Van der Waals               : 0.348715E-02 -.976185E-03 -.392350E-02
   ----------------------------------------------------------------
   Total forces(  14)            : -.334121E+00 0.535405E+00 0.323875E+00
  atom #   15
   Hellmann-Feynman + Multipole  : -.897809E+00 -.827691E+00 0.127488E+01
   Pulay + GGA                   : 0.357211E-01 0.694047E-01 -.617452E-01
   Van der Waals               : 0.153448E-02 -.421047E-02 0.237830E-02
   ----------------------------------------------------------------
   Total forces(  15)            : -.860554E+00 -.762497E+00 0.121552E+01
  Timings for vdw_correction_hirshfeld (Tkatchenko-Scheffler 2009):
  | CPU time:        5.391 s, Wall clock time:        5.394 s.
  Removing unitary transformations (pure translations, rotations) from forces on atoms.
  Atomic forces before filtering:
  | Net force on center of mass :  0.725723E-02 0.280792E-02 -.100011E-01 eV/A
  | Net torque on center of mass:  -.205709E-02 0.466138E-02 -.100457E-01 eV
  Atomic forces after filtering:
  | Net force on center of mass :  -.356812E-15 0.000000E+00 0.535218E-15 eV/A
  | Net torque on center of mass:  -.151054E-14 -.132172E-14 0.377634E-15 eV
 
  Energy and forces in a compact form:
  | Total energy uncorrected      :         -0.104157543101402E+05 eV
  | Total energy corrected        :         -0.104157543101402E+05 eV  <-- do not rely on this value for anything but (periodic) metals
  | Electronic free energy        :         -0.104157543101402E+05 eV
  Total atomic forces (unitary forces cleaned) [eV/Ang]:
  |   1          0.863935948513429E+00          0.242244407605146E+01         -0.746025706478613E+00
  |   2          0.162524321076639E+01         -0.259233166659193E+01          0.112133802963132E+01
  |   3         -0.207237963969954E+01         -0.462385500525614E+00         -0.137186576991699E+00
  |   4          0.296249079821381E-01          0.368060347163482E+00          0.213698908830258E+01
  |   5         -0.204700559003526E+00         -0.146873525329180E+00         -0.295207837214853E-01
  |   6         -0.311802568365915E+00          0.327947051291885E+00         -0.236853186735768E+01
  |   7          0.772580359157342E+00          0.536752815907555E+00         -0.166371312906734E+01
  |   8         -0.350997490908130E+00         -0.265765579359102E+00          0.395841868061980E+00
  |   9         -0.487824162247402E+00         -0.246547977909112E+00          0.123620141226429E+01
  |  10          0.885982324016168E+00          0.188147285734817E+01         -0.103949189249420E+01
  |  11          0.116852829876457E+00         -0.427992821372459E+00          0.294201850293867E+00
  |  12         -0.787071580896090E+00         -0.135493641675009E+01          0.626320813201081E+00
  |  13          0.111680081017684E+01          0.188302656553643E+00         -0.136716155481868E+01
  |  14         -0.334947767821951E+00          0.534773242570555E+00          0.324535808289366E+00
  |  15         -0.861296621546212E+00         -0.762919559049258E+00          0.121620264088521E+01
 
  ------------------------------------ 
  Start decomposition of the XC Energy 
  ------------------------------------ 
  Hartree-Fock part   :          0.000000000 Ha              0.000000000 eV
  ------------------------------------ 
  X Energy            :        -44.979690522 Ha          -1223.959653491 eV
  C Energy GGA        :         -1.637732331 Ha            -44.564964172 eV
  Total XC Energy     :        -46.617422853 Ha          -1268.524617663 eV
  LDA X and C from self-consistent density 
  X Energy LDA        :        -40.538507382 Ha          -1103.108911429 eV
  C Energy LDA        :         -3.301231182 Ha            -89.831071026 eV
  ------------------------------------ 
  End decomposition of the XC Energy 
  ------------------------------------ 
  Performing Hirshfeld analysis of fragment charges and moments.
  ----------------------------------------------------------------------
  | Atom     1: O
  |   Hirshfeld charge        :     -0.37604374
  |   Free atom volume        :     23.95238533
  |   Hirshfeld volume        :     24.31823874
  |   Hirshfeld dipole vector :      0.02059212       0.06881985      -0.01555901
  |   Hirshfeld dipole moment :      0.07350027
  |   Hirshfeld second moments:      0.01654247      -0.01747270       0.02584963
  |                                 -0.01747270      -0.06748915      -0.01989229
  |                                  0.02584963      -0.01989229      -0.10975792
  ----------------------------------------------------------------------
  | Atom     2: H
  |   Hirshfeld charge        :      0.06944231
  |   Free atom volume        :     10.44207651
  |   Hirshfeld volume        :      8.50515368
  |   Hirshfeld dipole vector :     -0.02198358       0.03617163      -0.01539147
  |   Hirshfeld dipole moment :      0.04503956
  |   Hirshfeld second moments:      0.07221817       0.03029537      -0.00054479
  |                                  0.03029537       0.02480945       0.01453263
  |                                 -0.00054479       0.01453263       0.05910948
  ----------------------------------------------------------------------
  | Atom     3: H
  |   Hirshfeld charge        :      0.09414920
  |   Free atom volume        :     10.44207651
  |   Hirshfeld volume        :      7.82709820
  |   Hirshfeld dipole vector :      0.11190482       0.02708848       0.00634407
  |   Hirshfeld dipole moment :      0.11531141
  |   Hirshfeld second moments:      0.08454584      -0.01792877       0.00233207
  |                                 -0.01792877       0.07827915      -0.01300013
  |                                  0.00233207      -0.01300013       0.06470056
  ----------------------------------------------------------------------
  | Atom     4: O
  |   Hirshfeld charge        :     -0.19723684
  |   Free atom volume        :     23.95238533
  |   Hirshfeld volume        :     20.37147089
  |   Hirshfeld dipole vector :      0.02737411      -0.00840286      -0.01309353
  |   Hirshfeld dipole moment :      0.03148635
  |   Hirshfeld second moments:      0.03890812       0.01059236       0.02598462
  |                                  0.01059236       0.07912957       0.00534173
  |                                  0.02598462       0.00534173       0.10131419
  ----------------------------------------------------------------------
  | Atom     5: H
  |   Hirshfeld charge        :      0.11943632
  |   Free atom volume        :     10.44207651
  |   Hirshfeld volume        :      7.26017772
  |   Hirshfeld dipole vector :      0.02635525       0.04022917       0.00920097
  |   Hirshfeld dipole moment :      0.04896573
  |   Hirshfeld second moments:      0.08406823      -0.02188849      -0.00669516
  |                                 -0.02188849       0.07242395      -0.02683072
  |                                 -0.00669516      -0.02683072       0.10368334
  ----------------------------------------------------------------------
  | Atom     6: H
  |   Hirshfeld charge        :      0.16355666
  |   Free atom volume        :     10.44207651
  |   Hirshfeld volume        :      5.85219316
  |   Hirshfeld dipole vector :     -0.01913181       0.00994075      -0.11945176
  |   Hirshfeld dipole moment :      0.12138191
  |   Hirshfeld second moments:      0.12198830       0.00797846       0.00738290
  |                                  0.00797846       0.13641186       0.00297211
  |                                  0.00738290       0.00297211       0.12496853
  ----------------------------------------------------------------------
  | Atom     7: O
  |   Hirshfeld charge        :     -0.23114480
  |   Free atom volume        :     23.95238533
  |   Hirshfeld volume        :     20.21425650
  |   Hirshfeld dipole vector :     -0.01502285       0.01868432       0.03380203
  |   Hirshfeld dipole moment :      0.04144113
  |   Hirshfeld second moments:      0.09139218       0.03977230      -0.00060173
  |                                  0.03977230       0.04671170      -0.01703547
  |                                 -0.00060173      -0.01703547       0.06479812
  ----------------------------------------------------------------------
  | Atom     8: H
  |   Hirshfeld charge        :      0.17068716
  |   Free atom volume        :     10.44207651
  |   Hirshfeld volume        :      5.57128603
  |   Hirshfeld dipole vector :      0.09743719       0.06752054       0.03507151
  |   Hirshfeld dipole moment :      0.12362459
  |   Hirshfeld second moments:      0.13380430       0.00622345      -0.00804042
  |                                  0.00622345       0.12236087      -0.00992360
  |                                 -0.00804042      -0.00992360       0.13979917
  ----------------------------------------------------------------------
  | Atom     9: H
  |   Hirshfeld charge        :      0.17196119
  |   Free atom volume        :     10.44207651
  |   Hirshfeld volume        :      6.34616256
  |   Hirshfeld dipole vector :     -0.06610340      -0.04122114       0.08254775
  |   Hirshfeld dipole moment :      0.11350319
  |   Hirshfeld second moments:      0.11172369       0.01186720       0.01496958
  |                                  0.01186720       0.11956279      -0.00325921
  |                                  0.01496958      -0.00325921       0.12360474
  ----------------------------------------------------------------------
  | Atom    10: O
  |   Hirshfeld charge        :     -0.18692522
  |   Free atom volume        :     23.95238533
  |   Hirshfeld volume        :     19.99989822
  |   Hirshfeld dipole vector :     -0.00040986      -0.01244152       0.00316423
  |   Hirshfeld dipole moment :      0.01284414
  |   Hirshfeld second moments:      0.07647561       0.00192295       0.00229145
  |                                  0.00192295       0.10016494      -0.02275890
  |                                  0.00229145      -0.02275890       0.06520473
  ----------------------------------------------------------------------
  | Atom    11: H
  |   Hirshfeld charge        :      0.12237370
  |   Free atom volume        :     10.44207651
  |   Hirshfeld volume        :      7.04424439
  |   Hirshfeld dipole vector :      0.04741938      -0.01656766       0.00652308
  |   Hirshfeld dipole moment :      0.05065210
  |   Hirshfeld second moments:      0.07882831       0.02971155      -0.02270860
  |                                  0.02971155       0.10330594       0.00613938
  |                                 -0.02270860       0.00613938       0.09236742
  ----------------------------------------------------------------------
  | Atom    12: H
  |   Hirshfeld charge        :      0.17142158
  |   Free atom volume        :     10.44207651
  |   Hirshfeld volume        :      5.53278610
  |   Hirshfeld dipole vector :      0.03356659       0.10152866      -0.05115681
  |   Hirshfeld dipole moment :      0.11854031
  |   Hirshfeld second moments:      0.14154947      -0.00539172       0.00484382
  |                                 -0.00539172       0.12950476      -0.00078908
  |                                  0.00484382      -0.00078908       0.12874668
  ----------------------------------------------------------------------
  | Atom    13: O
  |   Hirshfeld charge        :     -0.31590030
  |   Free atom volume        :     23.95238533
  |   Hirshfeld volume        :     22.41348610
  |   Hirshfeld dipole vector :     -0.00587493       0.05364322      -0.01487317
  |   Hirshfeld dipole moment :      0.05597607
  |   Hirshfeld second moments:     -0.00990203      -0.02146770      -0.05637680
  |                                 -0.02146770      -0.00468057       0.01114725
  |                                 -0.05637680       0.01114725       0.01814671
  ----------------------------------------------------------------------
  | Atom    14: H
  |   Hirshfeld charge        :      0.12906696
  |   Free atom volume        :     10.44207651
  |   Hirshfeld volume        :      6.54337628
  |   Hirshfeld dipole vector :     -0.06439928       0.08691183       0.06360357
  |   Hirshfeld dipole moment :      0.12548445
  |   Hirshfeld second moments:      0.10141370       0.00131478      -0.01661502
  |                                  0.00131478       0.10397809      -0.00692226
  |                                 -0.01661502      -0.00692226       0.11455772
  ----------------------------------------------------------------------
  | Atom    15: H
  |   Hirshfeld charge        :      0.09510559
  |   Free atom volume        :     10.44207651
  |   Hirshfeld volume        :      7.69684770
  |   Hirshfeld dipole vector :      0.02088003       0.04046782      -0.04396846
  |   Hirshfeld dipole moment :      0.06329965
  |   Hirshfeld second moments:      0.06925641      -0.01931428       0.01516784
  |                                 -0.01931428       0.09703596       0.01451777
  |                                  0.01516784       0.01451777       0.05337617
  ----------------------------------------------------------------------


------------------------------------------------------------------------------
  Final output of selected total energy values:

  The following output summarizes some interesting total energy values
  at the end of a run (AFTER all relaxation, molecular dynamics, etc.).

  | Total energy of the DFT / Hartree-Fock s.c.f. calculation      :         -10415.754310140 eV
  | Final zero-broadening corrected energy (caution - metals only) :         -10415.754310140 eV
  | For reference only, the value of 1 Hartree used in FHI-aims is :             27.211384500 eV

  Before relying on these values, please be sure to understand exactly which
  total energy value is referred to by a given number. Different objects may
  all carry the same name 'total energy'. Definitions:

  Total energy of the DFT / Hartree-Fock s.c.f. calculation:
  | Note that this energy does not include ANY quantities calculated after the
  | s.c.f. cycle, in particular not ANY RPA, MP2, etc. many-body perturbation terms.

  Final zero-broadening corrected energy:
  | For metallic systems only, a broadening of the occupation numbers at the Fermi
  | level can be extrapolated back to zero broadening by an electron-gas inspired
  | formula. For all systems that are not real metals, this value can be
  | meaningless and should be avoided.

------------------------------------------------------------------------------

------------------------------------------------------------
          Leaving FHI-aims.
          Date     :  20150727, Time     :  122915.353

          Computational steps:
          | Number of self-consistency cycles          :           16

          Detailed time accounting                     :  max(cpu_time)    wall_clock(cpu1)
          | Total time                                 :       38.720 s          38.758 s
          | Preparation time                           :        0.173 s           0.519 s
          | Grid partitioning                          :        0.153 s           0.153 s
          | Preloading free-atom quantities on grid    :        0.013 s           0.014 s
          | Free-atom superposition energy             :        0.066 s           0.066 s
          | Total time for integrations                :       16.862 s          16.860 s
          | Total time for solution of K.-S. equations :        1.054 s           1.053 s
          | Total time for density & force components  :       13.170 s          13.162 s
          | Total time for mixing                      :        0.207 s           0.208 s
          | Total time for Hartree multipole update    :        0.075 s           0.077 s
          | Total time for Hartree multipole sum       :        6.248 s           6.252 s
          | Total time for total energy evaluation     :        0.007 s           0.018 s
          | Total time for scaled ZORA corrections     :        0.000 s           0.000 s
          | Total time for TS (2009) vdW correction    :        0.056 s           0.059 s

          Have a nice day.
------------------------------------------------------------
