  MPI-parallelism will be employed.
------------------------------------------------------------
          Invoking FHI-aims ...
          Version 081213
          Compiled on 2013/08/29 at 17:41:06 on host generoso.

          When using FHI-aims, please cite the following reference:

          Volker Blum, Ralf Gehrke, Felix Hanke, Paula Havu,
          Ville Havu, Xinguo Ren, Karsten Reuter, and Matthias Scheffler,
          'Ab Initio Molecular Simulations with Numeric Atom-Centered Orbitals: FHI-aims',
          Computer Physics Communications 180, 2175-2196 (2009)

          For any questions about FHI-aims, please visit the aimsclub website
          with its forums and wiki. Contributions to both the forums and the
          wiki are warmly encouraged - they are for you, and everyone is welcome there.

------------------------------------------------------------

  Date     :  20150727, Time     :  114714.754
  Time zero on CPU 1             :   0.469920000000000E-01  s.
  Internal wall clock time zero  :           207229634.754  s.

  Using        8 parallel tasks.
  Task        0 on host gen60 reporting.
  Task        1 on host gen60 reporting.
  Task        2 on host gen60 reporting.
  Task        3 on host gen60 reporting.
  Task        4 on host gen60 reporting.
  Task        5 on host gen60 reporting.
  Task        6 on host gen60 reporting.
  Task        7 on host gen60 reporting.

  Performing system and environment tests:
  | Environment variable OMP_NUM_THREADS correctly set to 1.
  | Checking for scalapack...
  | No scalapack compiled in.

  Obtaining array dimensions for all initial allocations:
  
  -----------------------------------------------------------------------
  Parsing control.in (first pass over file, find array dimensions only).
  The contents of control.in will be repeated verbatim below
  unless switched off by setting 'verbatim_writeout .false.' .
  in the first line of control.in .
  -----------------------------------------------------------------------
  
  #########################################################################################
  #
  #  Volker Blum, FHI 2008 : Test run input file control.in
  #
  #########################################################################################
  #
  #  Physical model
  #
    xc                 rpbe
    spin               none
    relativistic       atomic_zora scalar
    charge             0.
   vdw_correction_hirshfeld
  #
  #  SCF convergence
  #
    occupation_type    gaussian 0.01
    mixer              pulay
      n_max_pulay        10
      charge_mix_param   0.1
    sc_accuracy_rho    5E-5
    sc_accuracy_eev    5E-3
    sc_accuracy_etot   5E-6
    sc_iter_limit      3000
  #
  #  Eigenvalue solver
  #
    KS_method          lapack
      empty_states       8
      basis_threshold    0.e-5
  #
  #  Efficiency
  #
  #   all previous settings are now default, except stratmann still
  #   undecided. Continue to handle stratmann with care, if at all.
  #
  #  partition_type stratmann
    partition_type rho_r2
  #  hartree_partition_type stratmann
  #
  #  Oprions for large clusters (100's of atoms: memory saving / better scaling)
  #
  # for periodic systems:
  #
    density_update_method orbital
    packed_matrix_format none
  #  k_grid 6 6 6
  #  output k_eigenvalue 1
  #  distributed_spline_storage .true.
  #
  #  Relaxation
  #
  #  relax_geometry   bfgs 5.e-3
    sc_accuracy_forces 5.E-4
    final_forces_cleaned .true.
  #
  #  Output options
  #
  #  output mulliken
    output Hirshfeld
  #  output dipole
  
  #harmonic_length_scale 0.001
  
  ################################################################################
  #
  #  FHI-aims code project
  #  VB, Fritz-Haber Institut, 2007
  #
  #  Suggested "safe" defaults for H atom (to be pasted into control.in file)
  #  Basis constructed for a non-relativistic H2 molecule using the
  #  PW-LDA functional.
  #
  ################################################################################
    species        H
  #     global species definitions
      nucleus             1
      cut_pot             4.0  2.0  1.0
      cut_free_atom       finite 8.0
      logarithmic         0.00010000 100.00  1.0123
      basis_dep_cutoff    1d-4  # 1d-4 is safe default - please check 5d-4 if you wish!
      radial_base         24 7.0
      radial_multiplier   2
      angular_grids       specified
        division   0.2783  110
        division   0.3822  194
        division   0.5626  302
  #      division   0.5922  434
  #      division   0.6227  590
  #      division   0.7206  770
        outer_grid  302
      l_hartree           4
  ################################################################################
  #
  #  Definition of "minimal" basis
  #
  ################################################################################
  #     valence basis states
      valence      1  s   1.
  #     ion occupancy
      ion_occ      1  s   0.5
  ################################################################################
  #
  #  Suggested additional basis functions. For production calculations,
  #  uncomment them one after another (the most important basis functions are
  #  listed first).
  #
  ################################################################################
  #  "First tier" - improvements: -1014.90 meV to -62.69 meV
       hydro 2 s 2.1
       hydro 2 p 3.5
  #  "Second tier" - improvements: -12.89 meV to -1.83 meV
       hydro 1 s 0.85
       hydro 2 p 3.7
       hydro 2 s 1.2
       hydro 3 d 7
  #  "Third tier" - improvements: -0.25 meV to -0.12 meV
  #     hydro 4 f 11.2
  #     hydro 3 p 4.8
  #     hydro 4 d 9
  #     hydro 3 s 3.2
  
  ################################################################################
  #
  #  FHI-aims code project
  #  VB, Fritz-Haber Institut, 2007
  #
  #  Suggested "safe" defaults for O atom (to be pasted into control.in file)
  #  All values have been tested for a non-relativistic, non-spinpolarized O2
  #  molecule using the PW-LDA functional. Validity for PBE is expected.
  #
  #  Constructed for dimers: 1.0 A, 1.208 A, 1.5 A, 2.0 A, 3.0 A
  #
  ################################################################################
    species        O
  #     global species definitions
      nucleus             8
      mass                15.9994
      l_hartree           4
      cut_pot             4.0  2.0  1.0
      cut_free_atom       finite 8.0
      basis_dep_cutoff    1d-4  # 1d-4 is safe default - please check 5d-4 if you wish!
      logarithmic         0.00010000 100.00  1.0123
      radial_base         36 7.0
      radial_multiplier   2
       angular_grids specified
        division   0.4087  110
        division   0.5181  194
        division   0.6184  302
  #      division   0.7315  434
  #      division   0.7934  590
  #      division   0.9656  770
  #      division   1.4041  974
  #      outer_grid 974
        outer_grid 302
  ################################################################################
  #
  #  Definition of "minimal" basis
  #
  ################################################################################
  #     valence basis states
      valence      2  s   2.
      valence      2  p   4.
  #     ion occupancy
      ion_occ      2  s   1.
      ion_occ      2  p   3.
  ################################################################################
  #
  #  Suggested additional basis functions. For production calculations,
  #  uncomment them one after another (the most important basis functions are
  #  listed first).
  #
  ################################################################################
  #  "First tier" - improvements: -699.05 meV to -159.38 meV
       hydro 2 p 1.8
       hydro 3 d 7.6
       hydro 3 s 6.4
  #  "Second tier" - improvements: -49.91 meV to -5.39 meV
       hydro 4 f 11.6
       hydro 3 p 6.2
       hydro 3 d 5.6
       hydro 5 g 17.6
       hydro 1 s 0.75
  #  "Third tier" - improvements: -2.83 meV to -0.50 meV
  #     ionic 2 p auto
  #     hydro 4 f 10.8
  #     hydro 4 d 4.7
  #     hydro 2 s 6.8
  #  "Fourth tier" - improvements: -0.40 meV to -0.12 meV
  #     hydro 3 p 5
  #     hydro 3 s 3.3
  #     hydro 5 g 15.6
  #     hydro 4 f 17.6
  #     hydro 4 d 14
  # Further basis functions - -0.08 meV and below
  #     hydro 3 s 2.1
  #     hydro 4 d 11.6
  #     hydro 3 p 16
  #     hydro 2 s 17.2
  
  
  -----------------------------------------------------------------------
  Completed first pass over input file control.in .
  -----------------------------------------------------------------------
  
  
  -----------------------------------------------------------------------
  Parsing geometry.in (first pass over file, find array dimensions only).
  The contents of geometry.in will be repeated verbatim below
  unless switched off by setting 'verbatim_writeout .false.' .
  in the first line of geometry.in .
  -----------------------------------------------------------------------
  
  atom      -4.053030000      0.065001000     -1.525160000  O
  atom      -4.566710000      0.974813000     -1.912820000  H
  atom      -3.067820000      0.330172000     -1.477310000  H
  atom      -4.581760000     -0.256435000      0.939478000  O
  atom      -4.349860000      0.471090000      1.504340000  H
  atom      -5.393870000     -0.726611000      1.228070000  H
  atom      -5.293160000      2.192130000     -2.328800000  O
  atom      -4.829300000      2.988660000     -1.973850000  H
  atom      -5.428570000      2.328640000     -3.235170000  H
  atom      -3.818880000      2.024990000      2.187990000  O
  atom      -3.690880000      1.961360000      3.202150000  H
  atom      -4.546490000      2.751300000      2.045370000  H
  atom      -1.975360000      2.858040000      0.453140000  O
  atom      -1.223550000      3.375850000      0.786238000  H
  atom      -2.537520000      2.567960000      1.156120000  H
  atom      -4.066610000      4.258280000     -0.900064000  O
  atom      -3.224110000      3.876870000     -0.569443000  H
  atom      -3.737450000      5.116530000     -1.322720000  H
  
  -----------------------------------------------------------------------
  Completed first pass over input file geometry.in .
  -----------------------------------------------------------------------
  
 
  Basic array size parameters: 
  | Number of species                 :        2
  | Number of atoms                   :       18
  | Max. basis fn. angular momentum   :        4
  | Max. atomic/ionic basis occupied n:        2
  | Max. number of basis fn. types    :        2
  | Max. radial fns per species/type  :        8
  | Max. logarithmic grid size        :     1301
  | Max. radial integration grid size :       73
  | Max. angular integration grid size:      302
  | Max. angular grid division number :        8
  | Radial grid for Hartree potential :     1301
  | Number of spin channels           :        1

------------------------------------------------------------
          Reading file control.in.
------------------------------------------------------------
  XC: Using RPBE gradient-corrected functionals.
  Spin treatment: No spin polarisation.
  Scalar relativistic treatment of kinetic energy: on-site free-atom approximation to ZORA.
  Charge =   0.000000E+00: Neutral system requested explicitly.
  Using non-empirical van der Waals correction (Hirshfeld partitioning):
  Occupation type: Gaussian broadening, width =   0.100000E-01 eV.
  Using pulay charge density mixing.
  Pulay mixing - number of memorized iterations:   10
  Charge density mixing - mixing parameter:     0.1000
  Convergence accuracy of self-consistent charge density: 0.5000E-04
  Convergence accuracy of sum of eigenvalues: 0.5000E-02
  Convergence accuracy of total energy: 0.5000E-05
  Maximum number of s.-c. iterations  :  3000
  Kohn-Sham eigenvalues and eigenfunctions calculated by lapack diagonalisation (D&C).
  Number of empty states per atom:        8
  Threshold for basis singularities: 0.0000E+00
  Partition function in integrals calculations: rho / r^2
 Using packed matrix format           0
  Convergence accuracy of forces: 0.5000E-03
  Cleaning forces before final output.
  Hirshfeld charge analysis will be performed.
 
  Reading configuration options for species H                   .
  | Found nuclear charge :   1.0000
  | Found cutoff potl. onset [A], width [A], scale factor :    4.00000    2.00000    1.00000
  | Found cutoff specification for free atom: Cutoff potential begins at    8.00000 A.
  | Found logarithmic grid data [bohr] : 0.1000E-03 0.1000E+03 0.1012E+01
  | Threshold for basis-dependent cutoff potential is   0.100000E-03
  | Found data for basic radial integration grid :    24 points, outermost radius =    7.000 A
  | Found multiplier for basic radial grid :   2
  | Found angular grid specification: user-specified.
  | Specified grid contains     4 separate shells.
  | Check grid settings after all constraints further below.
  | Found l_max for Hartree potential  :   4
  | Found free-atom valence shell :  1 s   1.000
  | No ionic wave fns used. Skipping ion_occ.
  | Found hydrogenic basis function :  2 s   2.100
  | Found hydrogenic basis function :  2 p   3.500
  | Found hydrogenic basis function :  1 s   0.850
  | Found hydrogenic basis function :  2 p   3.700
  | Found hydrogenic basis function :  2 s   1.200
  | Found hydrogenic basis function :  3 d   7.000
  Species H                   : Missing cutoff potential type.
  Defaulting to exp(1/x)/(1-x)^2 type cutoff potential.
  Species H : On-site basis accuracy parameter (for Gram-Schmidt orthonormalisation) not specified.
  Using default value basis_acc =  0.1000000E-03.
  Species H                   : Using default innermost maximum threshold i_radial=  2 for radial functions.
  Species H                   : Basic radial grid will be enhanced according to radial_multiplier =   2, to contain    49 grid points.
 
  Reading configuration options for species O                   .
  | Found nuclear charge :   8.0000
  | Found atomic mass :    15.9994000000000      amu
  | Found l_max for Hartree potential  :   4
  | Found cutoff potl. onset [A], width [A], scale factor :    4.00000    2.00000    1.00000
  | Found cutoff specification for free atom: Cutoff potential begins at    8.00000 A.
  | Threshold for basis-dependent cutoff potential is   0.100000E-03
  | Found logarithmic grid data [bohr] : 0.1000E-03 0.1000E+03 0.1012E+01
  | Found data for basic radial integration grid :    36 points, outermost radius =    7.000 A
  | Found multiplier for basic radial grid :   2
  | Found angular grid specification: user-specified.
  | Specified grid contains     4 separate shells.
  | Check grid settings after all constraints further below.
  | Found free-atom valence shell :  2 s   2.000
  | Found free-atom valence shell :  2 p   4.000
  | No ionic wave fns used. Skipping ion_occ.
  | No ionic wave fns used. Skipping ion_occ.
  | Found hydrogenic basis function :  2 p   1.800
  | Found hydrogenic basis function :  3 d   7.600
  | Found hydrogenic basis function :  3 s   6.400
  | Found hydrogenic basis function :  4 f  11.600
  | Found hydrogenic basis function :  3 p   6.200
  | Found hydrogenic basis function :  3 d   5.600
  | Found hydrogenic basis function :  5 g  17.600
  | Found hydrogenic basis function :  1 s   0.750
  Species O                   : Missing cutoff potential type.
  Defaulting to exp(1/x)/(1-x)^2 type cutoff potential.
  Species O : On-site basis accuracy parameter (for Gram-Schmidt orthonormalisation) not specified.
  Using default value basis_acc =  0.1000000E-03.
  Species O                   : Using default innermost maximum threshold i_radial=  2 for radial functions.
  Species O                   : Basic radial grid will be enhanced according to radial_multiplier =   2, to contain    73 grid points.
 
  Finished reading input file 'control.in'. Consistency checks are next.
 
  Target number of points in a grid batch is not set. Defaulting to  100
  Method for grid partitioning is not set. Defaulting to parallel hash+maxmin partitioning.
  Batch size limit is not set. Defaulting to    200
  By default, will store active basis functions for each batch.
  If in need of memory, prune_basis_once .false. can be used to disable this option.
  communication_type for Hartree potential was not specified.
  Defaulting to calc_hartree .
  Pulay mixer: Number of initial linear mixing iterations not set.
  Defaulting to    0 iterations.
  Work space size for distributed Hartree potential not set.
  Defaulting to   0.200000E+03 MB.
  Algorithm-dependent basis array size parameters:
  | n_max_pulay                         :       10
  Geometry relaxation not requested: no relaxation will be performed.
  Handling of forces: Unphysical translation and rotation will be removed from forces.
  No accuracy limit for integral partition fn. given. Defaulting to 0.1000E-14.
  No threshold value for u(r) in integrations given. Defaulting to 0.1000E-05.
  No accuracy for occupation numbers given. Defaulting to 0.1000E-07.
  No threshold value for occupation numbers given. Defaulting to 0.0000E+00.
  No accuracy for fermi level given. Defaulting to 0.1000E-19.
  Maximum # of iterations to find E_F not set. Defaulting to  200.
  Will not use alltoall communication since running on < 1024 CPUs.
  Partitioning for Hartree potential was not defined. Using partition_type for integrals.
  | Reporting present value of keyword multip_moments_threshold  :       0.10000000E-09
  | This value may affect high angular momentum components of the Hartree potential in periodic systems.
  No q(lm)/r^(l+1) cutoff set for long-range Hartree potential.
  | Using default value of  0.100000E-09 .
  | Verify using the multipole_threshold keyword.
  Defaulting to new monopole extrapolation.
  Density update method: Loop over occupied states selected for charge density update.
------------------------------------------------------------


------------------------------------------------------------
          Reading geometry description geometry.in.
------------------------------------------------------------
  Input structure read successfully.
  The structure contains       18 atoms,  and a total of         60.000 electrons.

  Input geometry:
  | No unit cell requested.
  | Atomic structure:
  |       Atom                x [A]            y [A]            z [A]
  |    1: Species O             -4.053030         0.065001        -1.525160
  |    2: Species H             -4.566710         0.974813        -1.912820
  |    3: Species H             -3.067820         0.330172        -1.477310
  |    4: Species O             -4.581760        -0.256435         0.939478
  |    5: Species H             -4.349860         0.471090         1.504340
  |    6: Species H             -5.393870        -0.726611         1.228070
  |    7: Species O             -5.293160         2.192130        -2.328800
  |    8: Species H             -4.829300         2.988660        -1.973850
  |    9: Species H             -5.428570         2.328640        -3.235170
  |   10: Species O             -3.818880         2.024990         2.187990
  |   11: Species H             -3.690880         1.961360         3.202150
  |   12: Species H             -4.546490         2.751300         2.045370
  |   13: Species O             -1.975360         2.858040         0.453140
  |   14: Species H             -1.223550         3.375850         0.786238
  |   15: Species H             -2.537520         2.567960         1.156120
  |   16: Species O             -4.066610         4.258280        -0.900064
  |   17: Species H             -3.224110         3.876870        -0.569443
  |   18: Species H             -3.737450         5.116530        -1.322720
  |

  | The smallest distance between any two atoms is         0.92654057 AA.
  |
  | The first atom of this pair is atom number                      7 .
  | The second atom of this pair is atom number                     9 .

  Structure-dependent array size parameters: 
  | Maximum number of distinct radial functions  :       18
  | Maximum number of basis functions            :      414
  | Number of Kohn-Sham states (occupied + empty):      102
------------------------------------------------------------

------------------------------------------------------------
          Preparing all fixed parts of the calculation.
------------------------------------------------------------
  Determining machine precision:
    2.225073858507201E-308
  Setting up grids for atomic and cluster calculations.

  Creating wave function, potential, and density for free atoms.

  Species: H

  List of occupied orbitals and eigenvalues:
    n    l              occ      energy [Ha]    energy [eV]
    1    0           1.0000        -0.241408        -6.5691


  Species: O

  List of occupied orbitals and eigenvalues:
    n    l              occ      energy [Ha]    energy [eV]
    1    0           2.0000       -18.944147      -515.4965
    2    0           2.0000        -0.883529       -24.0421
    2    1           4.0000        -0.330176        -8.9845

  Creating fixed part of basis set: Ionic, confined, hydrogenic.
 
  H                    hydrogenic:
 
  List of hydrogenic basis orbitals: 
    n    l      effective z      eigenvalue [eV]  inner max. [A]     outer max. [A]     outer radius [A]   
    2    0         2.100000       -14.9965           0.193241           1.317192           5.372934
    2    1         3.500000       -41.6672           0.602363           0.602363           4.056010
    1    0         0.850000        -9.8292           0.624864           0.624864           5.372934
    2    1         3.700000       -46.5653           0.573616           0.573616           3.909951
    2    0         1.200000        -4.5995           0.334977           2.228160           5.505921
    3    2         7.000000       -74.0753           0.680692           0.680692           3.769152
 
 
  O                    hydrogenic:
 
  List of hydrogenic basis orbitals: 
    n    l      effective z      eigenvalue [eV]  inner max. [A]     outer max. [A]     outer radius [A]   
    2    1         1.800000       -11.0118           1.178546           1.178546           5.432516
    3    2         7.600000       -87.3182           0.624117           0.624117           3.541422
    3    0         6.400000       -61.9209           0.061166           1.081887           4.306510
    4    3        11.600000      -114.4238           0.731621           0.731621           3.584982
    3    1         6.200000       -58.1113           0.255677           1.030255           4.306510
    3    2         5.600000       -47.4081           0.847222           0.847222           4.413102
    5    4        17.600000      -168.5799           0.749730           0.749730           3.372413
    1    0         0.750000        -7.6499           0.705275           0.705275           5.366508
 

  Adding cutoff potential to free-atom effective potential.
  Creating atomic-like basis functions for current effective potential.

  Species H                   :

  List of atomic basis orbitals and eigenvalues:
    n    l      energy [Ha]    energy [eV]    outer radius [A]
    1    0        -0.241374        -6.5681       5.372934


  Species O                   :

  List of atomic basis orbitals and eigenvalues:
    n    l      energy [Ha]    energy [eV]    outer radius [A]
    1    0       -18.944147      -515.4965       1.415745
    2    0        -0.883529       -24.0421       5.048305
    2    1        -0.330173        -8.9845       5.301302

  Assembling full basis from fixed parts.
  | Species H :   atomic orbital   1 s accepted.
  | Species H :    hydro orbital   2 s accepted.
  | Species H :    hydro orbital   1 s accepted.
  | Species H :    hydro orbital   2 s accepted.
  | Species H :    hydro orbital   2 p accepted.
  | Species H :    hydro orbital   2 p accepted.
  | Species H :    hydro orbital   3 d accepted.
  | Species O :   atomic orbital   1 s accepted.
  | Species O :    hydro orbital   3 s accepted.
  | Species O :   atomic orbital   2 s accepted.
  | Species O :    hydro orbital   1 s accepted.
  | Species O :    hydro orbital   3 p accepted.
  | Species O :   atomic orbital   2 p accepted.
  | Species O :    hydro orbital   2 p accepted.
  | Species O :    hydro orbital   3 d accepted.
  | Species O :    hydro orbital   3 d accepted.
  | Species O :    hydro orbital   4 f accepted.
  | Species O :    hydro orbital   5 g accepted.
 
  Basis size parameters after reduction:
  | Total number of radial functions:       18
  | Total number of basis functions :      414
 
  Testing on-site integration grid accuracy.
  |  Species  Function  <phi|h_atom|phi> (log., in eV)  <phi|h_atom|phi> (rad., in eV)
           1        1                 -6.5683835025                 -6.5684759159
           1        2                 13.3711789951                 13.3708738703
           1        3                 23.6590910787                 23.6532055418
           1        4                 16.2963827186                 16.1870710655 ***
           1        5                 28.7627214838                 28.7627215090
           1        6                 59.5965249172                 59.5965950857
           1        7                 60.2220506392                 60.2220503827
           2        8               -515.4964576505               -515.4964530710
           2        9                 15.3030791347                 15.3030722972
           2       10                -21.7296094581                -21.7296135470
           2       11                 14.2969371730                 14.2969701621
           2       12                 21.0679693190                 21.0679697493
           2       13                 -2.3833606469                 -2.3833613176
           2       14                 13.7067136422                 13.7066766629
           2       15                 45.8013116808                 45.8013116965
           2       16                 52.2309815402                 52.2309831494
           2       17                 85.4120732416                 85.4120732763
           2       18                142.1019167745                142.1019167817
 * Note: Onsite integrals marked "***" above are less accurate than
 * onsite_accuracy_threshold =    0.03000 eV. Usually, this is harmless.
 * When in doubt, tighten the "radial" and/or "radial_multiplier" flags to check.

  Preparing densities etc. for the partition functions (integrals / Hartree potential).

  Preparations completed.
  max(cpu_time)          :      0.173 s.
  Wall clock time (cpu1) :      0.591 s.
------------------------------------------------------------

------------------------------------------------------------
          Begin self-consistency loop: Initialization.

          Date     :  20150727, Time     :  114715.359
------------------------------------------------------------

  Initializing index lists of integration centers etc. from given atomic structure:
  | Number of centers in hartree potential         :        18
  | Number of centers in hartree multipole         :        18
  | Number of centers in electron density summation:        18
  | Number of centers in basis integrals           :        18
  | Number of centers in integrals                 :        18
  Partitioning the integration grid into batches with parallel hashing+maxmin method.
  | Number of batches:     2355
  | Maximal batch size:     195
  | Minimal batch size:      51
  | Average batch size:     100.234
  | Standard deviation of batch sizes:      29.598

  Integration load balanced across     8 MPI tasks.
  Work distribution over tasks is as follows:
  Task     0 has      29528 integration points.
  Task     1 has      29436 integration points.
  Task     2 has      29557 integration points.
  Task     3 has      29515 integration points.
  Task     4 has      29487 integration points.
  Task     5 has      29516 integration points.
  Task     6 has      29487 integration points.
  Task     7 has      29526 integration points.
  Initializing partition tables, free-atom densities, potentials, etc. across the integration grid (initialize_grid_storage).
  | Net number of integration points:   236052
  | of which are non-zero points    :   235499
  Obtaining max. number of non-zero basis functions in each batch (get_n_compute_maxes).
  | Maximal number of non-zero basis functions:      410 in task     0
  | Maximal number of non-zero basis functions:      410 in task     1
  | Maximal number of non-zero basis functions:      410 in task     2
  | Maximal number of non-zero basis functions:      410 in task     3
  | Maximal number of non-zero basis functions:      410 in task     4
  | Maximal number of non-zero basis functions:      409 in task     5
  | Maximal number of non-zero basis functions:      410 in task     6
  | Maximal number of non-zero basis functions:      410 in task     7
  Integrating Hamiltonian matrix: batch-based integration.
  Time summed over all CPUs for integration: real work       11.102 s, elapsed       11.322 s
  Integrating overlap matrix.
  Time summed over all CPUs for integration: real work        6.096 s, elapsed        6.208 s

  Updating Kohn-Sham eigenvalues, eigenvectors, occupation numbers, and Fermi level.
  Solving generalized eigenproblem
  Updating Kohn-Sham eigenvalues and eigenfunctions.
  Transforming overlap matrix and checking for singularities.
  Overlap matrix is nonsingular:
  | Lowest eigenvalue:  0.276772E-03
  Solving real generalised eigenvalue problem by standard LAPACK (fast)
  Determining occupation numbers for Kohn-Sham eigenstates.
  | Chemical potential (Fermi level) in eV                 : -.29758740E+01
  | Error in electron count due to remaining E_F inaccuracy: 0.00000000E+00
  | Maximum occupation number of highest empty state:  0.00E+00

  Writing Kohn-Sham eigenvalues.

  State    Occupation    Eigenvalue [Ha]    Eigenvalue [eV]
      1       2.00000         -19.064897         -518.78225
      2       2.00000         -19.056835         -518.56285
      3       2.00000         -19.052095         -518.43387
      4       2.00000         -19.042982         -518.18592
      5       2.00000         -19.035970         -517.99509
      6       2.00000         -19.019672         -517.55162
      7       2.00000          -1.122131          -30.53474
      8       2.00000          -1.109517          -30.19151
      9       2.00000          -1.100276          -29.94002
     10       2.00000          -1.086569          -29.56703
     11       2.00000          -1.068887          -29.08591
     12       2.00000          -1.043477          -28.39446
     13       2.00000          -0.654450          -17.80848
     14       2.00000          -0.653215          -17.77489
     15       2.00000          -0.648467          -17.64569
     16       2.00000          -0.609305          -16.58003
     17       2.00000          -0.597503          -16.25889
     18       2.00000          -0.597204          -16.25075
     19       2.00000          -0.528829          -14.39017
     20       2.00000          -0.517509          -14.08215
     21       2.00000          -0.508463          -13.83599
     22       2.00000          -0.506823          -13.79135
     23       2.00000          -0.493013          -13.41558
     24       2.00000          -0.479783          -13.05555
     25       2.00000          -0.444594          -12.09803
     26       2.00000          -0.441428          -12.01187
     27       2.00000          -0.438844          -11.94155
     28       2.00000          -0.433291          -11.79046
     29       2.00000          -0.431232          -11.73441
     30       2.00000          -0.402536          -10.95355
     31       0.00000          -0.098394           -2.67744
     32       0.00000          -0.071985           -1.95880
     33       0.00000          -0.057243           -1.55767
     34       0.00000          -0.046673           -1.27005
     35       0.00000          -0.038029           -1.03482
     36       0.00000          -0.024728           -0.67289
     37       0.00000          -0.015248           -0.41491
     38       0.00000           0.030111            0.81936
     39       0.00000           0.036022            0.98021
     40       0.00000           0.047637            1.29626
     41       0.00000           0.051304            1.39606
     42       0.00000           0.057832            1.57368
     43       0.00000           0.070489            1.91810
     44       0.00000           0.083472            2.27139
     45       0.00000           0.092111            2.50646
     46       0.00000           0.095387            2.59560
     47       0.00000           0.100992            2.74814
     48       0.00000           0.107621            2.92852
     49       0.00000           0.108643            2.95632
     50       0.00000           0.112314            3.05621
     51       0.00000           0.120751            3.28581
     52       0.00000           0.129260            3.51734
     53       0.00000           0.131045            3.56592
     54       0.00000           0.137242            3.73455
     55       0.00000           0.142742            3.88422
     56       0.00000           0.151843            4.13185
     57       0.00000           0.159111            4.32962
     58       0.00000           0.164187            4.46775
     59       0.00000           0.177018            4.81691
     60       0.00000           0.201928            5.49473
     61       0.00000           0.215598            5.86673
     62       0.00000           0.229289            6.23927
     63       0.00000           0.242809            6.60716
     64       0.00000           0.251528            6.84443
     65       0.00000           0.254799            6.93345
     66       0.00000           0.262885            7.15346
     67       0.00000           0.280068            7.62103
     68       0.00000           0.297447            8.09395
     69       0.00000           0.306361            8.33650
     70       0.00000           0.320241            8.71420
     71       0.00000           0.325811            8.86578
     72       0.00000           0.336287            9.15084
     73       0.00000           0.344289            9.36858
     74       0.00000           0.361270            9.83066
     75       0.00000           0.367892           10.01085
     76       0.00000           0.379126           10.31655
     77       0.00000           0.392412           10.67808
     78       0.00000           0.406400           11.05872
     79       0.00000           0.415302           11.30093
     80       0.00000           0.418177           11.37918
     81       0.00000           0.424426           11.54921
     82       0.00000           0.436004           11.86427
     83       0.00000           0.447010           12.16376
     84       0.00000           0.460379           12.52756
     85       0.00000           0.476150           12.95670
     86       0.00000           0.488675           13.29753
     87       0.00000           0.515230           14.02011
     88       0.00000           0.526284           14.32093
     89       0.00000           0.532564           14.49180
     90       0.00000           0.554099           15.07781
     91       0.00000           0.562679           15.31129
     92       0.00000           0.576158           15.67806
     93       0.00000           0.599067           16.30145
     94       0.00000           0.607469           16.53008
     95       0.00000           0.622113           16.92856
     96       0.00000           0.631467           17.18310
     97       0.00000           0.670708           18.25090
     98       0.00000           0.691388           18.81362
     99       0.00000           0.717684           19.52917
    100       0.00000           0.732170           19.92335
    101       0.00000           0.748625           20.37111
    102       0.00000           0.768153           20.90250

  Highest occupied state (VBM) at    -10.95355422 eV
  | Occupation number:      2.00000000

  Lowest unoccupied state (CBM) at    -2.67743604 eV
  | Occupation number:      0.00000000

  Overall HOMO-LUMO gap:      8.27611818 eV.
  Calculating total energy contributions from superposition of free atom densities.

  Total energy components:
  | Sum of eigenvalues            :        -260.37959695 Ha       -7085.28932863 eV
  | XC energy correction          :         -54.70582273 Ha       -1488.62117657 eV
  | XC potential correction       :          69.90898752 Ha        1902.32033941 eV
  | Free-atom electrostatic energy:        -214.52546892 Ha       -5837.53501977 eV
  | Hartree energy correction     :           0.00000000 Ha           0.00000000 eV
  | van der Waals energy corr.    :           0.00000000 Ha           0.00000000 eV
  | Entropy correction            :           0.00000000 Ha           0.00000000 eV
  | ---------------------------
  | Total energy                  :        -459.70190108 Ha      -12509.12518555 eV
  | Total energy, T -> 0          :        -459.70190108 Ha      -12509.12518555 eV  <-- do not rely on this value for anything but (periodic) metals
  | Electronic free energy        :        -459.70190108 Ha      -12509.12518555 eV

  Derived energy quantities:
  | Kinetic energy                :         455.02430129 Ha       12381.84121931 eV
  | Electrostatic energy          :        -860.02037964 Ha      -23402.34522830 eV
  | Energy correction for multipole
  | error in Hartree potential    :           0.00000000 Ha           0.00000000 eV
  | Sum of eigenvalues per atom                           :        -393.62718492 eV
  | Total energy (T->0) per atom                          :        -694.95139920 eV  <-- do not rely on this value for anything but (periodic) metals
  | Electronic free energy per atom                       :        -694.95139920 eV
  Initialize hartree_potential_storage
  Max. number of atoms included in rho_multipole:           18

  End scf initialization - timings             :  max(cpu_time)    wall_clock(cpu1)
  | Time for scf. initialization               :        2.981 s           2.980 s
  | Boundary condition initialization          :        0.000 s           0.000 s
  | Integration                                :        2.197 s           2.197 s
  | Solution of K.-S. eqns.                    :        0.297 s           0.296 s
  | Grid partitioning                          :        0.190 s           0.190 s
  | Preloading free-atom quantities on grid    :        0.014 s           0.013 s
  | Free-atom superposition energy             :        0.090 s           0.091 s
  | Total energy evaluation                    :        0.000 s           0.000 s
------------------------------------------------------------

------------------------------------------------------------
          Begin self-consistency iteration #    1

  Date     :  20150727, Time     :  114718.339
------------------------------------------------------------
  Evaluating new KS density.
  Integration grid: deviation in total charge (<rho> - N_e) =   2.131628E-14
  Pulay mixing of updated and previous charge densities.

  Evaluating partitioned Hartree potential by multipole expansion.
  | Analytical far-field extrapolation by fixed multipoles:
  | Hartree multipole sum: apparent total charge =  -0.249109E-05
  Summing up the Hartree potential.
  Time summed over all CPUs for potential: real work        3.784 s, elapsed        3.792 s
  | RMS charge density error from multipole expansion :   0.180779E-02

  Integrating Hamiltonian matrix: batch-based integration.
  Time summed over all CPUs for integration: real work       11.066 s, elapsed       11.281 s

  Updating Kohn-Sham eigenvalues, eigenvectors, occupation numbers, and Fermi level.
  Solving generalized eigenproblem
  Updating Kohn-Sham eigenvalues and eigenfunctions.
  Solving real generalised eigenvalue problem by standard LAPACK (fast)
  Determining occupation numbers for Kohn-Sham eigenstates.
  | Chemical potential (Fermi level) in eV                 : -.25429810E+01
  | Error in electron count due to remaining E_F inaccuracy: 0.00000000E+00
  | Maximum occupation number of highest empty state:  0.00E+00

  Writing Kohn-Sham eigenvalues.

  State    Occupation    Eigenvalue [Ha]    Eigenvalue [eV]
      1       2.00000         -18.990881         -516.76818
      2       2.00000         -18.978148         -516.42169
      3       2.00000         -18.976499         -516.37680
      4       2.00000         -18.972158         -516.25870
      5       2.00000         -18.959304         -515.90890
      6       2.00000         -18.926135         -515.00634
      7       2.00000          -1.084866          -29.52071
      8       2.00000          -1.071316          -29.15198
      9       2.00000          -1.052901          -28.65088
     10       2.00000          -1.051271          -28.60654
     11       2.00000          -1.038657          -28.26329
     12       2.00000          -0.990328          -26.94821
     13       2.00000          -0.621223          -16.90433
     14       2.00000          -0.620297          -16.87913
     15       2.00000          -0.605084          -16.46518
     16       2.00000          -0.579685          -15.77402
     17       2.00000          -0.575050          -15.64791
     18       2.00000          -0.556406          -15.14058
     19       2.00000          -0.488600          -13.29548
     20       2.00000          -0.481276          -13.09619
     21       2.00000          -0.473307          -12.87933
     22       2.00000          -0.464279          -12.63368
     23       2.00000          -0.451857          -12.29564
     24       2.00000          -0.435480          -11.85001
     25       2.00000          -0.405855          -11.04387
     26       2.00000          -0.400444          -10.89662
     27       2.00000          -0.396440          -10.78769
     28       2.00000          -0.392547          -10.68175
     29       2.00000          -0.386557          -10.51874
     30       2.00000          -0.346951           -9.44102
     31       0.00000          -0.090340           -2.45827
     32       0.00000          -0.064245           -1.74821
     33       0.00000          -0.045523           -1.23875
     34       0.00000          -0.038396           -1.04481
     35       0.00000          -0.027649           -0.75236
     36       0.00000          -0.014212           -0.38673
     37       0.00000          -0.010109           -0.27508
     38       0.00000           0.042106            1.14577
     39       0.00000           0.045727            1.24431
     40       0.00000           0.058705            1.59746
     41       0.00000           0.059278            1.61303
     42       0.00000           0.064046            1.74278
     43       0.00000           0.083168            2.26311
     44       0.00000           0.095488            2.59835
     45       0.00000           0.100442            2.73317
     46       0.00000           0.107962            2.93780
     47       0.00000           0.111469            3.03322
     48       0.00000           0.117968            3.21009
     49       0.00000           0.119325            3.24700
     50       0.00000           0.128356            3.49275
     51       0.00000           0.135923            3.69866
     52       0.00000           0.140732            3.82952
     53       0.00000           0.142579            3.87978
     54       0.00000           0.152996            4.16323
     55       0.00000           0.157254            4.27910
     56       0.00000           0.161992            4.40803
     57       0.00000           0.169143            4.60262
     58       0.00000           0.175303            4.77025
     59       0.00000           0.192817            5.24683
     60       0.00000           0.212628            5.78590
     61       0.00000           0.228064            6.20593
     62       0.00000           0.240899            6.55519
     63       0.00000           0.255535            6.95345
     64       0.00000           0.262318            7.13802
     65       0.00000           0.263719            7.17615
     66       0.00000           0.275569            7.49861
     67       0.00000           0.290904            7.91590
     68       0.00000           0.308491            8.39446
     69       0.00000           0.317023            8.62662
     70       0.00000           0.328539            8.94000
     71       0.00000           0.336552            9.15805
     72       0.00000           0.347170            9.44699
     73       0.00000           0.352958            9.60448
     74       0.00000           0.373559           10.16504
     75       0.00000           0.379850           10.33624
     76       0.00000           0.389843           10.60817
     77       0.00000           0.404313           11.00193
     78       0.00000           0.416783           11.34124
     79       0.00000           0.424903           11.56220
     80       0.00000           0.426332           11.60109
     81       0.00000           0.437628           11.90846
     82       0.00000           0.446876           12.16012
     83       0.00000           0.455726           12.40094
     84       0.00000           0.473501           12.88462
     85       0.00000           0.485395           13.20827
     86       0.00000           0.501933           13.65828
     87       0.00000           0.526696           14.33211
     88       0.00000           0.540686           14.71282
     89       0.00000           0.548244           14.91847
     90       0.00000           0.566435           15.41349
     91       0.00000           0.577956           15.72699
     92       0.00000           0.590528           16.06908
     93       0.00000           0.614201           16.71327
     94       0.00000           0.621048           16.89959
     95       0.00000           0.634214           17.25785
     96       0.00000           0.645277           17.55889
     97       0.00000           0.684586           18.62853
     98       0.00000           0.706206           19.21685
     99       0.00000           0.733220           19.95194
    100       0.00000           0.747536           20.34149
    101       0.00000           0.764574           20.80512
    102       0.00000           0.781371           21.26220

  Highest occupied state (VBM) at     -9.44101562 eV
  | Occupation number:      2.00000000

  Lowest unoccupied state (CBM) at    -2.45826720 eV
  | Occupation number:      0.00000000

  Overall HOMO-LUMO gap:      6.98274842 eV.

  Total energy components:
  | Sum of eigenvalues            :        -257.54759980 Ha       -7008.22676509 eV
  | XC energy correction          :         -54.99494651 Ha       -1496.48863515 eV
  | XC potential correction       :          70.28684603 Ha        1912.60239261 eV
  | Free-atom electrostatic energy:        -214.52546892 Ha       -5837.53501977 eV
  | Hartree energy correction     :          -2.74531788 Ha         -74.70390045 eV
  | van der Waals energy corr.    :           0.00000000 Ha           0.00000000 eV
  | Entropy correction            :           0.00000000 Ha           0.00000000 eV
  | ---------------------------
  | Total energy                  :        -459.52648708 Ha      -12504.35192785 eV
  | Total energy, T -> 0          :        -459.52648708 Ha      -12504.35192785 eV  <-- do not rely on this value for anything but (periodic) metals
  | Electronic free energy        :        -459.52648708 Ha      -12504.35192785 eV

  Derived energy quantities:
  | Kinetic energy                :         456.75009034 Ha       12428.80232852 eV
  | Electrostatic energy          :        -861.28163090 Ha      -23436.66562122 eV
  | Energy correction for multipole
  | error in Hartree potential    :           0.00014451 Ha           0.00393234 eV
  | Sum of eigenvalues per atom                           :        -389.34593139 eV
  | Total energy (T->0) per atom                          :        -694.68621821 eV  <-- do not rely on this value for anything but (periodic) metals
  | Electronic free energy per atom                       :        -694.68621821 eV

  Self-consistency convergence accuracy:
  | Change of charge density      : 0.7277E+00
  | Change of sum of eigenvalues  : 0.7706E+02 eV
  | Change of total energy        : 0.4773E+01 eV

  End self-consistency iteration #     1       :  max(cpu_time)    wall_clock(cpu1)
  | Time for this iteration                    :        2.891 s           2.891 s
  | Charge density update                      :        0.910 s           0.910 s
  | Density mixing                             :        0.004 s           0.004 s
  | Hartree multipole update                   :        0.007 s           0.006 s
  | Hartree multipole summation                :        0.475 s           0.475 s
  | Integration                                :        1.413 s           1.413 s
  | Solution of K.-S. eqns.                    :        0.081 s           0.081 s
  | Total energy evaluation                    :        0.001 s           0.000 s
------------------------------------------------------------

------------------------------------------------------------
          Begin self-consistency iteration #    2

  Date     :  20150727, Time     :  114721.230
------------------------------------------------------------
  Evaluating new KS density.
  Integration grid: deviation in total charge (<rho> - N_e) =   2.842171E-14
  Pulay mixing of updated and previous charge densities.

  Evaluating partitioned Hartree potential by multipole expansion.
  | Analytical far-field extrapolation by fixed multipoles:
  | Hartree multipole sum: apparent total charge =  -0.740021E-05
  Summing up the Hartree potential.
  Time summed over all CPUs for potential: real work        3.783 s, elapsed        3.791 s
  | RMS charge density error from multipole expansion :   0.728740E-02

  Integrating Hamiltonian matrix: batch-based integration.
  Time summed over all CPUs for integration: real work       11.069 s, elapsed       11.296 s

  Updating Kohn-Sham eigenvalues, eigenvectors, occupation numbers, and Fermi level.
  Solving generalized eigenproblem
  Updating Kohn-Sham eigenvalues and eigenfunctions.
  Solving real generalised eigenvalue problem by standard LAPACK (fast)
  Determining occupation numbers for Kohn-Sham eigenstates.
  | Chemical potential (Fermi level) in eV                 : -.25932143E+01
  | Error in electron count due to remaining E_F inaccuracy: 0.00000000E+00
  | Maximum occupation number of highest empty state:  0.00E+00

  Highest occupied state (VBM) at     -5.76151267 eV
  | Occupation number:      2.00000000

  Lowest unoccupied state (CBM) at    -2.02978860 eV
  | Occupation number:      0.00000000

  Overall HOMO-LUMO gap:      3.73172407 eV.

  Total energy components:
  | Sum of eigenvalues            :        -250.73882308 Ha       -6822.95052391 eV
  | XC energy correction          :         -55.71894616 Ha       -1516.18966800 eV
  | XC potential correction       :          71.23208861 Ha        1938.32375203 eV
  | Free-atom electrostatic energy:        -214.52546892 Ha       -5837.53501977 eV
  | Hartree energy correction     :          -9.56857889 Ha        -260.37427923 eV
  | van der Waals energy corr.    :           0.00000000 Ha           0.00000000 eV
  | Entropy correction            :           0.00000000 Ha           0.00000000 eV
  | ---------------------------
  | Total energy                  :        -459.31972843 Ha      -12498.72573888 eV
  | Total energy, T -> 0          :        -459.31972843 Ha      -12498.72573888 eV  <-- do not rely on this value for anything but (periodic) metals
  | Electronic free energy        :        -459.31972843 Ha      -12498.72573888 eV

  Derived energy quantities:
  | Kinetic energy                :         460.27199702 Ha       12524.63828549 eV
  | Electrostatic energy          :        -863.87277929 Ha      -23507.17435637 eV
  | Energy correction for multipole
  | error in Hartree potential    :          -0.00045716 Ha          -0.01244005 eV
  | Sum of eigenvalues per atom                           :        -379.05280688 eV
  | Total energy (T->0) per atom                          :        -694.37365216 eV  <-- do not rely on this value for anything but (periodic) metals
  | Electronic free energy per atom                       :        -694.37365216 eV

  Self-consistency convergence accuracy:
  | Change of charge density      : 0.5514E+00
  | Change of sum of eigenvalues  : 0.1853E+03 eV
  | Change of total energy        : 0.5626E+01 eV

  End self-consistency iteration #     2       :  max(cpu_time)    wall_clock(cpu1)
  | Time for this iteration                    :        2.890 s           2.889 s
  | Charge density update                      :        0.904 s           0.904 s
  | Density mixing                             :        0.007 s           0.007 s
  | Hartree multipole update                   :        0.006 s           0.006 s
  | Hartree multipole summation                :        0.475 s           0.475 s
  | Integration                                :        1.415 s           1.414 s
  | Solution of K.-S. eqns.                    :        0.082 s           0.083 s
  | Total energy evaluation                    :        0.000 s           0.000 s
------------------------------------------------------------

------------------------------------------------------------
          Begin self-consistency iteration #    3

  Date     :  20150727, Time     :  114724.119
------------------------------------------------------------
  Evaluating new KS density.
  Integration grid: deviation in total charge (<rho> - N_e) =   1.421085E-14
  Pulay mixing of updated and previous charge densities.

  Evaluating partitioned Hartree potential by multipole expansion.
  | Analytical far-field extrapolation by fixed multipoles:
  | Hartree multipole sum: apparent total charge =  -0.775464E-05
  Summing up the Hartree potential.
  Time summed over all CPUs for potential: real work        3.784 s, elapsed        3.791 s
  | RMS charge density error from multipole expansion :   0.145227E-01

  Integrating Hamiltonian matrix: batch-based integration.
  Time summed over all CPUs for integration: real work       11.065 s, elapsed       11.296 s

  Updating Kohn-Sham eigenvalues, eigenvectors, occupation numbers, and Fermi level.
  Solving generalized eigenproblem
  Updating Kohn-Sham eigenvalues and eigenfunctions.
  Solving real generalised eigenvalue problem by standard LAPACK (fast)
  Determining occupation numbers for Kohn-Sham eigenstates.
  | Chemical potential (Fermi level) in eV                 : -.33497254E+01
  | Error in electron count due to remaining E_F inaccuracy: 0.00000000E+00
  | Maximum occupation number of highest empty state:  0.00E+00

  Highest occupied state (VBM) at     -5.47979784 eV
  | Occupation number:      2.00000000

  Lowest unoccupied state (CBM) at    -2.05353255 eV
  | Occupation number:      0.00000000

  Overall HOMO-LUMO gap:      3.42626528 eV.

  Total energy components:
  | Sum of eigenvalues            :        -250.88846830 Ha       -6827.02257743 eV
  | XC energy correction          :         -55.69442597 Ha       -1515.52243952 eV
  | XC potential correction       :          71.19347476 Ha        1937.27301556 eV
  | Free-atom electrostatic energy:        -214.52546892 Ha       -5837.53501977 eV
  | Hartree energy correction     :          -9.39789012 Ha        -255.72960168 eV
  | van der Waals energy corr.    :           0.00000000 Ha           0.00000000 eV
  | Entropy correction            :           0.00000000 Ha           0.00000000 eV
  | ---------------------------
  | Total energy                  :        -459.31277855 Ha      -12498.53662284 eV
  | Total energy, T -> 0          :        -459.31277855 Ha      -12498.53662284 eV  <-- do not rely on this value for anything but (periodic) metals
  | Electronic free energy        :        -459.31277855 Ha      -12498.53662284 eV

  Derived energy quantities:
  | Kinetic energy                :         457.87581126 Ha       12459.43475331 eV
  | Electrostatic energy          :        -861.49416384 Ha      -23442.44893663 eV
  | Energy correction for multipole
  | error in Hartree potential    :          -0.00554971 Ha          -0.15101527 eV
  | Sum of eigenvalues per atom                           :        -379.27903208 eV
  | Total energy (T->0) per atom                          :        -694.36314571 eV  <-- do not rely on this value for anything but (periodic) metals
  | Electronic free energy per atom                       :        -694.36314571 eV

  Self-consistency convergence accuracy:
  | Change of charge density      : 0.2725E+00
  | Change of sum of eigenvalues  : -.4072E+01 eV
  | Change of total energy        : 0.1891E+00 eV

  End self-consistency iteration #     3       :  max(cpu_time)    wall_clock(cpu1)
  | Time for this iteration                    :        2.890 s           2.890 s
  | Charge density update                      :        0.904 s           0.904 s
  | Density mixing                             :        0.008 s           0.008 s
  | Hartree multipole update                   :        0.006 s           0.007 s
  | Hartree multipole summation                :        0.475 s           0.474 s
  | Integration                                :        1.415 s           1.415 s
  | Solution of K.-S. eqns.                    :        0.081 s           0.081 s
  | Total energy evaluation                    :        0.001 s           0.001 s
------------------------------------------------------------

------------------------------------------------------------
          Begin self-consistency iteration #    4

  Date     :  20150727, Time     :  114727.009
------------------------------------------------------------
  Evaluating new KS density.
  Integration grid: deviation in total charge (<rho> - N_e) =   3.552714E-14
  Pulay mixing of updated and previous charge densities.

  Evaluating partitioned Hartree potential by multipole expansion.
  | Analytical far-field extrapolation by fixed multipoles:
  | Hartree multipole sum: apparent total charge =  -0.937178E-05
  Summing up the Hartree potential.
  Time summed over all CPUs for potential: real work        3.783 s, elapsed        3.791 s
  | RMS charge density error from multipole expansion :   0.188070E-01

  Integrating Hamiltonian matrix: batch-based integration.
  Time summed over all CPUs for integration: real work       11.064 s, elapsed       11.301 s

  Updating Kohn-Sham eigenvalues, eigenvectors, occupation numbers, and Fermi level.
  Solving generalized eigenproblem
  Updating Kohn-Sham eigenvalues and eigenfunctions.
  Solving real generalised eigenvalue problem by standard LAPACK (fast)
  Determining occupation numbers for Kohn-Sham eigenstates.
  | Chemical potential (Fermi level) in eV                 : -.29434771E+01
  | Error in electron count due to remaining E_F inaccuracy: 0.00000000E+00
  | Maximum occupation number of highest empty state:  0.00E+00

  Highest occupied state (VBM) at     -4.21246690 eV
  | Occupation number:      2.00000000

  Lowest unoccupied state (CBM) at    -1.94549706 eV
  | Occupation number:      0.00000000

  Overall HOMO-LUMO gap:      2.26696984 eV.

  Total energy components:
  | Sum of eigenvalues            :        -248.85452190 Ha       -6771.67608006 eV
  | XC energy correction          :         -55.93123735 Ha       -1521.96640512 eV
  | XC potential correction       :          71.50118951 Ha        1945.64635985 eV
  | Free-atom electrostatic energy:        -214.52546892 Ha       -5837.53501977 eV
  | Hartree energy correction     :         -11.48955326 Ha        -312.64665154 eV
  | van der Waals energy corr.    :           0.00000000 Ha           0.00000000 eV
  | Entropy correction            :           0.00000000 Ha           0.00000000 eV
  | ---------------------------
  | Total energy                  :        -459.29959193 Ha      -12498.17779665 eV
  | Total energy, T -> 0          :        -459.29959193 Ha      -12498.17779665 eV  <-- do not rely on this value for anything but (periodic) metals
  | Electronic free energy        :        -459.29959193 Ha      -12498.17779665 eV

  Derived energy quantities:
  | Kinetic energy                :         458.06971894 Ha       12464.71124984 eV
  | Electrostatic energy          :        -861.43807352 Ha      -23440.92264137 eV
  | Energy correction for multipole
  | error in Hartree potential    :          -0.00766421 Ha          -0.20855374 eV
  | Sum of eigenvalues per atom                           :        -376.20422667 eV
  | Total energy (T->0) per atom                          :        -694.34321092 eV  <-- do not rely on this value for anything but (periodic) metals
  | Electronic free energy per atom                       :        -694.34321092 eV

  Self-consistency convergence accuracy:
  | Change of charge density      : 0.1470E+00
  | Change of sum of eigenvalues  : 0.5535E+02 eV
  | Change of total energy        : 0.3588E+00 eV

  End self-consistency iteration #     4       :  max(cpu_time)    wall_clock(cpu1)
  | Time for this iteration                    :        2.893 s           2.892 s
  | Charge density update                      :        0.904 s           0.904 s
  | Density mixing                             :        0.010 s           0.010 s
  | Hartree multipole update                   :        0.006 s           0.006 s
  | Hartree multipole summation                :        0.475 s           0.475 s
  | Integration                                :        1.415 s           1.415 s
  | Solution of K.-S. eqns.                    :        0.082 s           0.082 s
  | Total energy evaluation                    :        0.000 s           0.000 s
------------------------------------------------------------

------------------------------------------------------------
          Begin self-consistency iteration #    5

  Date     :  20150727, Time     :  114729.901
------------------------------------------------------------
  Evaluating new KS density.
  Integration grid: deviation in total charge (<rho> - N_e) =   2.842171E-14
  Pulay mixing of updated and previous charge densities.

  Evaluating partitioned Hartree potential by multipole expansion.
  | Analytical far-field extrapolation by fixed multipoles:
  | Hartree multipole sum: apparent total charge =  -0.942430E-05
  Summing up the Hartree potential.
  Time summed over all CPUs for potential: real work        3.783 s, elapsed        3.790 s
  | RMS charge density error from multipole expansion :   0.194851E-01

  Integrating Hamiltonian matrix: batch-based integration.
  Time summed over all CPUs for integration: real work       11.070 s, elapsed       11.307 s

  Updating Kohn-Sham eigenvalues, eigenvectors, occupation numbers, and Fermi level.
  Solving generalized eigenproblem
  Updating Kohn-Sham eigenvalues and eigenfunctions.
  Solving real generalised eigenvalue problem by standard LAPACK (fast)
  Determining occupation numbers for Kohn-Sham eigenstates.
  | Chemical potential (Fermi level) in eV                 : -.29098061E+01
  | Error in electron count due to remaining E_F inaccuracy: 0.00000000E+00
  | Maximum occupation number of highest empty state:  0.00E+00

  Highest occupied state (VBM) at     -4.02052645 eV
  | Occupation number:      2.00000000

  Lowest unoccupied state (CBM) at    -1.92059063 eV
  | Occupation number:      0.00000000

  Overall HOMO-LUMO gap:      2.09993583 eV.

  Total energy components:
  | Sum of eigenvalues            :        -248.73621872 Ha       -6768.45688653 eV
  | XC energy correction          :         -55.95039978 Ha       -1522.48784132 eV
  | XC potential correction       :          71.52553565 Ha        1946.30885221 eV
  | Free-atom electrostatic energy:        -214.52546892 Ha       -5837.53501977 eV
  | Hartree energy correction     :         -11.61277607 Ha        -315.99971476 eV
  | van der Waals energy corr.    :           0.00000000 Ha           0.00000000 eV
  | Entropy correction            :           0.00000000 Ha           0.00000000 eV
  | ---------------------------
  | Total energy                  :        -459.29932783 Ha      -12498.17061017 eV
  | Total energy, T -> 0          :        -459.29932783 Ha      -12498.17061017 eV  <-- do not rely on this value for anything but (periodic) metals
  | Electronic free energy        :        -459.29932783 Ha      -12498.17061017 eV

  Derived energy quantities:
  | Kinetic energy                :         458.09316496 Ha       12465.34924863 eV
  | Electrostatic energy          :        -861.44209301 Ha      -23441.03201748 eV
  | Energy correction for multipole
  | error in Hartree potential    :          -0.00795807 Ha          -0.21655000 eV
  | Sum of eigenvalues per atom                           :        -376.02538259 eV
  | Total energy (T->0) per atom                          :        -694.34281168 eV  <-- do not rely on this value for anything but (periodic) metals
  | Electronic free energy per atom                       :        -694.34281168 eV

  Self-consistency convergence accuracy:
  | Change of charge density      : 0.3473E-01
  | Change of sum of eigenvalues  : 0.3219E+01 eV
  | Change of total energy        : 0.7186E-02 eV

  End self-consistency iteration #     5       :  max(cpu_time)    wall_clock(cpu1)
  | Time for this iteration                    :        2.895 s           2.895 s
  | Charge density update                      :        0.904 s           0.905 s
  | Density mixing                             :        0.012 s           0.011 s
  | Hartree multipole update                   :        0.006 s           0.006 s
  | Hartree multipole summation                :        0.475 s           0.475 s
  | Integration                                :        1.416 s           1.416 s
  | Solution of K.-S. eqns.                    :        0.081 s           0.081 s
  | Total energy evaluation                    :        0.001 s           0.000 s
------------------------------------------------------------

------------------------------------------------------------
          Begin self-consistency iteration #    6

  Date     :  20150727, Time     :  114732.796
------------------------------------------------------------
  Evaluating new KS density.
  Integration grid: deviation in total charge (<rho> - N_e) =   2.131628E-14
  Pulay mixing of updated and previous charge densities.

  Evaluating partitioned Hartree potential by multipole expansion.
  | Analytical far-field extrapolation by fixed multipoles:
  | Hartree multipole sum: apparent total charge =  -0.943780E-05
  Summing up the Hartree potential.
  Time summed over all CPUs for potential: real work        3.782 s, elapsed        3.792 s
  | RMS charge density error from multipole expansion :   0.196765E-01

  Integrating Hamiltonian matrix: batch-based integration.
  Time summed over all CPUs for integration: real work       11.072 s, elapsed       11.284 s

  Updating Kohn-Sham eigenvalues, eigenvectors, occupation numbers, and Fermi level.
  Solving generalized eigenproblem
  Updating Kohn-Sham eigenvalues and eigenfunctions.
  Solving real generalised eigenvalue problem by standard LAPACK (fast)
  Determining occupation numbers for Kohn-Sham eigenstates.
  | Chemical potential (Fermi level) in eV                 : -.29035948E+01
  | Error in electron count due to remaining E_F inaccuracy: 0.00000000E+00
  | Maximum occupation number of highest empty state:  0.00E+00

  Highest occupied state (VBM) at     -4.00932996 eV
  | Occupation number:      2.00000000

  Lowest unoccupied state (CBM) at    -1.91679399 eV
  | Occupation number:      0.00000000

  Overall HOMO-LUMO gap:      2.09253597 eV.

  Total energy components:
  | Sum of eigenvalues            :        -248.71102444 Ha       -6767.77131547 eV
  | XC energy correction          :         -55.95475436 Ha       -1522.60633538 eV
  | XC potential correction       :          71.53102178 Ha        1946.45813736 eV
  | Free-atom electrostatic energy:        -214.52546892 Ha       -5837.53501977 eV
  | Hartree energy correction     :         -11.63913942 Ha        -316.71709805 eV
  | van der Waals energy corr.    :           0.00000000 Ha           0.00000000 eV
  | Entropy correction            :           0.00000000 Ha           0.00000000 eV
  | ---------------------------
  | Total energy                  :        -459.29936536 Ha      -12498.17163131 eV
  | Total energy, T -> 0          :        -459.29936536 Ha      -12498.17163131 eV  <-- do not rely on this value for anything but (periodic) metals
  | Electronic free energy        :        -459.29936536 Ha      -12498.17163131 eV

  Derived energy quantities:
  | Kinetic energy                :         458.09406320 Ha       12465.37369078 eV
  | Electrostatic energy          :        -861.43867420 Ha      -23440.93898672 eV
  | Energy correction for multipole
  | error in Hartree potential    :          -0.00804657 Ha          -0.21895827 eV
  | Sum of eigenvalues per atom                           :        -375.98729530 eV
  | Total energy (T->0) per atom                          :        -694.34286841 eV  <-- do not rely on this value for anything but (periodic) metals
  | Electronic free energy per atom                       :        -694.34286841 eV

  Self-consistency convergence accuracy:
  | Change of charge density      : 0.1199E-01
  | Change of sum of eigenvalues  : 0.6856E+00 eV
  | Change of total energy        : -.1021E-02 eV

  End self-consistency iteration #     6       :  max(cpu_time)    wall_clock(cpu1)
  | Time for this iteration                    :        2.894 s           2.894 s
  | Charge density update                      :        0.904 s           0.904 s
  | Density mixing                             :        0.014 s           0.013 s
  | Hartree multipole update                   :        0.006 s           0.006 s
  | Hartree multipole summation                :        0.475 s           0.475 s
  | Integration                                :        1.413 s           1.412 s
  | Solution of K.-S. eqns.                    :        0.081 s           0.081 s
  | Total energy evaluation                    :        0.000 s           0.000 s
------------------------------------------------------------

------------------------------------------------------------
          Begin self-consistency iteration #    7

  Date     :  20150727, Time     :  114735.690
------------------------------------------------------------
  Evaluating new KS density.
  Integration grid: deviation in total charge (<rho> - N_e) =  -1.421085E-14
  Pulay mixing of updated and previous charge densities.

  Evaluating partitioned Hartree potential by multipole expansion.
  | Analytical far-field extrapolation by fixed multipoles:
  | Hartree multipole sum: apparent total charge =  -0.922310E-05
  Summing up the Hartree potential.
  Time summed over all CPUs for potential: real work        3.782 s, elapsed        3.790 s
  | RMS charge density error from multipole expansion :   0.197022E-01

  Integrating Hamiltonian matrix: batch-based integration.
  Time summed over all CPUs for integration: real work       11.067 s, elapsed       11.284 s

  Updating Kohn-Sham eigenvalues, eigenvectors, occupation numbers, and Fermi level.
  Solving generalized eigenproblem
  Updating Kohn-Sham eigenvalues and eigenfunctions.
  Solving real generalised eigenvalue problem by standard LAPACK (fast)
  Determining occupation numbers for Kohn-Sham eigenstates.
  | Chemical potential (Fermi level) in eV                 : -.29404157E+01
  | Error in electron count due to remaining E_F inaccuracy: 0.00000000E+00
  | Maximum occupation number of highest empty state:  0.00E+00

  Highest occupied state (VBM) at     -4.16262402 eV
  | Occupation number:      2.00000000

  Lowest unoccupied state (CBM) at    -1.92278593 eV
  | Occupation number:      0.00000000

  Overall HOMO-LUMO gap:      2.23983809 eV.

  Total energy components:
  | Sum of eigenvalues            :        -248.88108726 Ha       -6772.39896013 eV
  | XC energy correction          :         -55.93970496 Ha       -1522.19682036 eV
  | XC potential correction       :          71.51073431 Ha        1945.90608719 eV
  | Free-atom electrostatic energy:        -214.52546892 Ha       -5837.53501977 eV
  | Hartree energy correction     :         -11.46373048 Ha        -311.94397793 eV
  | van der Waals energy corr.    :           0.00000000 Ha           0.00000000 eV
  | Entropy correction            :           0.00000000 Ha           0.00000000 eV
  | ---------------------------
  | Total energy                  :        -459.29925730 Ha      -12498.16869099 eV
  | Total energy, T -> 0          :        -459.29925730 Ha      -12498.16869099 eV  <-- do not rely on this value for anything but (periodic) metals
  | Electronic free energy        :        -459.29925730 Ha      -12498.16869099 eV

  Derived energy quantities:
  | Kinetic energy                :         458.15995831 Ha       12467.16678799 eV
  | Electrostatic energy          :        -861.51951065 Ha      -23443.13865863 eV
  | Energy correction for multipole
  | error in Hartree potential    :          -0.00796879 Ha          -0.21684176 eV
  | Sum of eigenvalues per atom                           :        -376.24438667 eV
  | Total energy (T->0) per atom                          :        -694.34270505 eV  <-- do not rely on this value for anything but (periodic) metals
  | Electronic free energy per atom                       :        -694.34270505 eV

  Self-consistency convergence accuracy:
  | Change of charge density      : 0.1112E-01
  | Change of sum of eigenvalues  : -.4628E+01 eV
  | Change of total energy        : 0.2940E-02 eV

  End self-consistency iteration #     7       :  max(cpu_time)    wall_clock(cpu1)
  | Time for this iteration                    :        2.896 s           2.895 s
  | Charge density update                      :        0.904 s           0.904 s
  | Density mixing                             :        0.015 s           0.015 s
  | Hartree multipole update                   :        0.006 s           0.006 s
  | Hartree multipole summation                :        0.475 s           0.474 s
  | Integration                                :        1.413 s           1.413 s
  | Solution of K.-S. eqns.                    :        0.082 s           0.081 s
  | Total energy evaluation                    :        0.001 s           0.000 s
------------------------------------------------------------

------------------------------------------------------------
          Begin self-consistency iteration #    8

  Date     :  20150727, Time     :  114738.585
------------------------------------------------------------
  Evaluating new KS density.
  Integration grid: deviation in total charge (<rho> - N_e) =   3.552714E-14
  Pulay mixing of updated and previous charge densities.

  Evaluating partitioned Hartree potential by multipole expansion.
  | Analytical far-field extrapolation by fixed multipoles:
  | Hartree multipole sum: apparent total charge =  -0.923226E-05
  Summing up the Hartree potential.
  Time summed over all CPUs for potential: real work        3.782 s, elapsed        3.792 s
  | RMS charge density error from multipole expansion :   0.197664E-01

  Integrating Hamiltonian matrix: batch-based integration.
  Time summed over all CPUs for integration: real work       11.069 s, elapsed       11.288 s

  Updating Kohn-Sham eigenvalues, eigenvectors, occupation numbers, and Fermi level.
  Solving generalized eigenproblem
  Updating Kohn-Sham eigenvalues and eigenfunctions.
  Solving real generalised eigenvalue problem by standard LAPACK (fast)
  Determining occupation numbers for Kohn-Sham eigenstates.
  | Chemical potential (Fermi level) in eV                 : -.29386742E+01
  | Error in electron count due to remaining E_F inaccuracy: 0.00000000E+00
  | Maximum occupation number of highest empty state:  0.00E+00

  Highest occupied state (VBM) at     -4.13538860 eV
  | Occupation number:      2.00000000

  Lowest unoccupied state (CBM) at    -1.92385774 eV
  | Occupation number:      0.00000000

  Overall HOMO-LUMO gap:      2.21153086 eV.

  Total energy components:
  | Sum of eigenvalues            :        -248.86209636 Ha       -6771.88219166 eV
  | XC energy correction          :         -55.94175277 Ha       -1522.25254420 eV
  | XC potential correction       :          71.51335949 Ha        1945.97752200 eV
  | Free-atom electrostatic energy:        -214.52546892 Ha       -5837.53501977 eV
  | Hartree energy correction     :         -11.48329829 Ha        -312.47644509 eV
  | van der Waals energy corr.    :           0.00000000 Ha           0.00000000 eV
  | Entropy correction            :           0.00000000 Ha           0.00000000 eV
  | ---------------------------
  | Total energy                  :        -459.29925685 Ha      -12498.16867871 eV
  | Total energy, T -> 0          :        -459.29925685 Ha      -12498.16867871 eV  <-- do not rely on this value for anything but (periodic) metals
  | Electronic free energy        :        -459.29925685 Ha      -12498.16867871 eV

  Derived energy quantities:
  | Kinetic energy                :         458.16370587 Ha       12467.26876449 eV
  | Electrostatic energy          :        -861.52120996 Ha      -23443.18489901 eV
  | Energy correction for multipole
  | error in Hartree potential    :          -0.00801631 Ha          -0.21813502 eV
  | Sum of eigenvalues per atom                           :        -376.21567731 eV
  | Total energy (T->0) per atom                          :        -694.34270437 eV  <-- do not rely on this value for anything but (periodic) metals
  | Electronic free energy per atom                       :        -694.34270437 eV

  Self-consistency convergence accuracy:
  | Change of charge density      : 0.2464E-02
  | Change of sum of eigenvalues  : 0.5168E+00 eV
  | Change of total energy        : 0.1228E-04 eV

  End self-consistency iteration #     8       :  max(cpu_time)    wall_clock(cpu1)
  | Time for this iteration                    :        2.896 s           2.896 s
  | Charge density update                      :        0.904 s           0.904 s
  | Density mixing                             :        0.016 s           0.016 s
  | Hartree multipole update                   :        0.006 s           0.006 s
  | Hartree multipole summation                :        0.475 s           0.475 s
  | Integration                                :        1.414 s           1.414 s
  | Solution of K.-S. eqns.                    :        0.081 s           0.081 s
  | Total energy evaluation                    :        0.000 s           0.000 s
------------------------------------------------------------

------------------------------------------------------------
          Begin self-consistency iteration #    9

  Date     :  20150727, Time     :  114741.481
------------------------------------------------------------
  Evaluating new KS density.
  Integration grid: deviation in total charge (<rho> - N_e) =   4.263256E-14
  Pulay mixing of updated and previous charge densities.

[...]
   Pulay + GGA                   : 0.203996E+01 0.564955E+01 0.125559E+02
   Van der Waals               : -.501895E-02 -.787916E-02 -.415275E-02
   ----------------------------------------------------------------
   Total forces(  13)            : 0.138790E+01 0.883590E+00 -.210686E+01
  atom #   14
   Hellmann-Feynman + Multipole  : -.435668E+00 -.323940E+00 0.203242E+00
   Pulay + GGA                   : 0.935944E-01 0.562699E-01 0.529296E-01
   Van der Waals               : -.512263E-02 -.185862E-02 0.656510E-03
   ----------------------------------------------------------------
   Total forces(  14)            : -.347196E+00 -.269529E+00 0.256828E+00
  atom #   15
   Hellmann-Feynman + Multipole  : -.613856E+00 -.442196E+00 0.145200E+01
   Pulay + GGA                   : -.346715E-01 -.131831E-01 0.701146E-01
   Van der Waals               : 0.132010E-02 -.302303E-02 -.496931E-02
   ----------------------------------------------------------------
   Total forces(  15)            : -.647207E+00 -.458402E+00 0.151715E+01
  atom #   16
   Hellmann-Feynman + Multipole  : -.122692E+02 -.333114E+01 0.237075E+01
   Pulay + GGA                   : 0.129803E+02 0.512191E+01 -.323943E+01
   Van der Waals               : -.209131E-02 -.502785E-02 0.198732E-02
   ----------------------------------------------------------------
   Total forces(  16)            : 0.708990E+00 0.178574E+01 -.866696E+00
  atom #   17
   Hellmann-Feynman + Multipole  : 0.464834E-01 -.375564E+00 0.233296E+00
   Pulay + GGA                   : 0.802745E-01 -.230558E-01 0.271073E-01
   Van der Waals               : -.440964E-02 -.637077E-02 0.103385E-02
   ----------------------------------------------------------------
   Total forces(  17)            : 0.122348E+00 -.404990E+00 0.261437E+00
  atom #   18
   Hellmann-Feynman + Multipole  : -.819474E+00 -.150729E+01 0.693832E+00
   Pulay + GGA                   : 0.420767E-01 0.106708E+00 -.486058E-01
   Van der Waals               : 0.151810E-02 -.460235E-02 0.239880E-02
   ----------------------------------------------------------------
   Total forces(  18)            : -.775880E+00 -.140518E+01 0.647625E+00
  Timings for vdw_correction_hirshfeld (Tkatchenko-Scheffler 2009):
  | CPU time:        7.669 s, Wall clock time:        7.669 s.
  Removing unitary transformations (pure translations, rotations) from forces on atoms.
  Atomic forces before filtering:
  | Net force on center of mass :  0.948989E-02 -.482182E-02 0.708067E-02 eV/A
  | Net torque on center of mass:  -.662049E-02 -.516800E-02 -.783963E-02 eV
  Atomic forces after filtering:
  | Net force on center of mass :  -.892031E-16 0.713624E-15 0.356812E-15 eV/A
  | Net torque on center of mass:  -.226580E-14 0.339870E-14 0.000000E+00 eV
 
  Energy and forces in a compact form:
  | Total energy uncorrected      :         -0.124982723374435E+05 eV
  | Total energy corrected        :         -0.124982723374435E+05 eV  <-- do not rely on this value for anything but (periodic) metals
  | Electronic free energy        :         -0.124982723374435E+05 eV
  Total atomic forces (unitary forces cleaned) [eV/Ang]:
  |   1          0.960731186864563E+00          0.260657735623323E+01         -0.168782132460928E+01
  |   2          0.177782274497852E+01         -0.275638569403151E+01          0.112934480231600E+01
  |   3         -0.207729454221840E+01         -0.461652613629732E+00         -0.127386487041102E+00
  |   4         -0.670948870863930E+00         -0.187061462181763E+01         -0.415911194570148E+00
  |   5         -0.336400282070576E+00          0.550352112442891E+00          0.898750796217495E+00
  |   6          0.617657538253853E+00          0.703812408677204E+00          0.201160331806037E+00
  |   7         -0.126651445428291E+00          0.425346149410844E+00          0.210163858380104E+01
  |   8         -0.108653488974076E+00         -0.413052706959150E-01          0.215201084945643E-01
  |   9         -0.293794451448067E+00          0.330362378614001E+00         -0.235776261268489E+01
  |  10         -0.149097858606123E+01          0.188800088543765E+01          0.212836783114616E+01
  |  11         -0.375015031150538E+00          0.273300466146873E+00         -0.208129229956926E+01
  |  12          0.167889064407845E+01         -0.178142763285550E+01          0.481887521523227E+00
  |  13          0.138731462582260E+01          0.884045805226455E+00         -0.210731006070396E+01
  |  14         -0.347824125956037E+00         -0.269010284356056E+00          0.256369722422776E+00
  |  15         -0.647713007621119E+00         -0.458074428687580E+00          0.151670557732276E+01
  |  16          0.708143779710465E+00          0.178606142364042E+01         -0.866893183922863E+00
  |  17          0.121570421134209E+00         -0.404599293677245E+00          0.261152574326843E+00
  |  18         -0.776857109050397E+00         -0.140478914607841E+01          0.647479313724605E+00
 
  ------------------------------------ 
  Start decomposition of the XC Energy 
  ------------------------------------ 
  Hartree-Fock part   :          0.000000000 Ha              0.000000000 eV
  ------------------------------------ 
  X Energy            :        -53.971871942 Ha          -1468.649359592 eV
  C Energy GGA        :         -1.969208760 Ha            -53.584896724 eV
  Total XC Energy     :        -55.941080702 Ha          -1522.234256316 eV
  LDA X and C from self-consistent density 
  X Energy LDA        :        -48.654279342 Ha          -1323.950302746 eV
  C Energy LDA        :         -3.962853876 Ha           -107.834740545 eV
  ------------------------------------ 
  End decomposition of the XC Energy 
  ------------------------------------ 
  Performing Hirshfeld analysis of fragment charges and moments.
  ----------------------------------------------------------------------
  | Atom     1: O
  |   Hirshfeld charge        :     -0.35493905
  |   Free atom volume        :     23.95238533
  |   Hirshfeld volume        :     23.82899187
  |   Hirshfeld dipole vector :      0.01103819       0.06118958       0.02953997
  |   Hirshfeld dipole moment :      0.06883761
  |   Hirshfeld second moments:      0.02331460      -0.01176105       0.01644655
  |                                 -0.01176105      -0.05684943      -0.03102587
  |                                  0.01644655      -0.03102587      -0.08130624
  ----------------------------------------------------------------------
  | Atom     2: H
  |   Hirshfeld charge        :      0.06464832
  |   Free atom volume        :     10.44207651
  |   Hirshfeld volume        :      8.51251181
  |   Hirshfeld dipole vector :     -0.02312376       0.03652904      -0.00679064
  |   Hirshfeld dipole moment :      0.04376291
  |   Hirshfeld second moments:      0.06822800       0.03106652       0.00094281
  |                                  0.03106652       0.02436755       0.00789755
  |                                  0.00094281       0.00789755       0.06106972
  ----------------------------------------------------------------------
  | Atom     3: H
  |   Hirshfeld charge        :      0.09184761
  |   Free atom volume        :     10.44207651
  |   Hirshfeld volume        :      7.95652038
  |   Hirshfeld dipole vector :      0.10509633       0.02664726       0.01870029
  |   Hirshfeld dipole moment :      0.11002280
  |   Hirshfeld second moments:      0.08438051      -0.01600134      -0.00283439
  |                                 -0.01600134       0.07506925      -0.01455391
  |                                 -0.00283439      -0.01455391       0.06132171
  ----------------------------------------------------------------------
  | Atom     4: O
  |   Hirshfeld charge        :     -0.30553426
  |   Free atom volume        :     23.95238533
  |   Hirshfeld volume        :     22.35931070
  |   Hirshfeld dipole vector :     -0.02935424       0.02162845       0.01066315
  |   Hirshfeld dipole moment :      0.03798900
  |   Hirshfeld second moments:      0.01870989       0.05477415      -0.01020058
  |                                  0.05477415       0.01281808       0.01813861
  |                                 -0.01020058       0.01813861      -0.01153365
  ----------------------------------------------------------------------
  | Atom     5: H
  |   Hirshfeld charge        :      0.07194854
  |   Free atom volume        :     10.44207651
  |   Hirshfeld volume        :      7.91289846
  |   Hirshfeld dipole vector :      0.01634654       0.04577578       0.03093926
  |   Hirshfeld dipole moment :      0.05761831
  |   Hirshfeld second moments:      0.08740806      -0.00004339      -0.01093670
  |                                 -0.00004339       0.04030790      -0.01825355
  |                                 -0.01093670      -0.01825355       0.07108442
  ----------------------------------------------------------------------
  | Atom     6: H
  |   Hirshfeld charge        :      0.12471312
  |   Free atom volume        :     10.44207651
  |   Hirshfeld volume        :      6.87947626
  |   Hirshfeld dipole vector :     -0.10190700      -0.06122368       0.01839146
  |   Hirshfeld dipole moment :      0.12029805
  |   Hirshfeld second moments:      0.09271387       0.01326460      -0.00004644
  |                                  0.01326460       0.10757775       0.01227600
  |                                 -0.00004644       0.01227600       0.09676949
  ----------------------------------------------------------------------
  | Atom     7: O
  |   Hirshfeld charge        :     -0.20469891
  |   Free atom volume        :     23.95238533
  |   Hirshfeld volume        :     20.54725128
  |   Hirshfeld dipole vector :      0.03334220      -0.00899515      -0.01482360
  |   Hirshfeld dipole moment :      0.03758130
  |   Hirshfeld second moments:      0.03247198       0.01121100       0.02713804
  |                                  0.01121100       0.07374055       0.00404495
  |                                  0.02713804       0.00404495       0.09772213
  ----------------------------------------------------------------------
  | Atom     8: H
  |   Hirshfeld charge        :      0.11467533
  |   Free atom volume        :     10.44207651
  |   Hirshfeld volume        :      7.39663425
  |   Hirshfeld dipole vector :      0.02755545       0.03655154       0.00703219
  |   Hirshfeld dipole moment :      0.04631166
  |   Hirshfeld second moments:      0.07928000      -0.02098303      -0.00670522
  |                                 -0.02098303       0.06758595      -0.02928716
  |                                 -0.00670522      -0.02928716       0.10098244
  ----------------------------------------------------------------------
  | Atom     9: H
  |   Hirshfeld charge        :      0.15943576
  |   Free atom volume        :     10.44207651
  |   Hirshfeld volume        :      6.02303087
  |   Hirshfeld dipole vector :     -0.01741841       0.01013348      -0.11906006
  |   Hirshfeld dipole moment :      0.12075341
  |   Hirshfeld second moments:      0.11764445       0.00891031       0.00840144
  |                                  0.00891031       0.13183192       0.00213132
  |                                  0.00840144       0.00213132       0.12240094
  ----------------------------------------------------------------------
  | Atom    10: O
  |   Hirshfeld charge        :     -0.14646684
  |   Free atom volume        :     23.95238533
  |   Hirshfeld volume        :     19.63632381
  |   Hirshfeld dipole vector :      0.00037193      -0.00938386      -0.01321087
  |   Hirshfeld dipole moment :      0.01620871
  |   Hirshfeld second moments:      0.08625688      -0.02633060       0.01109818
  |                                 -0.02633060       0.08157402      -0.00993729
  |                                  0.01109818      -0.00993729       0.11165432
  ----------------------------------------------------------------------
  | Atom    11: H
  |   Hirshfeld charge        :      0.18374958
  |   Free atom volume        :     10.44207651
  |   Hirshfeld volume        :      5.46243328
  |   Hirshfeld dipole vector :      0.02098901      -0.01648536       0.11593698
  |   Hirshfeld dipole moment :      0.11896928
  |   Hirshfeld second moments:      0.14238516      -0.01049595       0.00030315
  |                                 -0.01049595       0.13697245      -0.00054228
  |                                  0.00030315      -0.00054228       0.13012705
  ----------------------------------------------------------------------
  | Atom    12: H
  |   Hirshfeld charge        :      0.18796772
  |   Free atom volume        :     10.44207651
  |   Hirshfeld volume        :      5.96740636
  |   Hirshfeld dipole vector :     -0.08275870       0.07393223      -0.01928348
  |   Hirshfeld dipole moment :      0.11263583
  |   Hirshfeld second moments:      0.12733070      -0.00011859      -0.00185728
  |                                 -0.00011859       0.11815926       0.00826886
  |                                 -0.00185728       0.00826886       0.13679133
  ----------------------------------------------------------------------
  | Atom    13: O
  |   Hirshfeld charge        :     -0.25951526
  |   Free atom volume        :     23.95238533
  |   Hirshfeld volume        :     20.84734211
  |   Hirshfeld dipole vector :     -0.01351875       0.01779134       0.02818469
  |   Hirshfeld dipole moment :      0.03596756
  |   Hirshfeld second moments:      0.07311585       0.03698970       0.01051794
  |                                  0.03698970       0.03479147      -0.01262530
  |                                  0.01051794      -0.01262530       0.04167562
  ----------------------------------------------------------------------
  | Atom    14: H
  |   Hirshfeld charge        :      0.15413625
  |   Free atom volume        :     10.44207651
  |   Hirshfeld volume        :      5.93922498
  |   Hirshfeld dipole vector :      0.09638012       0.06660162       0.03416890
  |   Hirshfeld dipole moment :      0.12203449
  |   Hirshfeld second moments:      0.12465510       0.00611379      -0.00527000
  |                                  0.00611379       0.11358428      -0.00911627
  |                                 -0.00527000      -0.00911627       0.12872427
  ----------------------------------------------------------------------
  | Atom    15: H
  |   Hirshfeld charge        :      0.09940006
  |   Free atom volume        :     10.44207651
  |   Hirshfeld volume        :      7.35096035
  |   Hirshfeld dipole vector :     -0.02625893      -0.01840603       0.03493850
  |   Hirshfeld dipole moment :      0.04742375
  |   Hirshfeld second moments:      0.07823388      -0.00380078       0.03572788
  |                                 -0.00380078       0.09104230       0.01100701
  |                                  0.03572788       0.01100701       0.07562634
  ----------------------------------------------------------------------
  | Atom    16: O
  |   Hirshfeld charge        :     -0.24512005
  |   Free atom volume        :     23.95238533
  |   Hirshfeld volume        :     20.97499056
  |   Hirshfeld dipole vector :      0.02794263      -0.01832023      -0.02722807
  |   Hirshfeld dipole moment :      0.04310208
  |   Hirshfeld second moments:      0.03691507       0.00778616       0.02027766
  |                                  0.00778616       0.07848732      -0.03155440
  |                                  0.02027766      -0.03155440       0.02433556
  ----------------------------------------------------------------------
  | Atom    17: H
  |   Hirshfeld charge        :      0.10811862
  |   Free atom volume        :     10.44207651
  |   Hirshfeld volume        :      7.33443286
  |   Hirshfeld dipole vector :      0.04942069      -0.01901792       0.00385822
  |   Hirshfeld dipole moment :      0.05309399
  |   Hirshfeld second moments:      0.06887491       0.03269246      -0.02087209
  |                                  0.03269246       0.09545293       0.00364640
  |                                 -0.02087209       0.00364640       0.08417025
  ----------------------------------------------------------------------
  | Atom    18: H
  |   Hirshfeld charge        :      0.15561793
  |   Free atom volume        :     10.44207651
  |   Hirshfeld volume        :      5.94973303
  |   Hirshfeld dipole vector :      0.03719032       0.10064546      -0.05550380
  |   Hirshfeld dipole moment :      0.12080273
  |   Hirshfeld second moments:      0.12896887      -0.00467514       0.01059793
  |                                 -0.00467514       0.12334638      -0.00252615
  |                                  0.01059793      -0.00252615       0.11395508
  ----------------------------------------------------------------------


------------------------------------------------------------------------------
  Final output of selected total energy values:

  The following output summarizes some interesting total energy values
  at the end of a run (AFTER all relaxation, molecular dynamics, etc.).

  | Total energy of the DFT / Hartree-Fock s.c.f. calculation      :         -12498.272337444 eV
  | Final zero-broadening corrected energy (caution - metals only) :         -12498.272337444 eV
  | For reference only, the value of 1 Hartree used in FHI-aims is :             27.211384500 eV

  Before relying on these values, please be sure to understand exactly which
  total energy value is referred to by a given number. Different objects may
  all carry the same name 'total energy'. Definitions:

  Total energy of the DFT / Hartree-Fock s.c.f. calculation:
  | Note that this energy does not include ANY quantities calculated after the
  | s.c.f. cycle, in particular not ANY RPA, MP2, etc. many-body perturbation terms.

  Final zero-broadening corrected energy:
  | For metallic systems only, a broadening of the occupation numbers at the Fermi
  | level can be extrapolated back to zero broadening by an electron-gas inspired
  | formula. For all systems that are not real metals, this value can be
  | meaningless and should be avoided.

------------------------------------------------------------------------------

------------------------------------------------------------
          Leaving FHI-aims.
          Date     :  20150727, Time     :  114810.453

          Computational steps:
          | Number of self-consistency cycles          :           16

          Detailed time accounting                     :  max(cpu_time)    wall_clock(cpu1)
          | Total time                                 :       55.686 s          55.699 s
          | Preparation time                           :        0.173 s           0.591 s
          | Grid partitioning                          :        0.190 s           0.190 s
          | Preloading free-atom quantities on grid    :        0.014 s           0.013 s
          | Free-atom superposition energy             :        0.090 s           0.091 s
          | Total time for integrations                :       24.833 s          24.832 s
          | Total time for solution of K.-S. equations :        1.600 s           1.601 s
          | Total time for density & force components  :       18.460 s          18.460 s
          | Total time for mixing                      :        0.250 s           0.250 s
          | Total time for Hartree multipole update    :        0.100 s           0.098 s
          | Total time for Hartree multipole sum       :        9.165 s           9.164 s
          | Total time for total energy evaluation     :        0.007 s           0.004 s
          | Total time for scaled ZORA corrections     :        0.000 s           0.000 s
          | Total time for TS (2009) vdW correction    :        0.073 s           0.072 s

          Have a nice day.
------------------------------------------------------------
