  MPI-parallelism will be employed.
------------------------------------------------------------
          Invoking FHI-aims ...
          Version 081213
          Compiled on 2013/08/29 at 17:41:06 on host generoso.

          When using FHI-aims, please cite the following reference:

          Volker Blum, Ralf Gehrke, Felix Hanke, Paula Havu,
          Ville Havu, Xinguo Ren, Karsten Reuter, and Matthias Scheffler,
          'Ab Initio Molecular Simulations with Numeric Atom-Centered Orbitals: FHI-aims',
          Computer Physics Communications 180, 2175-2196 (2009)

          For any questions about FHI-aims, please visit the aimsclub website
          with its forums and wiki. Contributions to both the forums and the
          wiki are warmly encouraged - they are for you, and everyone is welcome there.

------------------------------------------------------------

  Date     :  20150727, Time     :  122736.269
  Time zero on CPU 1             :   0.539910000000000E-01  s.
  Internal wall clock time zero  :           207232056.269  s.

  Using        8 parallel tasks.
  Task        0 on host gen60 reporting.
  Task        1 on host gen60 reporting.
  Task        2 on host gen60 reporting.
  Task        3 on host gen60 reporting.
  Task        4 on host gen60 reporting.
  Task        5 on host gen60 reporting.
  Task        6 on host gen60 reporting.
  Task        7 on host gen60 reporting.

  Performing system and environment tests:
  | Environment variable OMP_NUM_THREADS correctly set to 1.
  | Checking for scalapack...
  | No scalapack compiled in.

  Obtaining array dimensions for all initial allocations:
  
  -----------------------------------------------------------------------
  Parsing control.in (first pass over file, find array dimensions only).
  The contents of control.in will be repeated verbatim below
  unless switched off by setting 'verbatim_writeout .false.' .
  in the first line of control.in .
  -----------------------------------------------------------------------
  
  #########################################################################################
  #
  #  Volker Blum, FHI 2008 : Test run input file control.in
  #
  #########################################################################################
  #
  #  Physical model
  #
    xc                 rpbe
    spin               none
    relativistic       atomic_zora scalar
    charge             0.
   vdw_correction_hirshfeld
  #
  #  SCF convergence
  #
    occupation_type    gaussian 0.01
    mixer              pulay
      n_max_pulay        10
      charge_mix_param   0.1
    sc_accuracy_rho    5E-5
    sc_accuracy_eev    5E-3
    sc_accuracy_etot   5E-6
    sc_iter_limit      3000
  #
  #  Eigenvalue solver
  #
    KS_method          lapack
      empty_states       8
      basis_threshold    0.e-5
  #
  #  Efficiency
  #
  #   all previous settings are now default, except stratmann still
  #   undecided. Continue to handle stratmann with care, if at all.
  #
  #  partition_type stratmann
    partition_type rho_r2
  #  hartree_partition_type stratmann
  #
  #  Oprions for large clusters (100's of atoms: memory saving / better scaling)
  #
  # for periodic systems:
  #
    density_update_method orbital
    packed_matrix_format none
  #  k_grid 6 6 6
  #  output k_eigenvalue 1
  #  distributed_spline_storage .true.
  #
  #  Relaxation
  #
  #  relax_geometry   bfgs 5.e-3
    sc_accuracy_forces 5.E-4
    final_forces_cleaned .true.
  #
  #  Output options
  #
  #  output mulliken
    output Hirshfeld
  #  output dipole
  
  #harmonic_length_scale 0.001
  
  ################################################################################
  #
  #  FHI-aims code project
  #  VB, Fritz-Haber Institut, 2007
  #
  #  Suggested "safe" defaults for H atom (to be pasted into control.in file)
  #  Basis constructed for a non-relativistic H2 molecule using the
  #  PW-LDA functional.
  #
  ################################################################################
    species        H
  #     global species definitions
      nucleus             1
      cut_pot             4.0  2.0  1.0
      cut_free_atom       finite 8.0
      logarithmic         0.00010000 100.00  1.0123
      basis_dep_cutoff    1d-4  # 1d-4 is safe default - please check 5d-4 if you wish!
      radial_base         24 7.0
      radial_multiplier   2
      angular_grids       specified
        division   0.2783  110
        division   0.3822  194
        division   0.5626  302
  #      division   0.5922  434
  #      division   0.6227  590
  #      division   0.7206  770
        outer_grid  302
      l_hartree           4
  ################################################################################
  #
  #  Definition of "minimal" basis
  #
  ################################################################################
  #     valence basis states
      valence      1  s   1.
  #     ion occupancy
      ion_occ      1  s   0.5
  ################################################################################
  #
  #  Suggested additional basis functions. For production calculations,
  #  uncomment them one after another (the most important basis functions are
  #  listed first).
  #
  ################################################################################
  #  "First tier" - improvements: -1014.90 meV to -62.69 meV
       hydro 2 s 2.1
       hydro 2 p 3.5
  #  "Second tier" - improvements: -12.89 meV to -1.83 meV
       hydro 1 s 0.85
       hydro 2 p 3.7
       hydro 2 s 1.2
       hydro 3 d 7
  #  "Third tier" - improvements: -0.25 meV to -0.12 meV
  #     hydro 4 f 11.2
  #     hydro 3 p 4.8
  #     hydro 4 d 9
  #     hydro 3 s 3.2
  
  ################################################################################
  #
  #  FHI-aims code project
  #  VB, Fritz-Haber Institut, 2007
  #
  #  Suggested "safe" defaults for O atom (to be pasted into control.in file)
  #  All values have been tested for a non-relativistic, non-spinpolarized O2
  #  molecule using the PW-LDA functional. Validity for PBE is expected.
  #
  #  Constructed for dimers: 1.0 A, 1.208 A, 1.5 A, 2.0 A, 3.0 A
  #
  ################################################################################
    species        O
  #     global species definitions
      nucleus             8
      mass                15.9994
      l_hartree           4
      cut_pot             4.0  2.0  1.0
      cut_free_atom       finite 8.0
      basis_dep_cutoff    1d-4  # 1d-4 is safe default - please check 5d-4 if you wish!
      logarithmic         0.00010000 100.00  1.0123
      radial_base         36 7.0
      radial_multiplier   2
       angular_grids specified
        division   0.4087  110
        division   0.5181  194
        division   0.6184  302
  #      division   0.7315  434
  #      division   0.7934  590
  #      division   0.9656  770
  #      division   1.4041  974
  #      outer_grid 974
        outer_grid 302
  ################################################################################
  #
  #  Definition of "minimal" basis
  #
  ################################################################################
  #     valence basis states
      valence      2  s   2.
      valence      2  p   4.
  #     ion occupancy
      ion_occ      2  s   1.
      ion_occ      2  p   3.
  ################################################################################
  #
  #  Suggested additional basis functions. For production calculations,
  #  uncomment them one after another (the most important basis functions are
  #  listed first).
  #
  ################################################################################
  #  "First tier" - improvements: -699.05 meV to -159.38 meV
       hydro 2 p 1.8
       hydro 3 d 7.6
       hydro 3 s 6.4
  #  "Second tier" - improvements: -49.91 meV to -5.39 meV
       hydro 4 f 11.6
       hydro 3 p 6.2
       hydro 3 d 5.6
       hydro 5 g 17.6
       hydro 1 s 0.75
  #  "Third tier" - improvements: -2.83 meV to -0.50 meV
  #     ionic 2 p auto
  #     hydro 4 f 10.8
  #     hydro 4 d 4.7
  #     hydro 2 s 6.8
  #  "Fourth tier" - improvements: -0.40 meV to -0.12 meV
  #     hydro 3 p 5
  #     hydro 3 s 3.3
  #     hydro 5 g 15.6
  #     hydro 4 f 17.6
  #     hydro 4 d 14
  # Further basis functions - -0.08 meV and below
  #     hydro 3 s 2.1
  #     hydro 4 d 11.6
  #     hydro 3 p 16
  #     hydro 2 s 17.2
  
  
  -----------------------------------------------------------------------
  Completed first pass over input file control.in .
  -----------------------------------------------------------------------
  
  
  -----------------------------------------------------------------------
  Parsing geometry.in (first pass over file, find array dimensions only).
  The contents of geometry.in will be repeated verbatim below
  unless switched off by setting 'verbatim_writeout .false.' .
  in the first line of geometry.in .
  -----------------------------------------------------------------------
  
  atom      -4.053030000      0.065001000     -1.525160000  O
  atom      -4.566710000      0.974813000     -1.912820000  H
  atom      -3.067820000      0.330172000     -1.477310000  H
  atom      -5.293160000      2.192130000     -2.328800000  O
  atom      -4.829300000      2.988660000     -1.973850000  H
  atom      -5.428570000      2.328640000     -3.235170000  H
  atom      -3.818880000      2.024990000      2.187990000  O
  atom      -3.690880000      1.961360000      3.202150000  H
  atom      -4.546490000      2.751300000      2.045370000  H
  atom      -4.066610000      4.258280000     -0.900064000  O
  atom      -3.224110000      3.876870000     -0.569443000  H
  atom      -3.737450000      5.116530000     -1.322720000  H
  
  -----------------------------------------------------------------------
  Completed first pass over input file geometry.in .
  -----------------------------------------------------------------------
  
 
  Basic array size parameters: 
  | Number of species                 :        2
  | Number of atoms                   :       12
  | Max. basis fn. angular momentum   :        4
  | Max. atomic/ionic basis occupied n:        2
  | Max. number of basis fn. types    :        2
  | Max. radial fns per species/type  :        8
  | Max. logarithmic grid size        :     1301
  | Max. radial integration grid size :       73
  | Max. angular integration grid size:      302
  | Max. angular grid division number :        8
  | Radial grid for Hartree potential :     1301
  | Number of spin channels           :        1

------------------------------------------------------------
          Reading file control.in.
------------------------------------------------------------
  XC: Using RPBE gradient-corrected functionals.
  Spin treatment: No spin polarisation.
  Scalar relativistic treatment of kinetic energy: on-site free-atom approximation to ZORA.
  Charge =   0.000000E+00: Neutral system requested explicitly.
  Using non-empirical van der Waals correction (Hirshfeld partitioning):
  Occupation type: Gaussian broadening, width =   0.100000E-01 eV.
  Using pulay charge density mixing.
  Pulay mixing - number of memorized iterations:   10
  Charge density mixing - mixing parameter:     0.1000
  Convergence accuracy of self-consistent charge density: 0.5000E-04
  Convergence accuracy of sum of eigenvalues: 0.5000E-02
  Convergence accuracy of total energy: 0.5000E-05
  Maximum number of s.-c. iterations  :  3000
  Kohn-Sham eigenvalues and eigenfunctions calculated by lapack diagonalisation (D&C).
  Number of empty states per atom:        8
  Threshold for basis singularities: 0.0000E+00
  Partition function in integrals calculations: rho / r^2
 Using packed matrix format           0
  Convergence accuracy of forces: 0.5000E-03
  Cleaning forces before final output.
  Hirshfeld charge analysis will be performed.
 
  Reading configuration options for species H                   .
  | Found nuclear charge :   1.0000
  | Found cutoff potl. onset [A], width [A], scale factor :    4.00000    2.00000    1.00000
  | Found cutoff specification for free atom: Cutoff potential begins at    8.00000 A.
  | Found logarithmic grid data [bohr] : 0.1000E-03 0.1000E+03 0.1012E+01
  | Threshold for basis-dependent cutoff potential is   0.100000E-03
  | Found data for basic radial integration grid :    24 points, outermost radius =    7.000 A
  | Found multiplier for basic radial grid :   2
  | Found angular grid specification: user-specified.
  | Specified grid contains     4 separate shells.
  | Check grid settings after all constraints further below.
  | Found l_max for Hartree potential  :   4
  | Found free-atom valence shell :  1 s   1.000
  | No ionic wave fns used. Skipping ion_occ.
  | Found hydrogenic basis function :  2 s   2.100
  | Found hydrogenic basis function :  2 p   3.500
  | Found hydrogenic basis function :  1 s   0.850
  | Found hydrogenic basis function :  2 p   3.700
  | Found hydrogenic basis function :  2 s   1.200
  | Found hydrogenic basis function :  3 d   7.000
  Species H                   : Missing cutoff potential type.
  Defaulting to exp(1/x)/(1-x)^2 type cutoff potential.
  Species H : On-site basis accuracy parameter (for Gram-Schmidt orthonormalisation) not specified.
  Using default value basis_acc =  0.1000000E-03.
  Species H                   : Using default innermost maximum threshold i_radial=  2 for radial functions.
  Species H                   : Basic radial grid will be enhanced according to radial_multiplier =   2, to contain    49 grid points.
 
  Reading configuration options for species O                   .
  | Found nuclear charge :   8.0000
  | Found atomic mass :    15.9994000000000      amu
  | Found l_max for Hartree potential  :   4
  | Found cutoff potl. onset [A], width [A], scale factor :    4.00000    2.00000    1.00000
  | Found cutoff specification for free atom: Cutoff potential begins at    8.00000 A.
  | Threshold for basis-dependent cutoff potential is   0.100000E-03
  | Found logarithmic grid data [bohr] : 0.1000E-03 0.1000E+03 0.1012E+01
  | Found data for basic radial integration grid :    36 points, outermost radius =    7.000 A
  | Found multiplier for basic radial grid :   2
  | Found angular grid specification: user-specified.
  | Specified grid contains     4 separate shells.
  | Check grid settings after all constraints further below.
  | Found free-atom valence shell :  2 s   2.000
  | Found free-atom valence shell :  2 p   4.000
  | No ionic wave fns used. Skipping ion_occ.
  | No ionic wave fns used. Skipping ion_occ.
  | Found hydrogenic basis function :  2 p   1.800
  | Found hydrogenic basis function :  3 d   7.600
  | Found hydrogenic basis function :  3 s   6.400
  | Found hydrogenic basis function :  4 f  11.600
  | Found hydrogenic basis function :  3 p   6.200
  | Found hydrogenic basis function :  3 d   5.600
  | Found hydrogenic basis function :  5 g  17.600
  | Found hydrogenic basis function :  1 s   0.750
  Species O                   : Missing cutoff potential type.
  Defaulting to exp(1/x)/(1-x)^2 type cutoff potential.
  Species O : On-site basis accuracy parameter (for Gram-Schmidt orthonormalisation) not specified.
  Using default value basis_acc =  0.1000000E-03.
  Species O                   : Using default innermost maximum threshold i_radial=  2 for radial functions.
  Species O                   : Basic radial grid will be enhanced according to radial_multiplier =   2, to contain    73 grid points.
 
  Finished reading input file 'control.in'. Consistency checks are next.
 
  Target number of points in a grid batch is not set. Defaulting to  100
  Method for grid partitioning is not set. Defaulting to parallel hash+maxmin partitioning.
  Batch size limit is not set. Defaulting to    200
  By default, will store active basis functions for each batch.
  If in need of memory, prune_basis_once .false. can be used to disable this option.
  communication_type for Hartree potential was not specified.
  Defaulting to calc_hartree .
  Pulay mixer: Number of initial linear mixing iterations not set.
  Defaulting to    0 iterations.
  Work space size for distributed Hartree potential not set.
  Defaulting to   0.200000E+03 MB.
  Algorithm-dependent basis array size parameters:
  | n_max_pulay                         :       10
  Geometry relaxation not requested: no relaxation will be performed.
  Handling of forces: Unphysical translation and rotation will be removed from forces.
  No accuracy limit for integral partition fn. given. Defaulting to 0.1000E-14.
  No threshold value for u(r) in integrations given. Defaulting to 0.1000E-05.
  No accuracy for occupation numbers given. Defaulting to 0.1000E-07.
  No threshold value for occupation numbers given. Defaulting to 0.0000E+00.
  No accuracy for fermi level given. Defaulting to 0.1000E-19.
  Maximum # of iterations to find E_F not set. Defaulting to  200.
  Will not use alltoall communication since running on < 1024 CPUs.
  Partitioning for Hartree potential was not defined. Using partition_type for integrals.
  | Reporting present value of keyword multip_moments_threshold  :       0.10000000E-09
  | This value may affect high angular momentum components of the Hartree potential in periodic systems.
  No q(lm)/r^(l+1) cutoff set for long-range Hartree potential.
  | Using default value of  0.100000E-09 .
  | Verify using the multipole_threshold keyword.
  Defaulting to new monopole extrapolation.
  Density update method: Loop over occupied states selected for charge density update.
------------------------------------------------------------


------------------------------------------------------------
          Reading geometry description geometry.in.
------------------------------------------------------------
  Input structure read successfully.
  The structure contains       12 atoms,  and a total of         40.000 electrons.

  Input geometry:
  | No unit cell requested.
  | Atomic structure:
  |       Atom                x [A]            y [A]            z [A]
  |    1: Species O             -4.053030         0.065001        -1.525160
  |    2: Species H             -4.566710         0.974813        -1.912820
  |    3: Species H             -3.067820         0.330172        -1.477310
  |    4: Species O             -5.293160         2.192130        -2.328800
  |    5: Species H             -4.829300         2.988660        -1.973850
  |    6: Species H             -5.428570         2.328640        -3.235170
  |    7: Species O             -3.818880         2.024990         2.187990
  |    8: Species H             -3.690880         1.961360         3.202150
  |    9: Species H             -4.546490         2.751300         2.045370
  |   10: Species O             -4.066610         4.258280        -0.900064
  |   11: Species H             -3.224110         3.876870        -0.569443
  |   12: Species H             -3.737450         5.116530        -1.322720
  |

  | The smallest distance between any two atoms is         0.92654057 AA.
  |
  | The first atom of this pair is atom number                      4 .
  | The second atom of this pair is atom number                     6 .

  Structure-dependent array size parameters: 
  | Maximum number of distinct radial functions  :       18
  | Maximum number of basis functions            :      276
  | Number of Kohn-Sham states (occupied + empty):       68
------------------------------------------------------------

------------------------------------------------------------
          Preparing all fixed parts of the calculation.
------------------------------------------------------------
  Determining machine precision:
    2.225073858507201E-308
  Setting up grids for atomic and cluster calculations.

  Creating wave function, potential, and density for free atoms.

  Species: H

  List of occupied orbitals and eigenvalues:
    n    l              occ      energy [Ha]    energy [eV]
    1    0           1.0000        -0.241408        -6.5691


  Species: O

  List of occupied orbitals and eigenvalues:
    n    l              occ      energy [Ha]    energy [eV]
    1    0           2.0000       -18.944147      -515.4965
    2    0           2.0000        -0.883529       -24.0421
    2    1           4.0000        -0.330176        -8.9845

  Creating fixed part of basis set: Ionic, confined, hydrogenic.
 
  H                    hydrogenic:
 
  List of hydrogenic basis orbitals: 
    n    l      effective z      eigenvalue [eV]  inner max. [A]     outer max. [A]     outer radius [A]   
    2    0         2.100000       -14.9965           0.193241           1.317192           5.372934
    2    1         3.500000       -41.6672           0.602363           0.602363           4.056010
    1    0         0.850000        -9.8292           0.624864           0.624864           5.372934
    2    1         3.700000       -46.5653           0.573616           0.573616           3.909951
    2    0         1.200000        -4.5995           0.334977           2.228160           5.505921
    3    2         7.000000       -74.0753           0.680692           0.680692           3.769152
 
 
  O                    hydrogenic:
 
  List of hydrogenic basis orbitals: 
    n    l      effective z      eigenvalue [eV]  inner max. [A]     outer max. [A]     outer radius [A]   
    2    1         1.800000       -11.0118           1.178546           1.178546           5.432516
    3    2         7.600000       -87.3182           0.624117           0.624117           3.541422
    3    0         6.400000       -61.9209           0.061166           1.081887           4.306510
    4    3        11.600000      -114.4238           0.731621           0.731621           3.584982
    3    1         6.200000       -58.1113           0.255677           1.030255           4.306510
    3    2         5.600000       -47.4081           0.847222           0.847222           4.413102
    5    4        17.600000      -168.5799           0.749730           0.749730           3.372413
    1    0         0.750000        -7.6499           0.705275           0.705275           5.366508
 

  Adding cutoff potential to free-atom effective potential.
  Creating atomic-like basis functions for current effective potential.

  Species H                   :

  List of atomic basis orbitals and eigenvalues:
    n    l      energy [Ha]    energy [eV]    outer radius [A]
    1    0        -0.241374        -6.5681       5.372934


  Species O                   :

  List of atomic basis orbitals and eigenvalues:
    n    l      energy [Ha]    energy [eV]    outer radius [A]
    1    0       -18.944147      -515.4965       1.415745
    2    0        -0.883529       -24.0421       5.048305
    2    1        -0.330173        -8.9845       5.301302

  Assembling full basis from fixed parts.
  | Species H :   atomic orbital   1 s accepted.
  | Species H :    hydro orbital   2 s accepted.
  | Species H :    hydro orbital   1 s accepted.
  | Species H :    hydro orbital   2 s accepted.
  | Species H :    hydro orbital   2 p accepted.
  | Species H :    hydro orbital   2 p accepted.
  | Species H :    hydro orbital   3 d accepted.
  | Species O :   atomic orbital   1 s accepted.
  | Species O :    hydro orbital   3 s accepted.
  | Species O :   atomic orbital   2 s accepted.
  | Species O :    hydro orbital   1 s accepted.
  | Species O :    hydro orbital   3 p accepted.
  | Species O :   atomic orbital   2 p accepted.
  | Species O :    hydro orbital   2 p accepted.
  | Species O :    hydro orbital   3 d accepted.
  | Species O :    hydro orbital   3 d accepted.
  | Species O :    hydro orbital   4 f accepted.
  | Species O :    hydro orbital   5 g accepted.
 
  Basis size parameters after reduction:
  | Total number of radial functions:       18
  | Total number of basis functions :      276
 
  Testing on-site integration grid accuracy.
  |  Species  Function  <phi|h_atom|phi> (log., in eV)  <phi|h_atom|phi> (rad., in eV)
           1        1                 -6.5683835025                 -6.5684759159
           1        2                 13.3711789951                 13.3708738703
           1        3                 23.6590910787                 23.6532055418
           1        4                 16.2963827186                 16.1870710655 ***
           1        5                 28.7627214838                 28.7627215090
           1        6                 59.5965249172                 59.5965950857
           1        7                 60.2220506392                 60.2220503827
           2        8               -515.4964576505               -515.4964530710
           2        9                 15.3030791347                 15.3030722972
           2       10                -21.7296094581                -21.7296135470
           2       11                 14.2969371730                 14.2969701621
           2       12                 21.0679693190                 21.0679697493
           2       13                 -2.3833606469                 -2.3833613176
           2       14                 13.7067136422                 13.7066766629
           2       15                 45.8013116808                 45.8013116965
           2       16                 52.2309815402                 52.2309831494
           2       17                 85.4120732416                 85.4120732763
           2       18                142.1019167745                142.1019167817
 * Note: Onsite integrals marked "***" above are less accurate than
 * onsite_accuracy_threshold =    0.03000 eV. Usually, this is harmless.
 * When in doubt, tighten the "radial" and/or "radial_multiplier" flags to check.

  Preparing densities etc. for the partition functions (integrals / Hartree potential).

  Preparations completed.
  max(cpu_time)          :      0.174 s.
  Wall clock time (cpu1) :      0.632 s.
------------------------------------------------------------

------------------------------------------------------------
          Begin self-consistency loop: Initialization.

          Date     :  20150727, Time     :  122736.928
------------------------------------------------------------

  Initializing index lists of integration centers etc. from given atomic structure:
  | Number of centers in hartree potential         :        12
  | Number of centers in hartree multipole         :        12
  | Number of centers in electron density summation:        12
  | Number of centers in basis integrals           :        12
  | Number of centers in integrals                 :        12
  Partitioning the integration grid into batches with parallel hashing+maxmin method.
  | Number of batches:     1655
  | Maximal batch size:     170
  | Minimal batch size:      49
  | Average batch size:      95.086
  | Standard deviation of batch sizes:      31.342

  Integration load balanced across     8 MPI tasks.
  Work distribution over tasks is as follows:
  Task     0 has      19647 integration points.
  Task     1 has      19637 integration points.
  Task     2 has      19706 integration points.
  Task     3 has      19670 integration points.
  Task     4 has      19673 integration points.
  Task     5 has      19693 integration points.
  Task     6 has      19695 integration points.
  Task     7 has      19647 integration points.
  Initializing partition tables, free-atom densities, potentials, etc. across the integration grid (initialize_grid_storage).
  | Net number of integration points:   157368
  | of which are non-zero points    :   156834
  Obtaining max. number of non-zero basis functions in each batch (get_n_compute_maxes).
  | Maximal number of non-zero basis functions:      273 in task     0
  | Maximal number of non-zero basis functions:      274 in task     1
  | Maximal number of non-zero basis functions:      273 in task     2
  | Maximal number of non-zero basis functions:      274 in task     3
  | Maximal number of non-zero basis functions:      274 in task     4
  | Maximal number of non-zero basis functions:      273 in task     5
  | Maximal number of non-zero basis functions:      273 in task     6
  | Maximal number of non-zero basis functions:      273 in task     7
  Integrating Hamiltonian matrix: batch-based integration.
  Time summed over all CPUs for integration: real work        4.287 s, elapsed        4.348 s
  Integrating overlap matrix.
  Time summed over all CPUs for integration: real work        2.255 s, elapsed        2.291 s

  Updating Kohn-Sham eigenvalues, eigenvectors, occupation numbers, and Fermi level.
  Solving generalized eigenproblem
  Updating Kohn-Sham eigenvalues and eigenfunctions.
  Transforming overlap matrix and checking for singularities.
  Overlap matrix is nonsingular:
  | Lowest eigenvalue:  0.309787E-03
  Solving real generalised eigenvalue problem by standard LAPACK (fast)
  Determining occupation numbers for Kohn-Sham eigenstates.
  | Chemical potential (Fermi level) in eV                 : -.48093930E+01
  | Error in electron count due to remaining E_F inaccuracy: 0.00000000E+00
  | Maximum occupation number of highest empty state:  0.00E+00

  Writing Kohn-Sham eigenvalues.

  State    Occupation    Eigenvalue [Ha]    Eigenvalue [eV]
      1       2.00000         -19.064894         -518.78217
      2       2.00000         -19.042864         -518.18269
      3       2.00000         -19.028677         -517.79665
      4       2.00000         -19.019415         -517.54462
      5       2.00000          -1.122092          -30.53367
      6       2.00000          -1.086697          -29.57053
      7       2.00000          -1.060054          -28.84552
      8       2.00000          -1.043111          -28.38450
      9       2.00000          -0.653270          -17.77638
     10       2.00000          -0.606056          -16.49163
     11       2.00000          -0.596914          -16.24286
     12       2.00000          -0.590384          -16.06517
     13       2.00000          -0.527604          -14.35684
     14       2.00000          -0.508743          -13.84361
     15       2.00000          -0.487738          -13.27202
     16       2.00000          -0.482395          -13.12663
     17       2.00000          -0.440942          -11.99865
     18       2.00000          -0.433584          -11.79841
     19       2.00000          -0.417422          -11.35862
     20       2.00000          -0.409547          -11.14433
     21       0.00000          -0.093449           -2.54289
     22       0.00000          -0.068467           -1.86308
     23       0.00000          -0.052967           -1.44129
     24       0.00000          -0.036355           -0.98927
     25       0.00000          -0.013135           -0.35742
     26       0.00000          -0.000237           -0.00646
     27       0.00000           0.037036            1.00780
     28       0.00000           0.044510            1.21118
     29       0.00000           0.076993            2.09508
     30       0.00000           0.079202            2.15520
     31       0.00000           0.086274            2.34764
     32       0.00000           0.098221            2.67272
     33       0.00000           0.101863            2.77183
     34       0.00000           0.109495            2.97950
     35       0.00000           0.111662            3.03848
     36       0.00000           0.123376            3.35724
     37       0.00000           0.131358            3.57443
     38       0.00000           0.137494            3.74141
     39       0.00000           0.147993            4.02710
     40       0.00000           0.164557            4.47783
     41       0.00000           0.181203            4.93078
     42       0.00000           0.191114            5.20047
     43       0.00000           0.226116            6.15294
     44       0.00000           0.248271            6.75579
     45       0.00000           0.257310            7.00177
     46       0.00000           0.267546            7.28030
     47       0.00000           0.273277            7.43625
     48       0.00000           0.309598            8.42459
     49       0.00000           0.335620            9.13269
     50       0.00000           0.345356            9.39760
     51       0.00000           0.357367            9.72446
     52       0.00000           0.368370           10.02385
     53       0.00000           0.379463           10.32570
     54       0.00000           0.404584           11.00928
     55       0.00000           0.413371           11.24839
     56       0.00000           0.432719           11.77488
     57       0.00000           0.438610           11.93520
     58       0.00000           0.459076           12.49209
     59       0.00000           0.467254           12.71464
     60       0.00000           0.476737           12.97267
     61       0.00000           0.506548           13.78386
     62       0.00000           0.513407           13.97050
     63       0.00000           0.526366           14.32316
     64       0.00000           0.537272           14.61992
     65       0.00000           0.563733           15.33997
     66       0.00000           0.602241           16.38782
     67       0.00000           0.656683           17.86924
     68       0.00000           0.698990           19.02048

  Highest occupied state (VBM) at    -11.14433461 eV
  | Occupation number:      2.00000000

  Lowest unoccupied state (CBM) at    -2.54288694 eV
  | Occupation number:      0.00000000

  Overall HOMO-LUMO gap:      8.60144767 eV.
  Calculating total energy contributions from superposition of free atom densities.

  Total energy components:
  | Sum of eigenvalues            :        -173.24480442 Ha       -4714.23098568 eV
  | XC energy correction          :         -36.41707149 Ha        -990.95893465 eV
  | XC potential correction       :          46.52847000 Ha        1266.10408748 eV
  | Free-atom electrostatic energy:        -143.32627868 Ha       -3900.10647825 eV
  | Hartree energy correction     :           0.00000000 Ha           0.00000000 eV
  | van der Waals energy corr.    :           0.00000000 Ha           0.00000000 eV
  | Entropy correction            :           0.00000000 Ha           0.00000000 eV
  | ---------------------------
  | Total energy                  :        -306.45968459 Ha       -8339.19231110 eV
  | Total energy, T -> 0          :        -306.45968459 Ha       -8339.19231110 eV  <-- do not rely on this value for anything but (periodic) metals
  | Electronic free energy        :        -306.45968459 Ha       -8339.19231110 eV

  Derived energy quantities:
  | Kinetic energy                :         303.25781625 Ha        8252.06504072 eV
  | Electrostatic energy          :        -573.30042935 Ha      -15600.29841717 eV
  | Energy correction for multipole
  | error in Hartree potential    :           0.00000000 Ha           0.00000000 eV
  | Sum of eigenvalues per atom                           :        -392.85258214 eV
  | Total energy (T->0) per atom                          :        -694.93269259 eV  <-- do not rely on this value for anything but (periodic) metals
  | Electronic free energy per atom                       :        -694.93269259 eV
  Initialize hartree_potential_storage
  Max. number of atoms included in rho_multipole:           12

  End scf initialization - timings             :  max(cpu_time)    wall_clock(cpu1)
  | Time for scf. initialization               :        1.216 s           1.216 s
  | Boundary condition initialization          :        0.000 s           0.000 s
  | Integration                                :        0.833 s           0.832 s
  | Solution of K.-S. eqns.                    :        0.118 s           0.119 s
  | Grid partitioning                          :        0.116 s           0.116 s
  | Preloading free-atom quantities on grid    :        0.014 s           0.014 s
  | Free-atom superposition energy             :        0.047 s           0.047 s
  | Total energy evaluation                    :        0.000 s           0.000 s
------------------------------------------------------------

------------------------------------------------------------
          Begin self-consistency iteration #    1

  Date     :  20150727, Time     :  122738.144
------------------------------------------------------------
  Evaluating new KS density.
  Integration grid: deviation in total charge (<rho> - N_e) =   0.000000E+00
  Pulay mixing of updated and previous charge densities.

  Evaluating partitioned Hartree potential by multipole expansion.
  | Analytical far-field extrapolation by fixed multipoles:
  | Hartree multipole sum: apparent total charge =  -0.158496E-05
  Summing up the Hartree potential.
  Time summed over all CPUs for potential: real work        1.656 s, elapsed        1.665 s
  | RMS charge density error from multipole expansion :   0.140479E-02

  Integrating Hamiltonian matrix: batch-based integration.
  Time summed over all CPUs for integration: real work        4.274 s, elapsed        4.361 s

  Updating Kohn-Sham eigenvalues, eigenvectors, occupation numbers, and Fermi level.
  Solving generalized eigenproblem
  Updating Kohn-Sham eigenvalues and eigenfunctions.
  Solving real generalised eigenvalue problem by standard LAPACK (fast)
  Determining occupation numbers for Kohn-Sham eigenstates.
  | Chemical potential (Fermi level) in eV                 : -.43987525E+01
  | Error in electron count due to remaining E_F inaccuracy: 0.00000000E+00
  | Maximum occupation number of highest empty state:  0.00E+00

  Writing Kohn-Sham eigenvalues.

  State    Occupation    Eigenvalue [Ha]    Eigenvalue [eV]
      1       2.00000         -18.993279         -516.83341
      2       2.00000         -18.976721         -516.38285
      3       2.00000         -18.953790         -515.75887
      4       2.00000         -18.932163         -515.17036
      5       2.00000          -1.087249          -29.58555
      6       2.00000          -1.056283          -28.74293
      7       2.00000          -1.022421          -27.82150
      8       2.00000          -0.995591          -27.09142
      9       2.00000          -0.622865          -16.94901
     10       2.00000          -0.580700          -15.80165
     11       2.00000          -0.560263          -15.24552
     12       2.00000          -0.559078          -15.21330
     13       2.00000          -0.489987          -13.33323
     14       2.00000          -0.475615          -12.94213
     15       2.00000          -0.450194          -12.25040
     16       2.00000          -0.442042          -12.02858
     17       2.00000          -0.401173          -10.91647
     18       2.00000          -0.398190          -10.83530
     19       2.00000          -0.377744          -10.27895
     20       2.00000          -0.360496           -9.80959
     21       0.00000          -0.086319           -2.34886
     22       0.00000          -0.060613           -1.64937
     23       0.00000          -0.044116           -1.20046
     24       0.00000          -0.028707           -0.78116
     25       0.00000          -0.004762           -0.12958
     26       0.00000           0.005875            0.15988
     27       0.00000           0.047491            1.29230
     28       0.00000           0.052546            1.42986
     29       0.00000           0.085855            2.33624
     30       0.00000           0.089315            2.43040
     31       0.00000           0.097878            2.66339
     32       0.00000           0.108227            2.94501
     33       0.00000           0.115404            3.14031
     34       0.00000           0.117144            3.18766
     35       0.00000           0.119062            3.23984
     36       0.00000           0.134163            3.65076
     37       0.00000           0.141338            3.84600
     38       0.00000           0.145933            3.97103
     39       0.00000           0.158898            4.32384
     40       0.00000           0.173735            4.72757
     41       0.00000           0.189473            5.15583
     42       0.00000           0.199367            5.42506
     43       0.00000           0.235241            6.40123
     44       0.00000           0.256666            6.98423
     45       0.00000           0.265626            7.22804
     46       0.00000           0.275965            7.50940
     47       0.00000           0.284189            7.73316
     48       0.00000           0.318584            8.66911
     49       0.00000           0.343473            9.34637
     50       0.00000           0.354692            9.65166
     51       0.00000           0.365829            9.95470
     52       0.00000           0.374952           10.20295
     53       0.00000           0.387450           10.54304
     54       0.00000           0.414701           11.28460
     55       0.00000           0.420214           11.43461
     56       0.00000           0.441633           12.01744
     57       0.00000           0.448710           12.21001
     58       0.00000           0.468811           12.75699
     59       0.00000           0.476896           12.97700
     60       0.00000           0.486887           13.24886
     61       0.00000           0.520332           14.15897
     62       0.00000           0.522234           14.21071
     63       0.00000           0.538090           14.64218
     64       0.00000           0.547312           14.89311
     65       0.00000           0.574694           15.63821
     66       0.00000           0.613755           16.70113
     67       0.00000           0.668068           18.17906
     68       0.00000           0.711460           19.35981

  Highest occupied state (VBM) at     -9.80958766 eV
  | Occupation number:      2.00000000

  Lowest unoccupied state (CBM) at    -2.34886493 eV
  | Occupation number:      0.00000000

  Overall HOMO-LUMO gap:      7.46072273 eV.

  Total energy components:
  | Sum of eigenvalues            :        -171.47168759 Ha       -4665.98202194 eV
  | XC energy correction          :         -36.60819173 Ha        -996.15958093 eV
  | XC potential correction       :          46.77887738 Ha        1272.91801878 eV
  | Free-atom electrostatic energy:        -143.32627868 Ha       -3900.10647825 eV
  | Hartree energy correction     :          -1.71820252 Ha         -46.75466954 eV
  | van der Waals energy corr.    :           0.00000000 Ha           0.00000000 eV
  | Entropy correction            :           0.00000000 Ha           0.00000000 eV
  | ---------------------------
  | Total energy                  :        -306.34548315 Ha       -8336.08473188 eV
  | Total energy, T -> 0          :        -306.34548315 Ha       -8336.08473188 eV  <-- do not rely on this value for anything but (periodic) metals
  | Electronic free energy        :        -306.34548315 Ha       -8336.08473188 eV

  Derived energy quantities:
  | Kinetic energy                :         304.38281522 Ha        8282.67782020 eV
  | Electrostatic energy          :        -574.12010665 Ha      -15622.60297114 eV
  | Energy correction for multipole
  | error in Hartree potential    :          -0.00014048 Ha          -0.00382256 eV
  | Sum of eigenvalues per atom                           :        -388.83183516 eV
  | Total energy (T->0) per atom                          :        -694.67372766 eV  <-- do not rely on this value for anything but (periodic) metals
  | Electronic free energy per atom                       :        -694.67372766 eV

  Self-consistency convergence accuracy:
  | Change of charge density      : 0.5854E+00
  | Change of sum of eigenvalues  : 0.4825E+02 eV
  | Change of total energy        : 0.3108E+01 eV

  End self-consistency iteration #     1       :  max(cpu_time)    wall_clock(cpu1)
  | Time for this iteration                    :        1.165 s           1.166 s
  | Charge density update                      :        0.372 s           0.372 s
  | Density mixing                             :        0.002 s           0.002 s
  | Hartree multipole update                   :        0.004 s           0.005 s
  | Hartree multipole summation                :        0.209 s           0.209 s
  | Integration                                :        0.546 s           0.546 s
  | Solution of K.-S. eqns.                    :        0.030 s           0.030 s
  | Total energy evaluation                    :        0.000 s           0.000 s
------------------------------------------------------------

------------------------------------------------------------
          Begin self-consistency iteration #    2

  Date     :  20150727, Time     :  122739.310
------------------------------------------------------------
  Evaluating new KS density.
  Integration grid: deviation in total charge (<rho> - N_e) =   3.552714E-14
  Pulay mixing of updated and previous charge densities.

  Evaluating partitioned Hartree potential by multipole expansion.
  | Analytical far-field extrapolation by fixed multipoles:
  | Hartree multipole sum: apparent total charge =  -0.452147E-05
  Summing up the Hartree potential.
  Time summed over all CPUs for potential: real work        1.656 s, elapsed        1.665 s
  | RMS charge density error from multipole expansion :   0.555017E-02

  Integrating Hamiltonian matrix: batch-based integration.
  Time summed over all CPUs for integration: real work        4.265 s, elapsed        4.329 s

  Updating Kohn-Sham eigenvalues, eigenvectors, occupation numbers, and Fermi level.
  Solving generalized eigenproblem
  Updating Kohn-Sham eigenvalues and eigenfunctions.
  Solving real generalised eigenvalue problem by standard LAPACK (fast)
  Determining occupation numbers for Kohn-Sham eigenstates.
  | Chemical potential (Fermi level) in eV                 : -.33818921E+01
  | Error in electron count due to remaining E_F inaccuracy: 0.00000000E+00
  | Maximum occupation number of highest empty state:  0.00E+00

  Highest occupied state (VBM) at     -6.68762601 eV
  | Occupation number:      2.00000000

  Lowest unoccupied state (CBM) at    -1.94933278 eV
  | Occupation number:      0.00000000

  Overall HOMO-LUMO gap:      4.73829323 eV.

  Total energy components:
  | Sum of eigenvalues            :        -167.38577838 Ha       -4554.79877527 eV
  | XC energy correction          :         -37.06801358 Ha       -1008.67197022 eV
  | XC potential correction       :          47.38083856 Ha        1289.29821612 eV
  | Free-atom electrostatic energy:        -143.32627868 Ha       -3900.10647825 eV
  | Hartree energy correction     :          -5.81648066 Ha        -158.27449170 eV
  | van der Waals energy corr.    :           0.00000000 Ha           0.00000000 eV
  | Entropy correction            :           0.00000000 Ha           0.00000000 eV
  | ---------------------------
  | Total energy                  :        -306.21571274 Ha       -8332.55349931 eV
  | Total energy, T -> 0          :        -306.21571274 Ha       -8332.55349931 eV  <-- do not rely on this value for anything but (periodic) metals
  | Electronic free energy        :        -306.21571274 Ha       -8332.55349931 eV

  Derived energy quantities:
  | Kinetic energy                :         306.58260308 Ha        8342.53709329 eV
  | Electrostatic energy          :        -575.73030223 Ha      -15666.41862239 eV
  | Energy correction for multipole
  | error in Hartree potential    :          -0.00113901 Ha          -0.03099414 eV
  | Sum of eigenvalues per atom                           :        -379.56656461 eV
  | Total energy (T->0) per atom                          :        -694.37945828 eV  <-- do not rely on this value for anything but (periodic) metals
  | Electronic free energy per atom                       :        -694.37945828 eV

  Self-consistency convergence accuracy:
  | Change of charge density      : 0.4415E+00
  | Change of sum of eigenvalues  : 0.1112E+03 eV
  | Change of total energy        : 0.3531E+01 eV

  End self-consistency iteration #     2       :  max(cpu_time)    wall_clock(cpu1)
  | Time for this iteration                    :        1.157 s           1.158 s
  | Charge density update                      :        0.366 s           0.367 s
  | Density mixing                             :        0.005 s           0.004 s
  | Hartree multipole update                   :        0.004 s           0.005 s
  | Hartree multipole summation                :        0.209 s           0.208 s
  | Integration                                :        0.542 s           0.542 s
  | Solution of K.-S. eqns.                    :        0.031 s           0.030 s
  | Total energy evaluation                    :        0.000 s           0.000 s
------------------------------------------------------------

------------------------------------------------------------
          Begin self-consistency iteration #    3

  Date     :  20150727, Time     :  122740.468
------------------------------------------------------------
  Evaluating new KS density.
  Integration grid: deviation in total charge (<rho> - N_e) =   2.131628E-14
  Pulay mixing of updated and previous charge densities.

  Evaluating partitioned Hartree potential by multipole expansion.
  | Analytical far-field extrapolation by fixed multipoles:
  | Hartree multipole sum: apparent total charge =  -0.450849E-05
  Summing up the Hartree potential.
  Time summed over all CPUs for potential: real work        1.656 s, elapsed        1.665 s
  | RMS charge density error from multipole expansion :   0.116347E-01

  Integrating Hamiltonian matrix: batch-based integration.
  Time summed over all CPUs for integration: real work        4.264 s, elapsed        4.334 s

  Updating Kohn-Sham eigenvalues, eigenvectors, occupation numbers, and Fermi level.
  Solving generalized eigenproblem
  Updating Kohn-Sham eigenvalues and eigenfunctions.
  Solving real generalised eigenvalue problem by standard LAPACK (fast)
  Determining occupation numbers for Kohn-Sham eigenstates.
  | Chemical potential (Fermi level) in eV                 : -.31243410E+01
  | Error in electron count due to remaining E_F inaccuracy: 0.00000000E+00
  | Maximum occupation number of highest empty state:  0.00E+00

  Highest occupied state (VBM) at     -6.27055681 eV
  | Occupation number:      2.00000000

  Lowest unoccupied state (CBM) at    -1.91529861 eV
  | Occupation number:      0.00000000

  Overall HOMO-LUMO gap:      4.35525820 eV.

  Total energy components:
  | Sum of eigenvalues            :        -167.46428761 Ha       -4556.93512016 eV
  | XC energy correction          :         -37.05874150 Ha       -1008.41966406 eV
  | XC potential correction       :          47.36501014 Ha        1288.86750271 eV
  | Free-atom electrostatic energy:        -143.32627868 Ha       -3900.10647825 eV
  | Hartree energy correction     :          -5.72542663 Ha        -155.79678545 eV
  | van der Waals energy corr.    :           0.00000000 Ha           0.00000000 eV
  | Entropy correction            :           0.00000000 Ha           0.00000000 eV
  | ---------------------------
  | Total energy                  :        -306.20972429 Ha       -8332.39054522 eV
  | Total energy, T -> 0          :        -306.20972429 Ha       -8332.39054522 eV  <-- do not rely on this value for anything but (periodic) metals
  | Electronic free energy        :        -306.20972429 Ha       -8332.39054522 eV

  Derived energy quantities:
  | Kinetic energy                :         304.95312825 Ha        8298.19682742 eV
  | Electrostatic energy          :        -574.10411104 Ha      -15622.16770857 eV
  | Energy correction for multipole
  | error in Hartree potential    :          -0.00515486 Ha          -0.14027088 eV
  | Sum of eigenvalues per atom                           :        -379.74459335 eV
  | Total energy (T->0) per atom                          :        -694.36587877 eV  <-- do not rely on this value for anything but (periodic) metals
  | Electronic free energy per atom                       :        -694.36587877 eV

  Self-consistency convergence accuracy:
  | Change of charge density      : 0.2251E+00
  | Change of sum of eigenvalues  : -.2136E+01 eV
  | Change of total energy        : 0.1630E+00 eV

  End self-consistency iteration #     3       :  max(cpu_time)    wall_clock(cpu1)
  | Time for this iteration                    :        1.158 s           1.157 s
  | Charge density update                      :        0.365 s           0.365 s
  | Density mixing                             :        0.006 s           0.005 s
  | Hartree multipole update                   :        0.004 s           0.004 s
  | Hartree multipole summation                :        0.209 s           0.209 s
  | Integration                                :        0.543 s           0.543 s
  | Solution of K.-S. eqns.                    :        0.030 s           0.030 s
  | Total energy evaluation                    :        0.000 s           0.000 s
------------------------------------------------------------

------------------------------------------------------------
          Begin self-consistency iteration #    4

  Date     :  20150727, Time     :  122741.625
------------------------------------------------------------
  Evaluating new KS density.
  Integration grid: deviation in total charge (<rho> - N_e) =   0.000000E+00
  Pulay mixing of updated and previous charge densities.

  Evaluating partitioned Hartree potential by multipole expansion.
  | Analytical far-field extrapolation by fixed multipoles:
  | Hartree multipole sum: apparent total charge =  -0.524703E-05
  Summing up the Hartree potential.
  Time summed over all CPUs for potential: real work        1.655 s, elapsed        1.664 s
  | RMS charge density error from multipole expansion :   0.142932E-01

  Integrating Hamiltonian matrix: batch-based integration.
  Time summed over all CPUs for integration: real work        4.251 s, elapsed        4.310 s

  Updating Kohn-Sham eigenvalues, eigenvectors, occupation numbers, and Fermi level.
  Solving generalized eigenproblem
  Updating Kohn-Sham eigenvalues and eigenfunctions.
  Solving real generalised eigenvalue problem by standard LAPACK (fast)
  Determining occupation numbers for Kohn-Sham eigenstates.
  | Chemical potential (Fermi level) in eV                 : -.28210512E+01
  | Error in electron count due to remaining E_F inaccuracy: 0.00000000E+00
  | Maximum occupation number of highest empty state:  0.00E+00

  Highest occupied state (VBM) at     -5.33120615 eV
  | Occupation number:      2.00000000

  Lowest unoccupied state (CBM) at    -1.81865225 eV
  | Occupation number:      0.00000000

  Overall HOMO-LUMO gap:      3.51255389 eV.

  Total energy components:
  | Sum of eigenvalues            :        -166.40740091 Ha       -4528.17576983 eV
  | XC energy correction          :         -37.19000930 Ha       -1011.99164265 eV
  | XC potential correction       :          47.53641457 Ha        1293.53165453 eV
  | Free-atom electrostatic energy:        -143.32627868 Ha       -3900.10647825 eV
  | Hartree energy correction     :          -6.81405924 Ha        -185.41998589 eV
  | van der Waals energy corr.    :           0.00000000 Ha           0.00000000 eV
  | Entropy correction            :           0.00000000 Ha           0.00000000 eV
  | ---------------------------
  | Total energy                  :        -306.20133357 Ha       -8332.16222209 eV
  | Total energy, T -> 0          :        -306.20133357 Ha       -8332.16222209 eV  <-- do not rely on this value for anything but (periodic) metals
  | Electronic free energy        :        -306.20133357 Ha       -8332.16222209 eV

  Derived energy quantities:
  | Kinetic energy                :         305.10102072 Ha        8302.22118620 eV
  | Electrostatic energy          :        -574.11234499 Ha      -15622.39176565 eV
  | Energy correction for multipole
  | error in Hartree potential    :          -0.00648835 Ha          -0.17655692 eV
  | Sum of eigenvalues per atom                           :        -377.34798082 eV
  | Total energy (T->0) per atom                          :        -694.34685184 eV  <-- do not rely on this value for anything but (periodic) metals
  | Electronic free energy per atom                       :        -694.34685184 eV

  Self-consistency convergence accuracy:
  | Change of charge density      : 0.1179E+00
  | Change of sum of eigenvalues  : 0.2876E+02 eV
  | Change of total energy        : 0.2283E+00 eV

  End self-consistency iteration #     4       :  max(cpu_time)    wall_clock(cpu1)
  | Time for this iteration                    :        1.155 s           1.155 s
  | Charge density update                      :        0.365 s           0.365 s
  | Density mixing                             :        0.006 s           0.006 s
  | Hartree multipole update                   :        0.004 s           0.005 s
  | Hartree multipole summation                :        0.209 s           0.208 s
  | Integration                                :        0.540 s           0.540 s
  | Solution of K.-S. eqns.                    :        0.030 s           0.031 s
  | Total energy evaluation                    :        0.000 s           0.000 s
------------------------------------------------------------

------------------------------------------------------------
          Begin self-consistency iteration #    5

  Date     :  20150727, Time     :  122742.780
------------------------------------------------------------
  Evaluating new KS density.
  Integration grid: deviation in total charge (<rho> - N_e) =  -1.421085E-14
  Pulay mixing of updated and previous charge densities.

  Evaluating partitioned Hartree potential by multipole expansion.
  | Analytical far-field extrapolation by fixed multipoles:
  | Hartree multipole sum: apparent total charge =  -0.536790E-05
  Summing up the Hartree potential.
  Time summed over all CPUs for potential: real work        1.655 s, elapsed        1.665 s
  | RMS charge density error from multipole expansion :   0.152597E-01

  Integrating Hamiltonian matrix: batch-based integration.
  Time summed over all CPUs for integration: real work        4.246 s, elapsed        4.304 s

  Updating Kohn-Sham eigenvalues, eigenvectors, occupation numbers, and Fermi level.
  Solving generalized eigenproblem
  Updating Kohn-Sham eigenvalues and eigenfunctions.
  Solving real generalised eigenvalue problem by standard LAPACK (fast)
  Determining occupation numbers for Kohn-Sham eigenstates.
  | Chemical potential (Fermi level) in eV                 : -.27664608E+01
  | Error in electron count due to remaining E_F inaccuracy: 0.00000000E+00
  | Maximum occupation number of highest empty state:  0.00E+00

  Highest occupied state (VBM) at     -5.06022510 eV
  | Occupation number:      2.00000000

  Lowest unoccupied state (CBM) at    -1.78985295 eV
  | Occupation number:      0.00000000

  Overall HOMO-LUMO gap:      3.27037215 eV.

  Total energy components:
  | Sum of eigenvalues            :        -166.18031430 Ha       -4521.99642884 eV
  | XC energy correction          :         -37.22126234 Ha       -1012.84208116 eV
  | XC potential correction       :          47.57692559 Ha        1294.63401549 eV
  | Free-atom electrostatic energy:        -143.32627868 Ha       -3900.10647825 eV
  | Hartree energy correction     :          -7.04994790 Ha        -191.83884293 eV
  | van der Waals energy corr.    :           0.00000000 Ha           0.00000000 eV
  | Entropy correction            :           0.00000000 Ha           0.00000000 eV
  | ---------------------------
  | Total energy                  :        -306.20087764 Ha       -8332.14981569 eV
  | Total energy, T -> 0          :        -306.20087764 Ha       -8332.14981569 eV  <-- do not rely on this value for anything but (periodic) metals
  | Electronic free energy        :        -306.20087764 Ha       -8332.14981569 eV

  Derived energy quantities:
  | Kinetic energy                :         305.12338696 Ha        8302.82980257 eV
  | Electrostatic energy          :        -574.10300226 Ha      -15622.13753710 eV
  | Energy correction for multipole
  | error in Hartree potential    :          -0.00693945 Ha          -0.18883212 eV
  | Sum of eigenvalues per atom                           :        -376.83303574 eV
  | Total energy (T->0) per atom                          :        -694.34581797 eV  <-- do not rely on this value for anything but (periodic) metals
  | Electronic free energy per atom                       :        -694.34581797 eV

  Self-consistency convergence accuracy:
  | Change of charge density      : 0.3776E-01
  | Change of sum of eigenvalues  : 0.6179E+01 eV
  | Change of total energy        : 0.1241E-01 eV

  End self-consistency iteration #     5       :  max(cpu_time)    wall_clock(cpu1)
  | Time for this iteration                    :        1.155 s           1.155 s
  | Charge density update                      :        0.365 s           0.365 s
  | Density mixing                             :        0.007 s           0.007 s
  | Hartree multipole update                   :        0.005 s           0.005 s
  | Hartree multipole summation                :        0.208 s           0.208 s
  | Integration                                :        0.540 s           0.539 s
  | Solution of K.-S. eqns.                    :        0.030 s           0.030 s
  | Total energy evaluation                    :        0.000 s           0.000 s
------------------------------------------------------------

------------------------------------------------------------
          Begin self-consistency iteration #    6

  Date     :  20150727, Time     :  122743.936
------------------------------------------------------------
  Evaluating new KS density.
  Integration grid: deviation in total charge (<rho> - N_e) =   2.131628E-14
  Pulay mixing of updated and previous charge densities.

  Evaluating partitioned Hartree potential by multipole expansion.
  | Analytical far-field extrapolation by fixed multipoles:
  | Hartree multipole sum: apparent total charge =  -0.537651E-05
  Summing up the Hartree potential.
  Time summed over all CPUs for potential: real work        1.655 s, elapsed        1.664 s
  | RMS charge density error from multipole expansion :   0.154533E-01

  Integrating Hamiltonian matrix: batch-based integration.
  Time summed over all CPUs for integration: real work        4.250 s, elapsed        4.312 s

  Updating Kohn-Sham eigenvalues, eigenvectors, occupation numbers, and Fermi level.
  Solving generalized eigenproblem
  Updating Kohn-Sham eigenvalues and eigenfunctions.
  Solving real generalised eigenvalue problem by standard LAPACK (fast)
  Determining occupation numbers for Kohn-Sham eigenstates.
  | Chemical potential (Fermi level) in eV                 : -.27544014E+01
  | Error in electron count due to remaining E_F inaccuracy: 0.00000000E+00
  | Maximum occupation number of highest empty state:  0.00E+00

  Highest occupied state (VBM) at     -5.02971361 eV
  | Occupation number:      2.00000000

  Lowest unoccupied state (CBM) at    -1.78442861 eV
  | Occupation number:      0.00000000

  Overall HOMO-LUMO gap:      3.24528501 eV.

  Total energy components:
  | Sum of eigenvalues            :        -166.14189027 Ha       -4520.95085772 eV
  | XC energy correction          :         -37.22663906 Ha       -1012.98838921 eV
  | XC potential correction       :          47.58386260 Ha        1294.82278127 eV
  | Free-atom electrostatic energy:        -143.32627868 Ha       -3900.10647825 eV
  | Hartree energy correction     :          -7.08998458 Ha        -192.92829646 eV
  | van der Waals energy corr.    :           0.00000000 Ha           0.00000000 eV
  | Entropy correction            :           0.00000000 Ha           0.00000000 eV
  | ---------------------------
  | Total energy                  :        -306.20093000 Ha       -8332.15124037 eV
  | Total energy, T -> 0          :        -306.20093000 Ha       -8332.15124037 eV  <-- do not rely on this value for anything but (periodic) metals
  | Electronic free energy        :        -306.20093000 Ha       -8332.15124037 eV

  Derived energy quantities:
  | Kinetic energy                :         305.12551044 Ha        8302.88758540 eV
  | Electrostatic energy          :        -574.09980137 Ha      -15622.05043657 eV
  | Energy correction for multipole
  | error in Hartree potential    :          -0.00702408 Ha          -0.19113506 eV
  | Sum of eigenvalues per atom                           :        -376.74590481 eV
  | Total energy (T->0) per atom                          :        -694.34593670 eV  <-- do not rely on this value for anything but (periodic) metals
  | Electronic free energy per atom                       :        -694.34593670 eV

  Self-consistency convergence accuracy:
  | Change of charge density      : 0.9239E-02
  | Change of sum of eigenvalues  : 0.1046E+01 eV
  | Change of total energy        : -.1425E-02 eV

  End self-consistency iteration #     6       :  max(cpu_time)    wall_clock(cpu1)
  | Time for this iteration                    :        1.157 s           1.157 s
  | Charge density update                      :        0.364 s           0.364 s
  | Density mixing                             :        0.009 s           0.009 s
  | Hartree multipole update                   :        0.004 s           0.004 s
  | Hartree multipole summation                :        0.209 s           0.209 s
  | Integration                                :        0.540 s           0.540 s
  | Solution of K.-S. eqns.                    :        0.030 s           0.030 s
  | Total energy evaluation                    :        0.000 s           0.000 s
------------------------------------------------------------

------------------------------------------------------------
          Begin self-consistency iteration #    7

  Date     :  20150727, Time     :  122745.093
------------------------------------------------------------
  Evaluating new KS density.
  Integration grid: deviation in total charge (<rho> - N_e) =   0.000000E+00
  Pulay mixing of updated and previous charge densities.

  Evaluating partitioned Hartree potential by multipole expansion.
  | Analytical far-field extrapolation by fixed multipoles:
  | Hartree multipole sum: apparent total charge =  -0.520171E-05
  Summing up the Hartree potential.
  Time summed over all CPUs for potential: real work        1.655 s, elapsed        1.665 s
  | RMS charge density error from multipole expansion :   0.153987E-01

  Integrating Hamiltonian matrix: batch-based integration.
  Time summed over all CPUs for integration: real work        4.257 s, elapsed        4.371 s

  Updating Kohn-Sham eigenvalues, eigenvectors, occupation numbers, and Fermi level.
  Solving generalized eigenproblem
  Updating Kohn-Sham eigenvalues and eigenfunctions.
  Solving real generalised eigenvalue problem by standard LAPACK (fast)
  Determining occupation numbers for Kohn-Sham eigenstates.
  | Chemical potential (Fermi level) in eV                 : -.27955715E+01
  | Error in electron count due to remaining E_F inaccuracy: 0.00000000E+00
  | Maximum occupation number of highest empty state:  0.00E+00

  Highest occupied state (VBM) at     -5.18252232 eV
  | Occupation number:      2.00000000

  Lowest unoccupied state (CBM) at    -1.80085188 eV
  | Occupation number:      0.00000000

  Overall HOMO-LUMO gap:      3.38167044 eV.

  Total energy components:
  | Sum of eigenvalues            :        -166.27227979 Ha       -4524.49893715 eV
  | XC energy correction          :         -37.21159224 Ha       -1012.57894422 eV
  | XC potential correction       :          47.56373018 Ha        1294.27495015 eV
  | Free-atom electrostatic energy:        -143.32627868 Ha       -3900.10647825 eV
  | Hartree energy correction     :          -6.95441122 Ha        -189.23915757 eV
  | van der Waals energy corr.    :           0.00000000 Ha           0.00000000 eV
  | Entropy correction            :           0.00000000 Ha           0.00000000 eV
  | ---------------------------
  | Total energy                  :        -306.20083175 Ha       -8332.14856705 eV
  | Total energy, T -> 0          :        -306.20083175 Ha       -8332.14856705 eV  <-- do not rely on this value for anything but (periodic) metals
  | Electronic free energy        :        -306.20083175 Ha       -8332.14856705 eV

  Derived energy quantities:
  | Kinetic energy                :         305.16765418 Ha        8304.03437477 eV
  | Electrostatic energy          :        -574.15689369 Ha      -15623.60399760 eV
  | Energy correction for multipole
  | error in Hartree potential    :          -0.00686801 Ha          -0.18688797 eV
  | Sum of eigenvalues per atom                           :        -377.04157810 eV
  | Total energy (T->0) per atom                          :        -694.34571392 eV  <-- do not rely on this value for anything but (periodic) metals
  | Electronic free energy per atom                       :        -694.34571392 eV

  Self-consistency convergence accuracy:
  | Change of charge density      : 0.1002E-01
  | Change of sum of eigenvalues  : -.3548E+01 eV
  | Change of total energy        : 0.2673E-02 eV

  End self-consistency iteration #     7       :  max(cpu_time)    wall_clock(cpu1)
  | Time for this iteration                    :        1.166 s           1.166 s
  | Charge density update                      :        0.365 s           0.365 s
  | Density mixing                             :        0.010 s           0.010 s
  | Hartree multipole update                   :        0.004 s           0.004 s
  | Hartree multipole summation                :        0.209 s           0.209 s
  | Integration                                :        0.547 s           0.547 s
  | Solution of K.-S. eqns.                    :        0.031 s           0.031 s
  | Total energy evaluation                    :        0.000 s           0.000 s
------------------------------------------------------------

------------------------------------------------------------
          Begin self-consistency iteration #    8

  Date     :  20150727, Time     :  122746.259
------------------------------------------------------------
  Evaluating new KS density.
  Integration grid: deviation in total charge (<rho> - N_e) =   1.421085E-14
  Pulay mixing of updated and previous charge densities.

  Evaluating partitioned Hartree potential by multipole expansion.
  | Analytical far-field extrapolation by fixed multipoles:
  | Hartree multipole sum: apparent total charge =  -0.521416E-05
  Summing up the Hartree potential.
  Time summed over all CPUs for potential: real work        1.655 s, elapsed        1.666 s
  | RMS charge density error from multipole expansion :   0.154563E-01

  Integrating Hamiltonian matrix: batch-based integration.
  Time summed over all CPUs for integration: real work        4.248 s, elapsed        4.314 s

  Updating Kohn-Sham eigenvalues, eigenvectors, occupation numbers, and Fermi level.
  Solving generalized eigenproblem
  Updating Kohn-Sham eigenvalues and eigenfunctions.
  Solving real generalised eigenvalue problem by standard LAPACK (fast)
  Determining occupation numbers for Kohn-Sham eigenstates.
  | Chemical potential (Fermi level) in eV                 : -.27901398E+01
  | Error in electron count due to remaining E_F inaccuracy: 0.00000000E+00
  | Maximum occupation number of highest empty state:  0.00E+00

  Highest occupied state (VBM) at     -5.15127033 eV
  | Occupation number:      2.00000000

  Lowest unoccupied state (CBM) at    -1.79891955 eV
  | Occupation number:      0.00000000

  Overall HOMO-LUMO gap:      3.35235078 eV.

  Total energy components:
  | Sum of eigenvalues            :        -166.25240279 Ha       -4523.95805649 eV
  | XC energy correction          :         -37.21412601 Ha       -1012.64789175 eV
  | XC potential correction       :          47.56703952 Ha        1294.36500191 eV
  | Free-atom electrostatic energy:        -143.32627868 Ha       -3900.10647825 eV
  | Hartree energy correction     :          -6.97506330 Ha        -189.80112927 eV
  | van der Waals energy corr.    :           0.00000000 Ha           0.00000000 eV
  | Entropy correction            :           0.00000000 Ha           0.00000000 eV
  | ---------------------------
  | Total energy                  :        -306.20083127 Ha       -8332.14855385 eV
  | Total energy, T -> 0          :        -306.20083127 Ha       -8332.14855385 eV  <-- do not rely on this value for anything but (periodic) metals
  | Electronic free energy        :        -306.20083127 Ha       -8332.14855385 eV

  Derived energy quantities:
  | Kinetic energy                :         305.16854578 Ha        8304.05863665 eV
  | Electrostatic energy          :        -574.15525104 Ha      -15623.55929875 eV
  | Energy correction for multipole
  | error in Hartree potential    :          -0.00690278 Ha          -0.18783429 eV
  | Sum of eigenvalues per atom                           :        -376.99650471 eV
  | Total energy (T->0) per atom                          :        -694.34571282 eV  <-- do not rely on this value for anything but (periodic) metals
  | Electronic free energy per atom                       :        -694.34571282 eV

  Self-consistency convergence accuracy:
  | Change of charge density      : 0.2224E-02
  | Change of sum of eigenvalues  : 0.5409E+00 eV
  | Change of total energy        : 0.1320E-04 eV

  End self-consistency iteration #     8       :  max(cpu_time)    wall_clock(cpu1)
  | Time for this iteration                    :        1.160 s           1.161 s
  | Charge density update                      :        0.365 s           0.365 s
  | Density mixing                             :        0.010 s           0.011 s
  | Hartree multipole update                   :        0.005 s           0.004 s
  | Hartree multipole summation                :        0.209 s           0.209 s
  | Integration                                :        0.540 s           0.541 s
  | Solution of K.-S. eqns.                    :        0.031 s           0.030 s
  | Total energy evaluation                    :        0.000 s           0.001 s
------------------------------------------------------------

------------------------------------------------------------
          Begin self-consistency iteration #    9

  Date     :  20150727, Time     :  122747.420
------------------------------------------------------------
  Evaluating new KS density.
  Integration grid: deviation in total charge (<rho> - N_e) =   7.105427E-15
  Pulay mixing of updated and previous charge densities.

  Evaluating partitioned Hartree potential by multipole expansion.
  | Analytical far-field extrapolation by fixed multipoles:
  | Hartree multipole sum: apparent total charge =  -0.521266E-05
  Summing up the Hartree potential.
  Time summed over all CPUs for potential: real work        1.655 s, elapsed        1.664 s
  | RMS charge density error from multipole expansion :   0.154596E-01

  Integrating Hamiltonian matrix: batch-based integration.
  Time summed over all CPUs for integration: real work        4.248 s, elapsed        4.309 s

  Updating Kohn-Sham eigenvalues, eigenvectors, occupation numbers, and Fermi level.
  Solving generalized eigenproblem
  Updating Kohn-Sham eigenvalues and eigenfunctions.
  Solving real generalised eigenvalue problem by standard LAPACK (fast)
  Determining occupation numbers for Kohn-Sham eigenstates.
  | Chemical potential (Fermi level) in eV                 : -.27896986E+01
  | Error in electron count due to remaining E_F inaccuracy: 0.00000000E+00
  | Maximum occupation number of highest empty state:  0.00E+00

  Highest occupied state (VBM) at     -5.15063595 eV
  | Occupation number:      2.00000000

  Lowest unoccupied state (CBM) at    -1.79887051 eV
  | Occupation number:      0.00000000

  Overall HOMO-LUMO gap:      3.35176545 eV.

  Total energy components:
  | Sum of eigenvalues            :        -166.25085141 Ha       -4523.91584119 eV
  | XC energy correction          :         -37.21430225 Ha       -1012.65268733 eV
  | XC potential correction       :          47.56726368 Ha        1294.37110153 eV
  | Free-atom electrostatic energy:        -143.32627868 Ha       -3900.10647825 eV
  | Hartree energy correction     :          -6.97666244 Ha        -189.84464408 eV
  | van der Waals energy corr.    :           0.00000000 Ha           0.00000000 eV
  | Entropy correction            :           0.00000000 Ha           0.00000000 eV
  | ---------------------------
  | Total energy                  :        -306.20083110 Ha       -8332.14854932 eV
  | Total energy, T -> 0          :        -306.20083110 Ha       -8332.14854932 eV  <-- do not rely on this value for anything but (periodic) metals
  | Electronic free energy        :        -306.20083110 Ha       -8332.14854932 eV

  Derived energy quantities:
  | Kinetic energy                :         305.17091720 Ha        8304.12316605 eV
  | Electrostatic energy          :        -574.15744605 Ha      -15623.61902804 eV
  | Energy correction for multipole
  | error in Hartree potential    :          -0.00690249 Ha          -0.18782641 eV
  | Sum of eigenvalues per atom                           :        -376.99298677 eV
  | Total energy (T->0) per atom                          :        -694.34571244 eV  <-- do not rely on this value for anything but (periodic) metals
  | Electronic free energy per atom                       :        -694.34571244 eV

  Self-consistency convergence accuracy:
  | Change of charge density      : 0.7992E-03
  | Change of sum of eigenvalues  : 0.4222E-01 eV
  | Change of total energy        : 0.4529E-05 eV

  End self-consistency iteration #     9       :  max(cpu_time)    wall_clock(cpu1)
  | Time for this iteration                    :        1.161 s           1.160 s
  | Charge density update                      :        0.365 s           0.364 s
  | Density mixing                             :        0.012 s           0.012 s
  | Hartree multipole update                   :        0.004 s           0.004 s
  | Hartree multipole summation                :        0.209 s           0.209 s
  | Integration                                :        0.540 s           0.540 s
  | Solution of K.-S. eqns.                    :        0.030 s           0.030 s
  | Total energy evaluation                    :        0.001 s           0.000 s
------------------------------------------------------------

------------------------------------------------------------
          Begin self-consistency iteration #   10

  Date     :  20150727, Time     :  122748.580
------------------------------------------------------------
  Evaluating new KS density.
  Integration grid: deviation in total charge (<rho> - N_e) =   7.105427E-15
  Pulay mixing of updated and previous charge densities.

  Evaluating partitioned Hartree potential by multipole expansion.
  | Analytical far-field extrapolation by fixed multipoles:
  | Hartree multipole sum: apparent total charge =  -0.520328E-05
  Summing up the Hartree potential.
  Time summed over all CPUs for potential: real work        1.655 s, elapsed        1.664 s
  | RMS charge density error from multipole expansion :   0.154600E-01

  Integrating Hamiltonian matrix: batch-based integration.
  Time summed over all CPUs for integration: real work        4.248 s, elapsed        4.321 s

  Updating Kohn-Sham eigenvalues, eigenvectors, occupation numbers, and Fermi level.
  Solving generalized eigenproblem
[...]
  |                                 -0.00708019       0.13110965      -0.00308925
  |                                  0.01193153      -0.00308925       0.12399705
  ----------------------------------------------------------------------


  Total energy components:
  | Sum of eigenvalues            :        -166.25462737 Ha       -4524.01859029 eV
  | XC energy correction          :         -37.21381250 Ha       -1012.63936068 eV
  | XC potential correction       :          47.56660123 Ha        1294.35307542 eV
  | Free-atom electrostatic energy:        -143.32627868 Ha       -3900.10647825 eV
  | Hartree energy correction     :          -6.97271274 Ha        -189.73716736 eV
  | van der Waals energy corr.    :          -0.00147803 Ha          -0.04021936 eV
  | Entropy correction            :           0.00000000 Ha           0.00000000 eV
  | ---------------------------
  | Total energy                  :        -306.20230810 Ha       -8332.18874052 eV
  | Total energy, T -> 0          :        -306.20230810 Ha       -8332.18874052 eV  <-- do not rely on this value for anything but (periodic) metals
  | Electronic free energy        :        -306.20230810 Ha       -8332.18874052 eV

  Derived energy quantities:
  | Kinetic energy                :         305.17354374 Ha        8304.19463781 eV
  | Electrostatic energy          :        -574.16056130 Ha      -15623.70379829 eV
  | Energy correction for multipole
  | error in Hartree potential    :          -0.00690112 Ha          -0.18778891 eV
  | Sum of eigenvalues per atom                           :        -377.00154919 eV
  | Total energy (T->0) per atom                          :        -694.34906171 eV  <-- do not rely on this value for anything but (periodic) metals
  | Electronic free energy per atom                       :        -694.34906171 eV

  atomic forces [eV/Ang]:
  -----------------------
  atom #    1
   Hellmann-Feynman + Multipole  : -.703877E+01 -.109250E+02 0.311452E+01
   Pulay + GGA                   : 0.787257E+01 0.133815E+02 -.393529E+01
   Van der Waals               : 0.221173E-02 -.423044E-03 0.454702E-02
   ----------------------------------------------------------------
   Total forces(   1)            : 0.836016E+00 0.245610E+01 -.816223E+00
  atom #    2
   Hellmann-Feynman + Multipole  : 0.165187E+01 -.270472E+01 0.115658E+01
   Pulay + GGA                   : -.310308E-02 0.615878E-01 -.320733E-01
   Van der Waals               : 0.135893E-02 0.390700E-02 0.296131E-02
   ----------------------------------------------------------------
   Total forces(   2)            : 0.165012E+01 -.263922E+01 0.112746E+01
  atom #    3
   Hellmann-Feynman + Multipole  : -.221054E+01 -.558322E+00 -.114906E+00
   Pulay + GGA                   : 0.128854E+00 0.620403E-01 0.323286E-02
   Van der Waals               : 0.224083E-03 0.285628E-02 0.195045E-02
   ----------------------------------------------------------------
   Total forces(   3)            : -.208146E+01 -.493426E+00 -.109723E+00
  atom #    4
   Hellmann-Feynman + Multipole  : -.608204E+01 -.798782E+01 0.912518E+01
   Pulay + GGA                   : 0.608997E+01 0.837020E+01 -.697802E+01
   Van der Waals               : -.259685E-02 0.321549E-02 -.540497E-03
   ----------------------------------------------------------------
   Total forces(   4)            : 0.533672E-02 0.385591E+00 0.214662E+01
  atom #    5
   Hellmann-Feynman + Multipole  : -.233057E+00 -.198115E+00 -.204907E-01
   Pulay + GGA                   : 0.426998E-01 0.816659E-01 0.157193E-02
   Van der Waals               : -.179998E-02 -.482831E-03 -.364598E-03
   ----------------------------------------------------------------
   Total forces(   5)            : -.192158E+00 -.116932E+00 -.192833E-01
  atom #    6
   Hellmann-Feynman + Multipole  : -.284093E+00 0.287674E+00 -.225495E+01
   Pulay + GGA                   : -.340851E-01 0.393230E-01 -.120866E+00
   Van der Waals               : 0.214132E-02 0.213093E-02 0.273552E-02
   ----------------------------------------------------------------
   Total forces(   6)            : -.316037E+00 0.329128E+00 -.237308E+01
  atom #    7
   Hellmann-Feynman + Multipole  : 0.644821E+01 -.852416E+01 -.109681E+02
   Pulay + GGA                   : -.774069E+01 0.100944E+02 0.124884E+02
   Van der Waals               : -.299562E-03 0.184241E-02 -.102299E-01
   ----------------------------------------------------------------
   Total forces(   7)            : -.129278E+01 0.157212E+01 0.151009E+01
  atom #    8
   Hellmann-Feynman + Multipole  : -.490846E+00 0.324018E+00 -.229544E+01
   Pulay + GGA                   : 0.214429E-01 0.111716E-01 0.143795E+00
   Van der Waals               : -.156150E-04 0.178656E-03 -.118200E-02
   ----------------------------------------------------------------
   Total forces(   8)            : -.469419E+00 0.335369E+00 -.215283E+01
  atom #    9
   Hellmann-Feynman + Multipole  : 0.187167E+01 -.195979E+01 0.630085E+00
   Pulay + GGA                   : -.918692E-01 0.108200E+00 -.106166E-01
   Van der Waals               : 0.119549E-02 0.124502E-02 -.623746E-02
   ----------------------------------------------------------------
   Total forces(   9)            : 0.178100E+01 -.185034E+01 0.613231E+00
  atom #   10
   Hellmann-Feynman + Multipole  : -.131127E+02 -.318936E+01 0.260702E+01
   Pulay + GGA                   : 0.143463E+02 0.462023E+01 -.319631E+01
   Van der Waals               : 0.563299E-03 -.671221E-02 0.411386E-02
   ----------------------------------------------------------------
   Total forces(  10)            : 0.123411E+01 0.142416E+01 -.585175E+00
  atom #   11
   Hellmann-Feynman + Multipole  : -.548236E+00 0.385503E-02 -.160471E-01
   Pulay + GGA                   : 0.117370E+00 -.478267E-01 0.314620E-01
   Van der Waals               : -.263039E-02 -.639266E-02 0.207964E-02
   ----------------------------------------------------------------
   Total forces(  11)            : -.433497E+00 -.503643E-01 0.174945E-01
  atom #   12
   Hellmann-Feynman + Multipole  : -.754600E+00 -.146250E+01 0.706844E+00
   Pulay + GGA                   : 0.428565E-01 0.108228E+00 -.546055E-01
   Van der Waals               : -.352461E-03 -.136502E-02 0.166661E-03
   ----------------------------------------------------------------
   Total forces(  12)            : -.712096E+00 -.135564E+01 0.652405E+00
  Timings for vdw_correction_hirshfeld (Tkatchenko-Scheffler 2009):
  | CPU time:        3.039 s, Wall clock time:        3.039 s.
  Removing unitary transformations (pure translations, rotations) from forces on atoms.
  Atomic forces before filtering:
  | Net force on center of mass :  0.913502E-02 -.345796E-02 0.109922E-01 eV/A
  | Net torque on center of mass:  -.241859E-01 -.331705E-02 -.504970E-02 eV
  Atomic forces after filtering:
  | Net force on center of mass :  -.178406E-15 -.178406E-15 -.624421E-15 eV/A
  | Net torque on center of mass:  0.302107E-14 -.188817E-14 0.000000E+00 eV
 
  Energy and forces in a compact form:
  | Total energy uncorrected      :         -0.833218874052024E+04 eV
  | Total energy corrected        :         -0.833218874052024E+04 eV  <-- do not rely on this value for anything but (periodic) metals
  | Electronic free energy        :         -0.833218874052024E+04 eV
  Total atomic forces (unitary forces cleaned) [eV/Ang]:
  |   1          0.835760453806331E+00          0.245674287034893E+01         -0.818008268461215E+00
  |   2          0.164961865475969E+01         -0.263856193701823E+01          0.112604996442855E+01
  |   3         -0.208177600352593E+01         -0.492560408121678E+00         -0.111482826286932E+00
  |   4          0.450527927216521E-02          0.386228060057683E+00          0.214570309583959E+01
  |   5         -0.193156706390669E+00         -0.116312558629127E+00         -0.199390782077283E-01
  |   6         -0.316967468393600E+00          0.330064923995771E+00         -0.237393404414227E+01
  |   7         -0.129324186000778E+01          0.157145359547201E+01          0.150900837137647E+01
  |   8         -0.469791681564147E+00          0.334364224792314E+00         -0.215394307817383E+01
  |   9          0.178034820272685E+01         -0.185112926918309E+01          0.612467437481200E+00
  |  10          0.123287594534637E+01          0.142457273996516E+01         -0.585420576727523E+00
  |  11         -0.434609677188152E+00         -0.498703809906463E-01          0.170480764863742E-01
  |  12         -0.713565138841122E+00         -0.135499186068910E+01          0.652450926387311E+00
 
  ------------------------------------ 
  Start decomposition of the XC Energy 
  ------------------------------------ 
  Hartree-Fock part   :          0.000000000 Ha              0.000000000 eV
  ------------------------------------ 
  X Energy            :        -35.910640962 Ha           -977.178258855 eV
  C Energy GGA        :         -1.303171539 Ha            -35.461101827 eV
  Total XC Energy     :        -37.213812501 Ha          -1012.639360682 eV
  LDA X and C from self-consistent density 
  X Energy LDA        :        -32.348225225 Ha           -880.239994501 eV
  C Energy LDA        :         -2.635561242 Ha            -71.717270318 eV
  ------------------------------------ 
  End decomposition of the XC Energy 
  ------------------------------------ 
  Performing Hirshfeld analysis of fragment charges and moments.
  ----------------------------------------------------------------------
  | Atom     1: O
  |   Hirshfeld charge        :     -0.37312826
  |   Free atom volume        :     23.95238533
  |   Hirshfeld volume        :     24.26519456
  |   Hirshfeld dipole vector :      0.02077559       0.06688244      -0.01190251
  |   Hirshfeld dipole moment :      0.07103911
  |   Hirshfeld second moments:      0.01823759      -0.01732938       0.02531126
  |                                 -0.01732938      -0.06614651      -0.02121976
  |                                  0.02531126      -0.02121976      -0.10835015
  ----------------------------------------------------------------------
  | Atom     2: H
  |   Hirshfeld charge        :      0.06822764
  |   Free atom volume        :     10.44207651
  |   Hirshfeld volume        :      8.45427358
  |   Hirshfeld dipole vector :     -0.02203155       0.03624636      -0.01478558
  |   Hirshfeld dipole moment :      0.04491994
  |   Hirshfeld second moments:      0.07328622       0.03050699      -0.00099068
  |                                  0.03050699       0.02501578       0.01445350
  |                                 -0.00099068       0.01445350       0.05931307
  ----------------------------------------------------------------------
  | Atom     3: H
  |   Hirshfeld charge        :      0.09669079
  |   Free atom volume        :     10.44207651
  |   Hirshfeld volume        :      7.57849530
  |   Hirshfeld dipole vector :      0.11666826       0.03014058       0.00905456
  |   Hirshfeld dipole moment :      0.12083841
  |   Hirshfeld second moments:      0.09229065      -0.01218434       0.00621159
  |                                 -0.01218434       0.08625688      -0.01058644
  |                                  0.00621159      -0.01058644       0.06504845
  ----------------------------------------------------------------------
  | Atom     4: O
  |   Hirshfeld charge        :     -0.19943490
  |   Free atom volume        :     23.95238533
  |   Hirshfeld volume        :     20.37938872
  |   Hirshfeld dipole vector :      0.02833536      -0.00873475      -0.01486447
  |   Hirshfeld dipole moment :      0.03316837
  |   Hirshfeld second moments:      0.03740725       0.01061223       0.02589250
  |                                  0.01061223       0.07808755       0.00499024
  |                                  0.02589250       0.00499024       0.10121559
  ----------------------------------------------------------------------
  | Atom     5: H
  |   Hirshfeld charge        :      0.11744535
  |   Free atom volume        :     10.44207651
  |   Hirshfeld volume        :      7.20043338
  |   Hirshfeld dipole vector :      0.02612963       0.03920782       0.00832229
  |   Hirshfeld dipole moment :      0.04784633
  |   Hirshfeld second moments:      0.08470603      -0.02180553      -0.00688314
  |                                 -0.02180553       0.07130501      -0.02846258
  |                                 -0.00688314      -0.02846258       0.10423958
  ----------------------------------------------------------------------
  | Atom     6: H
  |   Hirshfeld charge        :      0.16412841
  |   Free atom volume        :     10.44207651
  |   Hirshfeld volume        :      5.85155010
  |   Hirshfeld dipole vector :     -0.01881209       0.01003562      -0.11989309
  |   Hirshfeld dipole moment :      0.12177422
  |   Hirshfeld second moments:      0.12182915       0.00800068       0.00739240
  |                                  0.00800068       0.13631905       0.00278594
  |                                  0.00739240       0.00278594       0.12514139
  ----------------------------------------------------------------------
  | Atom     7: O
  |   Hirshfeld charge        :     -0.28725410
  |   Free atom volume        :     23.95238533
  |   Hirshfeld volume        :     22.23002040
  |   Hirshfeld dipole vector :     -0.02921475       0.02127635       0.03555691
  |   Hirshfeld dipole moment :      0.05069989
  |   Hirshfeld second moments:     -0.01067164      -0.05022724       0.02820218
  |                                 -0.05022724      -0.01442753      -0.02679900
  |                                  0.02820218      -0.02679900       0.04116634
  ----------------------------------------------------------------------
  | Atom     8: H
  |   Hirshfeld charge        :      0.14487848
  |   Free atom volume        :     10.44207651
  |   Hirshfeld volume        :      6.31716410
  |   Hirshfeld dipole vector :      0.01941496      -0.01610297       0.12332489
  |   Hirshfeld dipole moment :      0.12587801
  |   Hirshfeld second moments:      0.11434380      -0.01914329       0.00522884
  |                                 -0.01914329       0.11365595      -0.00477635
  |                                  0.00522884      -0.00477635       0.10804336
  ----------------------------------------------------------------------
  | Atom     9: H
  |   Hirshfeld charge        :      0.14388763
  |   Free atom volume        :     10.44207651
  |   Hirshfeld volume        :      6.69669201
  |   Hirshfeld dipole vector :     -0.08675551       0.07883807      -0.01873155
  |   Hirshfeld dipole moment :      0.11871323
  |   Hirshfeld second moments:      0.10193512      -0.00419713       0.00127986
  |                                 -0.00419713       0.09117919       0.00320263
  |                                  0.00127986       0.00320263       0.12138590
  ----------------------------------------------------------------------
  | Atom    10: O
  |   Hirshfeld charge        :     -0.21315075
  |   Free atom volume        :     23.95238533
  |   Hirshfeld volume        :     20.30974592
  |   Hirshfeld dipole vector :      0.02210407      -0.01452030      -0.01985467
  |   Hirshfeld dipole moment :      0.03307018
  |   Hirshfeld second moments:      0.06363142      -0.00005043       0.02508082
  |                                 -0.00005043       0.09215039      -0.03316234
  |                                  0.02508082      -0.03316234       0.04019769
  ----------------------------------------------------------------------
  | Atom    11: H
  |   Hirshfeld charge        :      0.16762823
  |   Free atom volume        :     10.44207651
  |   Hirshfeld volume        :      6.12970525
  |   Hirshfeld dipole vector :      0.09882960      -0.04609133       0.03290434
  |   Hirshfeld dipole moment :      0.11390520
  |   Hirshfeld second moments:      0.12449972       0.01048965      -0.00321464
  |                                  0.01048965       0.12832096      -0.00051181
  |                                 -0.00321464      -0.00051181       0.11175224
  ----------------------------------------------------------------------
  | Atom    12: H
  |   Hirshfeld charge        :      0.17005231
  |   Free atom volume        :     10.44207651
  |   Hirshfeld volume        :      5.54495991
  |   Hirshfeld dipole vector :      0.03550065       0.10304089      -0.05370628
  |   Hirshfeld dipole moment :      0.12149933
  |   Hirshfeld second moments:      0.14076167      -0.00708019       0.01193153
  |                                 -0.00708019       0.13110965      -0.00308925
  |                                  0.01193153      -0.00308925       0.12399705
  ----------------------------------------------------------------------


------------------------------------------------------------------------------
  Final output of selected total energy values:

  The following output summarizes some interesting total energy values
  at the end of a run (AFTER all relaxation, molecular dynamics, etc.).

  | Total energy of the DFT / Hartree-Fock s.c.f. calculation      :          -8332.188740520 eV
  | Final zero-broadening corrected energy (caution - metals only) :          -8332.188740520 eV
  | For reference only, the value of 1 Hartree used in FHI-aims is :             27.211384500 eV

  Before relying on these values, please be sure to understand exactly which
  total energy value is referred to by a given number. Different objects may
  all carry the same name 'total energy'. Definitions:

  Total energy of the DFT / Hartree-Fock s.c.f. calculation:
  | Note that this energy does not include ANY quantities calculated after the
  | s.c.f. cycle, in particular not ANY RPA, MP2, etc. many-body perturbation terms.

  Final zero-broadening corrected energy:
  | For metallic systems only, a broadening of the occupation numbers at the Fermi
  | level can be extrapolated back to zero broadening by an electron-gas inspired
  | formula. For all systems that are not real metals, this value can be
  | meaningless and should be avoided.

------------------------------------------------------------------------------

------------------------------------------------------------
          Leaving FHI-aims.
          Date     :  20150727, Time     :  122759.053

          Computational steps:
          | Number of self-consistency cycles          :           16

          Detailed time accounting                     :  max(cpu_time)    wall_clock(cpu1)
          | Total time                                 :       22.763 s          22.784 s
          | Preparation time                           :        0.174 s           0.632 s
          | Grid partitioning                          :        0.116 s           0.116 s
          | Preloading free-atom quantities on grid    :        0.014 s           0.014 s
          | Free-atom superposition energy             :        0.047 s           0.047 s
          | Total time for integrations                :        9.508 s           9.508 s
          | Total time for solution of K.-S. equations :        0.601 s           0.603 s
          | Total time for density & force components  :        7.377 s           7.377 s
          | Total time for mixing                      :        0.162 s           0.161 s
          | Total time for Hartree multipole update    :        0.066 s           0.068 s
          | Total time for Hartree multipole sum       :        4.032 s           4.030 s
          | Total time for total energy evaluation     :        0.002 s           0.003 s
          | Total time for scaled ZORA corrections     :        0.000 s           0.000 s
          | Total time for TS (2009) vdW correction    :        0.034 s           0.034 s

          Have a nice day.
------------------------------------------------------------
