  MPI-parallelism will be employed.
------------------------------------------------------------
          Invoking FHI-aims ...
          Version 081213
          Compiled on 2013/08/29 at 17:41:06 on host generoso.

          When using FHI-aims, please cite the following reference:

          Volker Blum, Ralf Gehrke, Felix Hanke, Paula Havu,
          Ville Havu, Xinguo Ren, Karsten Reuter, and Matthias Scheffler,
          'Ab Initio Molecular Simulations with Numeric Atom-Centered Orbitals: FHI-aims',
          Computer Physics Communications 180, 2175-2196 (2009)

          For any questions about FHI-aims, please visit the aimsclub website
          with its forums and wiki. Contributions to both the forums and the
          wiki are warmly encouraged - they are for you, and everyone is welcome there.

------------------------------------------------------------

  Date     :  20150727, Time     :  123802.881
  Time zero on CPU 1             :   0.369930000000000E-01  s.
  Internal wall clock time zero  :           207232682.881  s.

  Using        8 parallel tasks.
  Task        0 on host gen60 reporting.
  Task        1 on host gen60 reporting.
  Task        2 on host gen60 reporting.
  Task        3 on host gen60 reporting.
  Task        4 on host gen60 reporting.
  Task        5 on host gen60 reporting.
  Task        6 on host gen60 reporting.
  Task        7 on host gen60 reporting.

  Performing system and environment tests:
  | Environment variable OMP_NUM_THREADS correctly set to 1.
  | Checking for scalapack...
  | No scalapack compiled in.

  Obtaining array dimensions for all initial allocations:
  
  -----------------------------------------------------------------------
  Parsing control.in (first pass over file, find array dimensions only).
  The contents of control.in will be repeated verbatim below
  unless switched off by setting 'verbatim_writeout .false.' .
  in the first line of control.in .
  -----------------------------------------------------------------------
  
  #########################################################################################
  #
  #  Volker Blum, FHI 2008 : Test run input file control.in
  #
  #########################################################################################
  #
  #  Physical model
  #
    xc                 rpbe
    spin               none
    relativistic       atomic_zora scalar
    charge             0.
   vdw_correction_hirshfeld
  #
  #  SCF convergence
  #
    occupation_type    gaussian 0.01
    mixer              pulay
      n_max_pulay        10
      charge_mix_param   0.1
    sc_accuracy_rho    5E-5
    sc_accuracy_eev    5E-3
    sc_accuracy_etot   5E-6
    sc_iter_limit      3000
  #
  #  Eigenvalue solver
  #
    KS_method          lapack
      empty_states       8
      basis_threshold    0.e-5
  #
  #  Efficiency
  #
  #   all previous settings are now default, except stratmann still
  #   undecided. Continue to handle stratmann with care, if at all.
  #
  #  partition_type stratmann
    partition_type rho_r2
  #  hartree_partition_type stratmann
  #
  #  Oprions for large clusters (100's of atoms: memory saving / better scaling)
  #
  # for periodic systems:
  #
    density_update_method orbital
    packed_matrix_format none
  #  k_grid 6 6 6
  #  output k_eigenvalue 1
  #  distributed_spline_storage .true.
  #
  #  Relaxation
  #
  #  relax_geometry   bfgs 5.e-3
    sc_accuracy_forces 5.E-4
    final_forces_cleaned .true.
  #
  #  Output options
  #
  #  output mulliken
    output Hirshfeld
  #  output dipole
  
  #harmonic_length_scale 0.001
  
  ################################################################################
  #
  #  FHI-aims code project
  #  VB, Fritz-Haber Institut, 2007
  #
  #  Suggested "safe" defaults for H atom (to be pasted into control.in file)
  #  Basis constructed for a non-relativistic H2 molecule using the
  #  PW-LDA functional.
  #
  ################################################################################
    species        H
  #     global species definitions
      nucleus             1
      cut_pot             4.0  2.0  1.0
      cut_free_atom       finite 8.0
      logarithmic         0.00010000 100.00  1.0123
      basis_dep_cutoff    1d-4  # 1d-4 is safe default - please check 5d-4 if you wish!
      radial_base         24 7.0
      radial_multiplier   2
      angular_grids       specified
        division   0.2783  110
        division   0.3822  194
        division   0.5626  302
  #      division   0.5922  434
  #      division   0.6227  590
  #      division   0.7206  770
        outer_grid  302
      l_hartree           4
  ################################################################################
  #
  #  Definition of "minimal" basis
  #
  ################################################################################
  #     valence basis states
      valence      1  s   1.
  #     ion occupancy
      ion_occ      1  s   0.5
  ################################################################################
  #
  #  Suggested additional basis functions. For production calculations,
  #  uncomment them one after another (the most important basis functions are
  #  listed first).
  #
  ################################################################################
  #  "First tier" - improvements: -1014.90 meV to -62.69 meV
       hydro 2 s 2.1
       hydro 2 p 3.5
  #  "Second tier" - improvements: -12.89 meV to -1.83 meV
       hydro 1 s 0.85
       hydro 2 p 3.7
       hydro 2 s 1.2
       hydro 3 d 7
  #  "Third tier" - improvements: -0.25 meV to -0.12 meV
  #     hydro 4 f 11.2
  #     hydro 3 p 4.8
  #     hydro 4 d 9
  #     hydro 3 s 3.2
  
  ################################################################################
  #
  #  FHI-aims code project
  #  VB, Fritz-Haber Institut, 2007
  #
  #  Suggested "safe" defaults for O atom (to be pasted into control.in file)
  #  All values have been tested for a non-relativistic, non-spinpolarized O2
  #  molecule using the PW-LDA functional. Validity for PBE is expected.
  #
  #  Constructed for dimers: 1.0 A, 1.208 A, 1.5 A, 2.0 A, 3.0 A
  #
  ################################################################################
    species        O
  #     global species definitions
      nucleus             8
      mass                15.9994
      l_hartree           4
      cut_pot             4.0  2.0  1.0
      cut_free_atom       finite 8.0
      basis_dep_cutoff    1d-4  # 1d-4 is safe default - please check 5d-4 if you wish!
      logarithmic         0.00010000 100.00  1.0123
      radial_base         36 7.0
      radial_multiplier   2
       angular_grids specified
        division   0.4087  110
        division   0.5181  194
        division   0.6184  302
  #      division   0.7315  434
  #      division   0.7934  590
  #      division   0.9656  770
  #      division   1.4041  974
  #      outer_grid 974
        outer_grid 302
  ################################################################################
  #
  #  Definition of "minimal" basis
  #
  ################################################################################
  #     valence basis states
      valence      2  s   2.
      valence      2  p   4.
  #     ion occupancy
      ion_occ      2  s   1.
      ion_occ      2  p   3.
  ################################################################################
  #
  #  Suggested additional basis functions. For production calculations,
  #  uncomment them one after another (the most important basis functions are
  #  listed first).
  #
  ################################################################################
  #  "First tier" - improvements: -699.05 meV to -159.38 meV
       hydro 2 p 1.8
       hydro 3 d 7.6
       hydro 3 s 6.4
  #  "Second tier" - improvements: -49.91 meV to -5.39 meV
       hydro 4 f 11.6
       hydro 3 p 6.2
       hydro 3 d 5.6
       hydro 5 g 17.6
       hydro 1 s 0.75
  #  "Third tier" - improvements: -2.83 meV to -0.50 meV
  #     ionic 2 p auto
  #     hydro 4 f 10.8
  #     hydro 4 d 4.7
  #     hydro 2 s 6.8
  #  "Fourth tier" - improvements: -0.40 meV to -0.12 meV
  #     hydro 3 p 5
  #     hydro 3 s 3.3
  #     hydro 5 g 15.6
  #     hydro 4 f 17.6
  #     hydro 4 d 14
  # Further basis functions - -0.08 meV and below
  #     hydro 3 s 2.1
  #     hydro 4 d 11.6
  #     hydro 3 p 16
  #     hydro 2 s 17.2
  
  
  -----------------------------------------------------------------------
  Completed first pass over input file control.in .
  -----------------------------------------------------------------------
  
  
  -----------------------------------------------------------------------
  Parsing geometry.in (first pass over file, find array dimensions only).
  The contents of geometry.in will be repeated verbatim below
  unless switched off by setting 'verbatim_writeout .false.' .
  in the first line of geometry.in .
  -----------------------------------------------------------------------
  
  atom      -4.053030000      0.065001000     -1.525160000  O
  atom      -4.566710000      0.974813000     -1.912820000  H
  atom      -3.067820000      0.330172000     -1.477310000  H
  atom      -3.818880000      2.024990000      2.187990000  O
  atom      -3.690880000      1.961360000      3.202150000  H
  atom      -4.546490000      2.751300000      2.045370000  H
  atom      -1.975360000      2.858040000      0.453140000  O
  atom      -1.223550000      3.375850000      0.786238000  H
  atom      -2.537520000      2.567960000      1.156120000  H
  atom      -4.066610000      4.258280000     -0.900064000  O
  atom      -3.224110000      3.876870000     -0.569443000  H
  atom      -3.737450000      5.116530000     -1.322720000  H
  atom      -5.628340000      3.730740000      1.385610000  O
  atom      -6.090650000      4.418470000      1.860350000  H
  atom      -5.158540000      4.200260000      0.615875000  H
  
  -----------------------------------------------------------------------
  Completed first pass over input file geometry.in .
  -----------------------------------------------------------------------
  
 
  Basic array size parameters: 
  | Number of species                 :        2
  | Number of atoms                   :       15
  | Max. basis fn. angular momentum   :        4
  | Max. atomic/ionic basis occupied n:        2
  | Max. number of basis fn. types    :        2
  | Max. radial fns per species/type  :        8
  | Max. logarithmic grid size        :     1301
  | Max. radial integration grid size :       73
  | Max. angular integration grid size:      302
  | Max. angular grid division number :        8
  | Radial grid for Hartree potential :     1301
  | Number of spin channels           :        1

------------------------------------------------------------
          Reading file control.in.
------------------------------------------------------------
  XC: Using RPBE gradient-corrected functionals.
  Spin treatment: No spin polarisation.
  Scalar relativistic treatment of kinetic energy: on-site free-atom approximation to ZORA.
  Charge =   0.000000E+00: Neutral system requested explicitly.
  Using non-empirical van der Waals correction (Hirshfeld partitioning):
  Occupation type: Gaussian broadening, width =   0.100000E-01 eV.
  Using pulay charge density mixing.
  Pulay mixing - number of memorized iterations:   10
  Charge density mixing - mixing parameter:     0.1000
  Convergence accuracy of self-consistent charge density: 0.5000E-04
  Convergence accuracy of sum of eigenvalues: 0.5000E-02
  Convergence accuracy of total energy: 0.5000E-05
  Maximum number of s.-c. iterations  :  3000
  Kohn-Sham eigenvalues and eigenfunctions calculated by lapack diagonalisation (D&C).
  Number of empty states per atom:        8
  Threshold for basis singularities: 0.0000E+00
  Partition function in integrals calculations: rho / r^2
 Using packed matrix format           0
  Convergence accuracy of forces: 0.5000E-03
  Cleaning forces before final output.
  Hirshfeld charge analysis will be performed.
 
  Reading configuration options for species H                   .
  | Found nuclear charge :   1.0000
  | Found cutoff potl. onset [A], width [A], scale factor :    4.00000    2.00000    1.00000
  | Found cutoff specification for free atom: Cutoff potential begins at    8.00000 A.
  | Found logarithmic grid data [bohr] : 0.1000E-03 0.1000E+03 0.1012E+01
  | Threshold for basis-dependent cutoff potential is   0.100000E-03
  | Found data for basic radial integration grid :    24 points, outermost radius =    7.000 A
  | Found multiplier for basic radial grid :   2
  | Found angular grid specification: user-specified.
  | Specified grid contains     4 separate shells.
  | Check grid settings after all constraints further below.
  | Found l_max for Hartree potential  :   4
  | Found free-atom valence shell :  1 s   1.000
  | No ionic wave fns used. Skipping ion_occ.
  | Found hydrogenic basis function :  2 s   2.100
  | Found hydrogenic basis function :  2 p   3.500
  | Found hydrogenic basis function :  1 s   0.850
  | Found hydrogenic basis function :  2 p   3.700
  | Found hydrogenic basis function :  2 s   1.200
  | Found hydrogenic basis function :  3 d   7.000
  Species H                   : Missing cutoff potential type.
  Defaulting to exp(1/x)/(1-x)^2 type cutoff potential.
  Species H : On-site basis accuracy parameter (for Gram-Schmidt orthonormalisation) not specified.
  Using default value basis_acc =  0.1000000E-03.
  Species H                   : Using default innermost maximum threshold i_radial=  2 for radial functions.
  Species H                   : Basic radial grid will be enhanced according to radial_multiplier =   2, to contain    49 grid points.
 
  Reading configuration options for species O                   .
  | Found nuclear charge :   8.0000
  | Found atomic mass :    15.9994000000000      amu
  | Found l_max for Hartree potential  :   4
  | Found cutoff potl. onset [A], width [A], scale factor :    4.00000    2.00000    1.00000
  | Found cutoff specification for free atom: Cutoff potential begins at    8.00000 A.
  | Threshold for basis-dependent cutoff potential is   0.100000E-03
  | Found logarithmic grid data [bohr] : 0.1000E-03 0.1000E+03 0.1012E+01
  | Found data for basic radial integration grid :    36 points, outermost radius =    7.000 A
  | Found multiplier for basic radial grid :   2
  | Found angular grid specification: user-specified.
  | Specified grid contains     4 separate shells.
  | Check grid settings after all constraints further below.
  | Found free-atom valence shell :  2 s   2.000
  | Found free-atom valence shell :  2 p   4.000
  | No ionic wave fns used. Skipping ion_occ.
  | No ionic wave fns used. Skipping ion_occ.
  | Found hydrogenic basis function :  2 p   1.800
  | Found hydrogenic basis function :  3 d   7.600
  | Found hydrogenic basis function :  3 s   6.400
  | Found hydrogenic basis function :  4 f  11.600
  | Found hydrogenic basis function :  3 p   6.200
  | Found hydrogenic basis function :  3 d   5.600
  | Found hydrogenic basis function :  5 g  17.600
  | Found hydrogenic basis function :  1 s   0.750
  Species O                   : Missing cutoff potential type.
  Defaulting to exp(1/x)/(1-x)^2 type cutoff potential.
  Species O : On-site basis accuracy parameter (for Gram-Schmidt orthonormalisation) not specified.
  Using default value basis_acc =  0.1000000E-03.
  Species O                   : Using default innermost maximum threshold i_radial=  2 for radial functions.
  Species O                   : Basic radial grid will be enhanced according to radial_multiplier =   2, to contain    73 grid points.
 
  Finished reading input file 'control.in'. Consistency checks are next.
 
  Target number of points in a grid batch is not set. Defaulting to  100
  Method for grid partitioning is not set. Defaulting to parallel hash+maxmin partitioning.
  Batch size limit is not set. Defaulting to    200
  By default, will store active basis functions for each batch.
  If in need of memory, prune_basis_once .false. can be used to disable this option.
  communication_type for Hartree potential was not specified.
  Defaulting to calc_hartree .
  Pulay mixer: Number of initial linear mixing iterations not set.
  Defaulting to    0 iterations.
  Work space size for distributed Hartree potential not set.
  Defaulting to   0.200000E+03 MB.
  Algorithm-dependent basis array size parameters:
  | n_max_pulay                         :       10
  Geometry relaxation not requested: no relaxation will be performed.
  Handling of forces: Unphysical translation and rotation will be removed from forces.
  No accuracy limit for integral partition fn. given. Defaulting to 0.1000E-14.
  No threshold value for u(r) in integrations given. Defaulting to 0.1000E-05.
  No accuracy for occupation numbers given. Defaulting to 0.1000E-07.
  No threshold value for occupation numbers given. Defaulting to 0.0000E+00.
  No accuracy for fermi level given. Defaulting to 0.1000E-19.
  Maximum # of iterations to find E_F not set. Defaulting to  200.
  Will not use alltoall communication since running on < 1024 CPUs.
  Partitioning for Hartree potential was not defined. Using partition_type for integrals.
  | Reporting present value of keyword multip_moments_threshold  :       0.10000000E-09
  | This value may affect high angular momentum components of the Hartree potential in periodic systems.
  No q(lm)/r^(l+1) cutoff set for long-range Hartree potential.
  | Using default value of  0.100000E-09 .
  | Verify using the multipole_threshold keyword.
  Defaulting to new monopole extrapolation.
  Density update method: Loop over occupied states selected for charge density update.
------------------------------------------------------------


------------------------------------------------------------
          Reading geometry description geometry.in.
------------------------------------------------------------
  Input structure read successfully.
  The structure contains       15 atoms,  and a total of         50.000 electrons.

  Input geometry:
  | No unit cell requested.
  | Atomic structure:
  |       Atom                x [A]            y [A]            z [A]
  |    1: Species O             -4.053030         0.065001        -1.525160
  |    2: Species H             -4.566710         0.974813        -1.912820
  |    3: Species H             -3.067820         0.330172        -1.477310
  |    4: Species O             -3.818880         2.024990         2.187990
  |    5: Species H             -3.690880         1.961360         3.202150
  |    6: Species H             -4.546490         2.751300         2.045370
  |    7: Species O             -1.975360         2.858040         0.453140
  |    8: Species H             -1.223550         3.375850         0.786238
  |    9: Species H             -2.537520         2.567960         1.156120
  |   10: Species O             -4.066610         4.258280        -0.900064
  |   11: Species H             -3.224110         3.876870        -0.569443
  |   12: Species H             -3.737450         5.116530        -1.322720
  |   13: Species O             -5.628340         3.730740         1.385610
  |   14: Species H             -6.090650         4.418470         1.860350
  |   15: Species H             -5.158540         4.200260         0.615875
  |

  | The smallest distance between any two atoms is         0.94570141 AA.
  |
  | The first atom of this pair is atom number                      7 .
  | The second atom of this pair is atom number                     9 .

  Structure-dependent array size parameters: 
  | Maximum number of distinct radial functions  :       18
  | Maximum number of basis functions            :      345
  | Number of Kohn-Sham states (occupied + empty):       85
------------------------------------------------------------

------------------------------------------------------------
          Preparing all fixed parts of the calculation.
------------------------------------------------------------
  Determining machine precision:
    2.225073858507201E-308
  Setting up grids for atomic and cluster calculations.

  Creating wave function, potential, and density for free atoms.

  Species: H

  List of occupied orbitals and eigenvalues:
    n    l              occ      energy [Ha]    energy [eV]
    1    0           1.0000        -0.241408        -6.5691


  Species: O

  List of occupied orbitals and eigenvalues:
    n    l              occ      energy [Ha]    energy [eV]
    1    0           2.0000       -18.944147      -515.4965
    2    0           2.0000        -0.883529       -24.0421
    2    1           4.0000        -0.330176        -8.9845

  Creating fixed part of basis set: Ionic, confined, hydrogenic.
 
  H                    hydrogenic:
 
  List of hydrogenic basis orbitals: 
    n    l      effective z      eigenvalue [eV]  inner max. [A]     outer max. [A]     outer radius [A]   
    2    0         2.100000       -14.9965           0.193241           1.317192           5.372934
    2    1         3.500000       -41.6672           0.602363           0.602363           4.056010
    1    0         0.850000        -9.8292           0.624864           0.624864           5.372934
    2    1         3.700000       -46.5653           0.573616           0.573616           3.909951
    2    0         1.200000        -4.5995           0.334977           2.228160           5.505921
    3    2         7.000000       -74.0753           0.680692           0.680692           3.769152
 
 
  O                    hydrogenic:
 
  List of hydrogenic basis orbitals: 
    n    l      effective z      eigenvalue [eV]  inner max. [A]     outer max. [A]     outer radius [A]   
    2    1         1.800000       -11.0118           1.178546           1.178546           5.432516
    3    2         7.600000       -87.3182           0.624117           0.624117           3.541422
    3    0         6.400000       -61.9209           0.061166           1.081887           4.306510
    4    3        11.600000      -114.4238           0.731621           0.731621           3.584982
    3    1         6.200000       -58.1113           0.255677           1.030255           4.306510
    3    2         5.600000       -47.4081           0.847222           0.847222           4.413102
    5    4        17.600000      -168.5799           0.749730           0.749730           3.372413
    1    0         0.750000        -7.6499           0.705275           0.705275           5.366508
 

  Adding cutoff potential to free-atom effective potential.
  Creating atomic-like basis functions for current effective potential.

  Species H                   :

  List of atomic basis orbitals and eigenvalues:
    n    l      energy [Ha]    energy [eV]    outer radius [A]
    1    0        -0.241374        -6.5681       5.372934


  Species O                   :

  List of atomic basis orbitals and eigenvalues:
    n    l      energy [Ha]    energy [eV]    outer radius [A]
    1    0       -18.944147      -515.4965       1.415745
    2    0        -0.883529       -24.0421       5.048305
    2    1        -0.330173        -8.9845       5.301302

  Assembling full basis from fixed parts.
  | Species H :   atomic orbital   1 s accepted.
  | Species H :    hydro orbital   2 s accepted.
  | Species H :    hydro orbital   1 s accepted.
  | Species H :    hydro orbital   2 s accepted.
  | Species H :    hydro orbital   2 p accepted.
  | Species H :    hydro orbital   2 p accepted.
  | Species H :    hydro orbital   3 d accepted.
  | Species O :   atomic orbital   1 s accepted.
  | Species O :    hydro orbital   3 s accepted.
  | Species O :   atomic orbital   2 s accepted.
  | Species O :    hydro orbital   1 s accepted.
  | Species O :    hydro orbital   3 p accepted.
  | Species O :   atomic orbital   2 p accepted.
  | Species O :    hydro orbital   2 p accepted.
  | Species O :    hydro orbital   3 d accepted.
  | Species O :    hydro orbital   3 d accepted.
  | Species O :    hydro orbital   4 f accepted.
  | Species O :    hydro orbital   5 g accepted.
 
  Basis size parameters after reduction:
  | Total number of radial functions:       18
  | Total number of basis functions :      345
 
  Testing on-site integration grid accuracy.
  |  Species  Function  <phi|h_atom|phi> (log., in eV)  <phi|h_atom|phi> (rad., in eV)
           1        1                 -6.5683835025                 -6.5684759159
           1        2                 13.3711789951                 13.3708738703
           1        3                 23.6590910787                 23.6532055418
           1        4                 16.2963827186                 16.1870710655 ***
           1        5                 28.7627214838                 28.7627215090
           1        6                 59.5965249172                 59.5965950857
           1        7                 60.2220506392                 60.2220503827
           2        8               -515.4964576505               -515.4964530710
           2        9                 15.3030791347                 15.3030722972
           2       10                -21.7296094581                -21.7296135470
           2       11                 14.2969371730                 14.2969701621
           2       12                 21.0679693190                 21.0679697493
           2       13                 -2.3833606469                 -2.3833613176
           2       14                 13.7067136422                 13.7066766629
           2       15                 45.8013116808                 45.8013116965
           2       16                 52.2309815402                 52.2309831494
           2       17                 85.4120732416                 85.4120732763
           2       18                142.1019167745                142.1019167817
 * Note: Onsite integrals marked "***" above are less accurate than
 * onsite_accuracy_threshold =    0.03000 eV. Usually, this is harmless.
 * When in doubt, tighten the "radial" and/or "radial_multiplier" flags to check.

  Preparing densities etc. for the partition functions (integrals / Hartree potential).

  Preparations completed.
  max(cpu_time)          :      0.168 s.
  Wall clock time (cpu1) :      0.567 s.
------------------------------------------------------------

------------------------------------------------------------
          Begin self-consistency loop: Initialization.

          Date     :  20150727, Time     :  123803.467
------------------------------------------------------------

  Initializing index lists of integration centers etc. from given atomic structure:
  | Number of centers in hartree potential         :        15
  | Number of centers in hartree multipole         :        15
  | Number of centers in electron density summation:        15
  | Number of centers in basis integrals           :        15
  | Number of centers in integrals                 :        15
  Partitioning the integration grid into batches with parallel hashing+maxmin method.
  | Number of batches:     2132
  | Maximal batch size:     173
  | Minimal batch size:      49
  | Average batch size:      92.265
  | Standard deviation of batch sizes:      28.695

  Integration load balanced across     8 MPI tasks.
  Work distribution over tasks is as follows:
  Task     0 has      24617 integration points.
  Task     1 has      24564 integration points.
  Task     2 has      24549 integration points.
  Task     3 has      24615 integration points.
  Task     4 has      24588 integration points.
  Task     5 has      24564 integration points.
  Task     6 has      24627 integration points.
  Task     7 has      24586 integration points.
  Initializing partition tables, free-atom densities, potentials, etc. across the integration grid (initialize_grid_storage).
  | Net number of integration points:   196710
  | of which are non-zero points    :   196165
  Obtaining max. number of non-zero basis functions in each batch (get_n_compute_maxes).
  | Maximal number of non-zero basis functions:      342 in task     0
  | Maximal number of non-zero basis functions:      342 in task     1
  | Maximal number of non-zero basis functions:      342 in task     2
  | Maximal number of non-zero basis functions:      341 in task     3
  | Maximal number of non-zero basis functions:      342 in task     4
  | Maximal number of non-zero basis functions:      342 in task     5
  | Maximal number of non-zero basis functions:      342 in task     6
  | Maximal number of non-zero basis functions:      342 in task     7
  Integrating Hamiltonian matrix: batch-based integration.
  Time summed over all CPUs for integration: real work        7.633 s, elapsed        7.706 s
  Integrating overlap matrix.
  Time summed over all CPUs for integration: real work        4.057 s, elapsed        4.089 s

  Updating Kohn-Sham eigenvalues, eigenvectors, occupation numbers, and Fermi level.
  Solving generalized eigenproblem
  Updating Kohn-Sham eigenvalues and eigenfunctions.
  Transforming overlap matrix and checking for singularities.
  Overlap matrix is nonsingular:
  | Lowest eigenvalue:  0.284508E-03
  Solving real generalised eigenvalue problem by standard LAPACK (fast)
  Determining occupation numbers for Kohn-Sham eigenstates.
  | Chemical potential (Fermi level) in eV                 : -.38116574E+01
  | Error in electron count due to remaining E_F inaccuracy: 0.00000000E+00
  | Maximum occupation number of highest empty state:  0.00E+00

  Writing Kohn-Sham eigenvalues.

  State    Occupation    Eigenvalue [Ha]    Eigenvalue [eV]
      1       2.00000         -19.056832         -518.56278
      2       2.00000         -19.050642         -518.39435
      3       2.00000         -19.042632         -518.17639
      4       2.00000         -19.032815         -517.90923
      5       2.00000         -19.019191         -517.53852
      6       2.00000          -1.109681          -30.19595
      7       2.00000          -1.100040          -29.93360
      8       2.00000          -1.085800          -29.54613
      9       2.00000          -1.064326          -28.96179
     10       2.00000          -1.042764          -28.37506
     11       2.00000          -0.654197          -17.80162
     12       2.00000          -0.632033          -17.19849
     13       2.00000          -0.608421          -16.55599
     14       2.00000          -0.603820          -16.43079
     15       2.00000          -0.569560          -15.49850
     16       2.00000          -0.527564          -14.35574
     17       2.00000          -0.510524          -13.89205
     18       2.00000          -0.505869          -13.76539
     19       2.00000          -0.486141          -13.22856
     20       2.00000          -0.478843          -13.02999
     21       2.00000          -0.444190          -12.08702
     22       2.00000          -0.439776          -11.96690
     23       2.00000          -0.432086          -11.75766
     24       2.00000          -0.424388          -11.54818
     25       2.00000          -0.409176          -11.13425
     26       0.00000          -0.097174           -2.64424
     27       0.00000          -0.074692           -2.03248
     28       0.00000          -0.056794           -1.54545
     29       0.00000          -0.050142           -1.36442
     30       0.00000          -0.029295           -0.79715
     31       0.00000          -0.017335           -0.47170
     32       0.00000           0.026528            0.72187
     33       0.00000           0.038996            1.06113
     34       0.00000           0.048414            1.31742
     35       0.00000           0.054105            1.47227
     36       0.00000           0.066036            1.79693
     37       0.00000           0.073796            2.00810
     38       0.00000           0.084445            2.29785
     39       0.00000           0.089608            2.43836
     40       0.00000           0.095864            2.60859
     41       0.00000           0.099541            2.70865
     42       0.00000           0.109973            2.99251
     43       0.00000           0.118514            3.22494
     44       0.00000           0.121548            3.30749
     45       0.00000           0.132106            3.59478
     46       0.00000           0.137408            3.73906
     47       0.00000           0.152040            4.13723
     48       0.00000           0.155863            4.24124
     49       0.00000           0.165745            4.51015
     50       0.00000           0.169318            4.60739
     51       0.00000           0.201077            5.47160
     52       0.00000           0.237765            6.46992
     53       0.00000           0.248558            6.76362
     54       0.00000           0.253792            6.90604
     55       0.00000           0.260450            7.08721
     56       0.00000           0.275580            7.49892
     57       0.00000           0.284783            7.74933
     58       0.00000           0.303700            8.26410
     59       0.00000           0.305916            8.32438
     60       0.00000           0.308823            8.40351
     61       0.00000           0.338403            9.20843
     62       0.00000           0.339700            9.24370
     63       0.00000           0.361791            9.84482
     64       0.00000           0.368504           10.02749
     65       0.00000           0.384539           10.46385
     66       0.00000           0.393859           10.71745
     67       0.00000           0.397712           10.82231
     68       0.00000           0.417361           11.35698
     69       0.00000           0.420344           11.43816
     70       0.00000           0.437368           11.90138
     71       0.00000           0.440300           11.98118
     72       0.00000           0.455957           12.40723
     73       0.00000           0.477659           12.99776
     74       0.00000           0.498790           13.57276
     75       0.00000           0.517137           14.07202
     76       0.00000           0.531871           14.47293
     77       0.00000           0.564757           15.36782
     78       0.00000           0.575410           15.65769
     79       0.00000           0.594541           16.17828
     80       0.00000           0.618822           16.83900
     81       0.00000           0.626933           17.05972
     82       0.00000           0.675321           18.37643
     83       0.00000           0.693741           18.87764
     84       0.00000           0.716918           19.50834
     85       0.00000           0.736177           20.03240

  Highest occupied state (VBM) at    -11.13424780 eV
  | Occupation number:      2.00000000

  Lowest unoccupied state (CBM) at    -2.64423515 eV
  | Occupation number:      0.00000000

  Overall HOMO-LUMO gap:      8.49001265 eV.
  Calculating total energy contributions from superposition of free atom densities.

  Total energy components:
  | Sum of eigenvalues            :        -216.66261982 Ha       -5895.68985473 eV
  | XC energy correction          :         -45.54581246 Ha       -1239.36461529 eV
  | XC potential correction       :          58.19795229 Ha        1583.64685695 eV
  | Free-atom electrostatic energy:        -179.06528755 Ha       -4872.61439012 eV
  | Hartree energy correction     :           0.00000000 Ha           0.00000000 eV
  | van der Waals energy corr.    :           0.00000000 Ha           0.00000000 eV
  | Entropy correction            :           0.00000000 Ha           0.00000000 eV
  | ---------------------------
  | Total energy                  :        -383.07576754 Ha      -10424.02200319 eV
  | Total energy, T -> 0          :        -383.07576754 Ha      -10424.02200319 eV  <-- do not rely on this value for anything but (periodic) metals
  | Electronic free energy        :        -383.07576754 Ha      -10424.02200319 eV

  Derived energy quantities:
  | Kinetic energy                :         379.11631799 Ha       10316.27989912 eV
  | Electrostatic energy          :        -716.64627307 Ha      -19500.93728702 eV
  | Energy correction for multipole
  | error in Hartree potential    :           0.00000000 Ha           0.00000000 eV
  | Sum of eigenvalues per atom                           :        -393.04599032 eV
  | Total energy (T->0) per atom                          :        -694.93480021 eV  <-- do not rely on this value for anything but (periodic) metals
  | Electronic free energy per atom                       :        -694.93480021 eV
  Initialize hartree_potential_storage
  Max. number of atoms included in rho_multipole:           15

  End scf initialization - timings             :  max(cpu_time)    wall_clock(cpu1)
  | Time for scf. initialization               :        2.025 s           2.024 s
  | Boundary condition initialization          :        0.000 s           0.000 s
  | Integration                                :        1.478 s           1.479 s
  | Solution of K.-S. eqns.                    :        0.198 s           0.197 s
  | Grid partitioning                          :        0.133 s           0.132 s
  | Preloading free-atom quantities on grid    :        0.013 s           0.013 s
  | Free-atom superposition energy             :        0.066 s           0.066 s
  | Total energy evaluation                    :        0.000 s           0.001 s
------------------------------------------------------------

------------------------------------------------------------
          Begin self-consistency iteration #    1

  Date     :  20150727, Time     :  123805.491
------------------------------------------------------------
  Evaluating new KS density.
  Integration grid: deviation in total charge (<rho> - N_e) =   7.105427E-15
  Pulay mixing of updated and previous charge densities.

  Evaluating partitioned Hartree potential by multipole expansion.
  | Analytical far-field extrapolation by fixed multipoles:
  | Hartree multipole sum: apparent total charge =  -0.164896E-05
  Summing up the Hartree potential.
  Time summed over all CPUs for potential: real work        2.569 s, elapsed        2.579 s
  | RMS charge density error from multipole expansion :   0.160873E-02

  Integrating Hamiltonian matrix: batch-based integration.
  Time summed over all CPUs for integration: real work        7.591 s, elapsed        7.653 s

  Updating Kohn-Sham eigenvalues, eigenvectors, occupation numbers, and Fermi level.
  Solving generalized eigenproblem
  Updating Kohn-Sham eigenvalues and eigenfunctions.
  Solving real generalised eigenvalue problem by standard LAPACK (fast)
  Determining occupation numbers for Kohn-Sham eigenstates.
  | Chemical potential (Fermi level) in eV                 : -.33306256E+01
  | Error in electron count due to remaining E_F inaccuracy: 0.00000000E+00
  | Maximum occupation number of highest empty state:  0.00E+00

  Writing Kohn-Sham eigenvalues.

  State    Occupation    Eigenvalue [Ha]    Eigenvalue [eV]
      1       2.00000         -18.979096         -516.44749
      2       2.00000         -18.977068         -516.39230
      3       2.00000         -18.970768         -516.22087
      4       2.00000         -18.957101         -515.84895
      5       2.00000         -18.942716         -515.45752
      6       2.00000          -1.070321          -29.12492
      7       2.00000          -1.064304          -28.96119
      8       2.00000          -1.050183          -28.57694
      9       2.00000          -1.025099          -27.89437
     10       2.00000          -1.002240          -27.27234
     11       2.00000          -0.619241          -16.85041
     12       2.00000          -0.601470          -16.36683
     13       2.00000          -0.577780          -15.72220
     14       2.00000          -0.571079          -15.53984
     15       2.00000          -0.535825          -14.58053
     16       2.00000          -0.492119          -13.39123
     17       2.00000          -0.474498          -12.91174
     18       2.00000          -0.467428          -12.71937
     19       2.00000          -0.447446          -12.17563
     20       2.00000          -0.439332          -11.95483
     21       2.00000          -0.403679          -10.98466
     22       2.00000          -0.402031          -10.93981
     23       2.00000          -0.394723          -10.74097
     24       2.00000          -0.383475          -10.43490
     25       2.00000          -0.366721           -9.97899
     26       0.00000          -0.087019           -2.36790
     27       0.00000          -0.064164           -1.74599
     28       0.00000          -0.049040           -1.33445
     29       0.00000          -0.042817           -1.16512
     30       0.00000          -0.022091           -0.60112
     31       0.00000          -0.005906           -0.16072
     32       0.00000           0.037469            1.01957
     33       0.00000           0.046568            1.26717
     34       0.00000           0.059004            1.60559
     35       0.00000           0.063473            1.72719
     36       0.00000           0.076354            2.07770
     37       0.00000           0.083960            2.28468
     38       0.00000           0.093714            2.55009
     39       0.00000           0.099427            2.70554
     40       0.00000           0.106597            2.90064
     41       0.00000           0.108627            2.95590
     42       0.00000           0.117187            3.18883
     43       0.00000           0.126554            3.44372
     44       0.00000           0.135697            3.69251
     45       0.00000           0.142996            3.89113
     46       0.00000           0.147475            4.01300
     47       0.00000           0.163692            4.45428
     48       0.00000           0.168534            4.58605
     49       0.00000           0.176697            4.80816
     50       0.00000           0.181932            4.95062
     51       0.00000           0.210451            5.72667
     52       0.00000           0.248050            6.74977
     53       0.00000           0.258118            7.02374
     54       0.00000           0.262246            7.13608
     55       0.00000           0.269356            7.32955
     56       0.00000           0.284744            7.74828
     57       0.00000           0.294362            8.01000
     58       0.00000           0.312939            8.51551
     59       0.00000           0.314669            8.56259
     60       0.00000           0.318717            8.67272
     61       0.00000           0.348718            9.48911
     62       0.00000           0.349529            9.51118
     63       0.00000           0.371433           10.10720
     64       0.00000           0.377829           10.28124
     65       0.00000           0.392619           10.68372
     66       0.00000           0.402613           10.95564
     67       0.00000           0.406507           11.06161
     68       0.00000           0.427224           11.62537
     69       0.00000           0.431542           11.74285
     70       0.00000           0.445512           12.12301
     71       0.00000           0.450922           12.27021
     72       0.00000           0.464273           12.63352
     73       0.00000           0.486938           13.25026
     74       0.00000           0.510397           13.88862
     75       0.00000           0.530095           14.42463
     76       0.00000           0.545798           14.85191
     77       0.00000           0.576752           15.69421
     78       0.00000           0.586765           15.96670
     79       0.00000           0.605018           16.46338
     80       0.00000           0.630023           17.14379
     81       0.00000           0.638824           17.38328
     82       0.00000           0.687328           18.70316
     83       0.00000           0.706271           19.21860
     84       0.00000           0.729802           19.85893
     85       0.00000           0.751073           20.43773

  Highest occupied state (VBM) at     -9.97899181 eV
  | Occupation number:      2.00000000

  Lowest unoccupied state (CBM) at    -2.36790254 eV
  | Occupation number:      0.00000000

  Overall HOMO-LUMO gap:      7.61108927 eV.

  Total energy components:
  | Sum of eigenvalues            :        -214.43148719 Ha       -5834.97764676 eV
  | XC energy correction          :         -45.78259498 Ha       -1245.80779543 eV
  | XC potential correction       :          58.50776336 Ha        1592.07724509 eV
  | Free-atom electrostatic energy:        -179.06528755 Ha       -4872.61439012 eV
  | Hartree energy correction     :          -2.16825372 Ha         -59.00118570 eV
  | van der Waals energy corr.    :           0.00000000 Ha           0.00000000 eV
  | Entropy correction            :           0.00000000 Ha           0.00000000 eV
  | ---------------------------
  | Total energy                  :        -382.93986008 Ha      -10420.32377292 eV
  | Total energy, T -> 0          :        -382.93986008 Ha      -10420.32377292 eV  <-- do not rely on this value for anything but (periodic) metals
  | Electronic free energy        :        -382.93986008 Ha      -10420.32377292 eV

  Derived energy quantities:
  | Kinetic energy                :         380.51142522 Ha       10354.24269836 eV
  | Electrostatic energy          :        -717.66869032 Ha      -19528.75867585 eV
  | Energy correction for multipole
  | error in Hartree potential    :           0.00002618 Ha           0.00071240 eV
  | Sum of eigenvalues per atom                           :        -388.99850978 eV
  | Total energy (T->0) per atom                          :        -694.68825153 eV  <-- do not rely on this value for anything but (periodic) metals
  | Electronic free energy per atom                       :        -694.68825153 eV

  Self-consistency convergence accuracy:
  | Change of charge density      : 0.6531E+00
  | Change of sum of eigenvalues  : 0.6071E+02 eV
  | Change of total energy        : 0.3698E+01 eV

  End self-consistency iteration #     1       :  max(cpu_time)    wall_clock(cpu1)
  | Time for this iteration                    :        1.992 s           1.992 s
  | Charge density update                      :        0.646 s           0.646 s
  | Density mixing                             :        0.004 s           0.004 s
  | Hartree multipole update                   :        0.005 s           0.005 s
  | Hartree multipole summation                :        0.323 s           0.323 s
  | Integration                                :        0.959 s           0.959 s
  | Solution of K.-S. eqns.                    :        0.054 s           0.054 s
  | Total energy evaluation                    :        0.000 s           0.001 s
------------------------------------------------------------

------------------------------------------------------------
          Begin self-consistency iteration #    2

  Date     :  20150727, Time     :  123807.483
------------------------------------------------------------
  Evaluating new KS density.
  Integration grid: deviation in total charge (<rho> - N_e) =  -2.131628E-14
  Pulay mixing of updated and previous charge densities.

  Evaluating partitioned Hartree potential by multipole expansion.
  | Analytical far-field extrapolation by fixed multipoles:
  | Hartree multipole sum: apparent total charge =  -0.447889E-05
  Summing up the Hartree potential.
  Time summed over all CPUs for potential: real work        2.568 s, elapsed        2.579 s
  | RMS charge density error from multipole expansion :   0.641592E-02

  Integrating Hamiltonian matrix: batch-based integration.
  Time summed over all CPUs for integration: real work        7.576 s, elapsed        7.626 s

  Updating Kohn-Sham eigenvalues, eigenvectors, occupation numbers, and Fermi level.
  Solving generalized eigenproblem
  Updating Kohn-Sham eigenvalues and eigenfunctions.
  Solving real generalised eigenvalue problem by standard LAPACK (fast)
  Determining occupation numbers for Kohn-Sham eigenstates.
  | Chemical potential (Fermi level) in eV                 : -.21466940E+01
  | Error in electron count due to remaining E_F inaccuracy: 0.00000000E+00
  | Maximum occupation number of highest empty state:  0.00E+00

  Highest occupied state (VBM) at     -7.30595467 eV
  | Occupation number:      2.00000000

  Lowest unoccupied state (CBM) at    -1.76322700 eV
  | Occupation number:      0.00000000

  Overall HOMO-LUMO gap:      5.54272767 eV.

  Total energy components:
  | Sum of eigenvalues            :        -209.19407989 Ha       -5692.46054290 eV
  | XC energy correction          :         -46.36238250 Ha       -1261.58461646 eV
  | XC potential correction       :          59.26559284 Ha        1612.69883431 eV
  | Free-atom electrostatic energy:        -179.06528755 Ha       -4872.61439012 eV
  | Hartree energy correction     :          -7.43025364 Ha        -202.18748884 eV
  | van der Waals energy corr.    :           0.00000000 Ha           0.00000000 eV
  | Entropy correction            :           0.00000000 Ha           0.00000000 eV
  | ---------------------------
  | Total energy                  :        -382.78641074 Ha      -10416.14820401 eV
  | Total energy, T -> 0          :        -382.78641074 Ha      -10416.14820401 eV  <-- do not rely on this value for anything but (periodic) metals
  | Electronic free energy        :        -382.78641074 Ha      -10416.14820401 eV

  Derived energy quantities:
  | Kinetic energy                :         383.29364655 Ha       10429.95079260 eV
  | Electrostatic energy          :        -719.71767479 Ha      -19584.51438016 eV
  | Energy correction for multipole
  | error in Hartree potential    :          -0.00076981 Ha          -0.02094753 eV
  | Sum of eigenvalues per atom                           :        -379.49736953 eV
  | Total energy (T->0) per atom                          :        -694.40988027 eV  <-- do not rely on this value for anything but (periodic) metals
  | Electronic free energy per atom                       :        -694.40988027 eV

  Self-consistency convergence accuracy:
  | Change of charge density      : 0.4938E+00
  | Change of sum of eigenvalues  : 0.1425E+03 eV
  | Change of total energy        : 0.4176E+01 eV

  End self-consistency iteration #     2       :  max(cpu_time)    wall_clock(cpu1)
  | Time for this iteration                    :        1.986 s           1.986 s
  | Charge density update                      :        0.643 s           0.643 s
  | Density mixing                             :        0.006 s           0.005 s
  | Hartree multipole update                   :        0.004 s           0.005 s
  | Hartree multipole summation                :        0.323 s           0.323 s
  | Integration                                :        0.955 s           0.955 s
  | Solution of K.-S. eqns.                    :        0.053 s           0.053 s
  | Total energy evaluation                    :        0.000 s           0.000 s
------------------------------------------------------------

------------------------------------------------------------
          Begin self-consistency iteration #    3

  Date     :  20150727, Time     :  123809.469
------------------------------------------------------------
  Evaluating new KS density.
  Integration grid: deviation in total charge (<rho> - N_e) =   7.105427E-15
  Pulay mixing of updated and previous charge densities.

  Evaluating partitioned Hartree potential by multipole expansion.
  | Analytical far-field extrapolation by fixed multipoles:
  | Hartree multipole sum: apparent total charge =  -0.350487E-05
  Summing up the Hartree potential.
  Time summed over all CPUs for potential: real work        2.568 s, elapsed        2.579 s
  | RMS charge density error from multipole expansion :   0.133999E-01

  Integrating Hamiltonian matrix: batch-based integration.
  Time summed over all CPUs for integration: real work        7.572 s, elapsed        7.644 s

  Updating Kohn-Sham eigenvalues, eigenvectors, occupation numbers, and Fermi level.
  Solving generalized eigenproblem
  Updating Kohn-Sham eigenvalues and eigenfunctions.
  Solving real generalised eigenvalue problem by standard LAPACK (fast)
  Determining occupation numbers for Kohn-Sham eigenstates.
  | Chemical potential (Fermi level) in eV                 : -.19331269E+01
  | Error in electron count due to remaining E_F inaccuracy: 0.00000000E+00
  | Maximum occupation number of highest empty state:  0.00E+00

  Highest occupied state (VBM) at     -7.36264732 eV
  | Occupation number:      2.00000000

  Lowest unoccupied state (CBM) at    -1.57605107 eV
  | Occupation number:      0.00000000

  Overall HOMO-LUMO gap:      5.78659625 eV.

  Total energy components:
  | Sum of eigenvalues            :        -209.18335860 Ha       -5692.16880187 eV
  | XC energy correction          :         -46.36379348 Ha       -1261.62301138 eV
  | XC potential correction       :          59.26208199 Ha        1612.60329937 eV
  | Free-atom electrostatic energy:        -179.06528755 Ha       -4872.61439012 eV
  | Hartree energy correction     :          -7.43143594 Ha        -202.21966080 eV
  | van der Waals energy corr.    :           0.00000000 Ha           0.00000000 eV
  | Entropy correction            :           0.00000000 Ha           0.00000000 eV
  | ---------------------------
  | Total energy                  :        -382.78179358 Ha      -10416.02256481 eV
  | Total energy, T -> 0          :        -382.78179358 Ha      -10416.02256481 eV  <-- do not rely on this value for anything but (periodic) metals
  | Electronic free energy        :        -382.78179358 Ha      -10416.02256481 eV

  Derived energy quantities:
  | Kinetic energy                :         381.31773026 Ha       10376.18337470 eV
  | Electrostatic energy          :        -717.73573036 Ha      -19530.58292813 eV
  | Energy correction for multipole
  | error in Hartree potential    :          -0.00597271 Ha          -0.16252559 eV
  | Sum of eigenvalues per atom                           :        -379.47792012 eV
  | Total energy (T->0) per atom                          :        -694.40150432 eV  <-- do not rely on this value for anything but (periodic) metals
  | Electronic free energy per atom                       :        -694.40150432 eV

  Self-consistency convergence accuracy:
  | Change of charge density      : 0.2476E+00
  | Change of sum of eigenvalues  : 0.2917E+00 eV
  | Change of total energy        : 0.1256E+00 eV

  End self-consistency iteration #     3       :  max(cpu_time)    wall_clock(cpu1)
  | Time for this iteration                    :        1.987 s           1.986 s
  | Charge density update                      :        0.640 s           0.640 s
  | Density mixing                             :        0.007 s           0.007 s
  | Hartree multipole update                   :        0.005 s           0.005 s
  | Hartree multipole summation                :        0.323 s           0.323 s
  | Integration                                :        0.958 s           0.957 s
  | Solution of K.-S. eqns.                    :        0.054 s           0.054 s
  | Total energy evaluation                    :        0.000 s           0.000 s
------------------------------------------------------------

------------------------------------------------------------
          Begin self-consistency iteration #    4

  Date     :  20150727, Time     :  123811.456
------------------------------------------------------------
  Evaluating new KS density.
  Integration grid: deviation in total charge (<rho> - N_e) =  -2.131628E-14
  Pulay mixing of updated and previous charge densities.

  Evaluating partitioned Hartree potential by multipole expansion.
  | Analytical far-field extrapolation by fixed multipoles:
  | Hartree multipole sum: apparent total charge =  -0.395804E-05
  Summing up the Hartree potential.
  Time summed over all CPUs for potential: real work        2.567 s, elapsed        2.578 s
  | RMS charge density error from multipole expansion :   0.164315E-01

  Integrating Hamiltonian matrix: batch-based integration.
  Time summed over all CPUs for integration: real work        7.565 s, elapsed        7.665 s

  Updating Kohn-Sham eigenvalues, eigenvectors, occupation numbers, and Fermi level.
  Solving generalized eigenproblem
  Updating Kohn-Sham eigenvalues and eigenfunctions.
  Solving real generalised eigenvalue problem by standard LAPACK (fast)
  Determining occupation numbers for Kohn-Sham eigenstates.
  | Chemical potential (Fermi level) in eV                 : -.15587072E+01
  | Error in electron count due to remaining E_F inaccuracy: 0.00000000E+00
  | Maximum occupation number of highest empty state:  0.00E+00

  Highest occupied state (VBM) at     -6.61479157 eV
  | Occupation number:      2.00000000

  Lowest unoccupied state (CBM) at    -1.39359516 eV
  | Occupation number:      0.00000000

  Overall HOMO-LUMO gap:      5.22119642 eV.

  Total energy components:
  | Sum of eigenvalues            :        -207.86076234 Ha       -5656.17912643 eV
  | XC energy correction          :         -46.52578194 Ha       -1266.03094156 eV
  | XC potential correction       :          59.47284236 Ha        1618.33838064 eV
  | Free-atom electrostatic energy:        -179.06528755 Ha       -4872.61439012 eV
  | Hartree energy correction     :          -8.79459514 Ha        -239.31310975 eV
  | van der Waals energy corr.    :           0.00000000 Ha           0.00000000 eV
  | Entropy correction            :           0.00000000 Ha           0.00000000 eV
  | ---------------------------
  | Total energy                  :        -382.77358461 Ha      -10415.79918722 eV
  | Total energy, T -> 0          :        -382.77358461 Ha      -10415.79918722 eV  <-- do not rely on this value for anything but (periodic) metals
  | Electronic free energy        :        -382.77358461 Ha      -10415.79918722 eV

  Derived energy quantities:
  | Kinetic energy                :         381.49345702 Ha       10380.96514309 eV
  | Electrostatic energy          :        -717.74125968 Ha      -19530.73338874 eV
  | Energy correction for multipole
  | error in Hartree potential    :          -0.00760747 Ha          -0.20700989 eV
  | Sum of eigenvalues per atom                           :        -377.07860843 eV
  | Total energy (T->0) per atom                          :        -694.38661248 eV  <-- do not rely on this value for anything but (periodic) metals
  | Electronic free energy per atom                       :        -694.38661248 eV

  Self-consistency convergence accuracy:
  | Change of charge density      : 0.1222E+00
  | Change of sum of eigenvalues  : 0.3599E+02 eV
  | Change of total energy        : 0.2234E+00 eV

  End self-consistency iteration #     4       :  max(cpu_time)    wall_clock(cpu1)
  | Time for this iteration                    :        1.991 s           1.990 s
  | Charge density update                      :        0.640 s           0.639 s
  | Density mixing                             :        0.009 s           0.009 s
  | Hartree multipole update                   :        0.004 s           0.005 s
  | Hartree multipole summation                :        0.323 s           0.323 s
  | Integration                                :        0.960 s           0.959 s
  | Solution of K.-S. eqns.                    :        0.053 s           0.054 s
  | Total energy evaluation                    :        0.000 s           0.000 s
------------------------------------------------------------

------------------------------------------------------------
          Begin self-consistency iteration #    5

  Date     :  20150727, Time     :  123813.446
------------------------------------------------------------
  Evaluating new KS density.
  Integration grid: deviation in total charge (<rho> - N_e) =  -1.421085E-14
  Pulay mixing of updated and previous charge densities.

  Evaluating partitioned Hartree potential by multipole expansion.
  | Analytical far-field extrapolation by fixed multipoles:
  | Hartree multipole sum: apparent total charge =  -0.391490E-05
  Summing up the Hartree potential.
  Time summed over all CPUs for potential: real work        2.567 s, elapsed        2.578 s
  | RMS charge density error from multipole expansion :   0.173445E-01

  Integrating Hamiltonian matrix: batch-based integration.
  Time summed over all CPUs for integration: real work        7.566 s, elapsed        7.629 s

  Updating Kohn-Sham eigenvalues, eigenvectors, occupation numbers, and Fermi level.
  Solving generalized eigenproblem
  Updating Kohn-Sham eigenvalues and eigenfunctions.
  Solving real generalised eigenvalue problem by standard LAPACK (fast)
  Determining occupation numbers for Kohn-Sham eigenstates.
  | Chemical potential (Fermi level) in eV                 : -.14669491E+01
  | Error in electron count due to remaining E_F inaccuracy: 0.00000000E+00
  | Maximum occupation number of highest empty state:  0.00E+00

  Highest occupied state (VBM) at     -6.24854763 eV
  | Occupation number:      2.00000000

  Lowest unoccupied state (CBM) at    -1.36658126 eV
  | Occupation number:      0.00000000

  Overall HOMO-LUMO gap:      4.88196637 eV.

  Total energy components:
  | Sum of eigenvalues            :        -207.68865261 Ha       -5651.49578232 eV
  | XC energy correction          :         -46.55174280 Ha       -1266.73737254 eV
  | XC potential correction       :          59.50622627 Ha        1619.24680318 eV
  | Free-atom electrostatic energy:        -179.06528755 Ha       -4872.61439012 eV
  | Hartree energy correction     :          -8.97368477 Ha        -244.18638654 eV
  | van der Waals energy corr.    :           0.00000000 Ha           0.00000000 eV
  | Entropy correction            :           0.00000000 Ha           0.00000000 eV
  | ---------------------------
  | Total energy                  :        -382.77314145 Ha      -10415.78712834 eV
  | Total energy, T -> 0          :        -382.77314145 Ha      -10415.78712834 eV  <-- do not rely on this value for anything but (periodic) metals
  | Electronic free energy        :        -382.77314145 Ha      -10415.78712834 eV

  Derived energy quantities:
  | Kinetic energy                :         381.47924821 Ha       10380.57850174 eV
  | Electrostatic energy          :        -717.70064686 Ha      -19529.62825755 eV
  | Energy correction for multipole
  | error in Hartree potential    :          -0.00826971 Ha          -0.22503014 eV
  | Sum of eigenvalues per atom                           :        -376.76638549 eV
  | Total energy (T->0) per atom                          :        -694.38580856 eV  <-- do not rely on this value for anything but (periodic) metals
  | Electronic free energy per atom                       :        -694.38580856 eV

  Self-consistency convergence accuracy:
  | Change of charge density      : 0.3836E-01
  | Change of sum of eigenvalues  : 0.4683E+01 eV
  | Change of total energy        : 0.1206E-01 eV

  End self-consistency iteration #     5       :  max(cpu_time)    wall_clock(cpu1)
  | Time for this iteration                    :        1.991 s           1.991 s
  | Charge density update                      :        0.644 s           0.643 s
  | Density mixing                             :        0.009 s           0.010 s
  | Hartree multipole update                   :        0.005 s           0.005 s
  | Hartree multipole summation                :        0.323 s           0.323 s
  | Integration                                :        0.956 s           0.955 s
  | Solution of K.-S. eqns.                    :        0.054 s           0.054 s
  | Total energy evaluation                    :        0.000 s           0.000 s
------------------------------------------------------------

------------------------------------------------------------
          Begin self-consistency iteration #    6

  Date     :  20150727, Time     :  123815.437
------------------------------------------------------------
  Evaluating new KS density.
  Integration grid: deviation in total charge (<rho> - N_e) =   2.131628E-14
  Pulay mixing of updated and previous charge densities.

  Evaluating partitioned Hartree potential by multipole expansion.
  | Analytical far-field extrapolation by fixed multipoles:
  | Hartree multipole sum: apparent total charge =  -0.391687E-05
  Summing up the Hartree potential.
  Time summed over all CPUs for potential: real work        2.567 s, elapsed        2.578 s
  | RMS charge density error from multipole expansion :   0.176278E-01

  Integrating Hamiltonian matrix: batch-based integration.
  Time summed over all CPUs for integration: real work        7.560 s, elapsed        7.627 s

  Updating Kohn-Sham eigenvalues, eigenvectors, occupation numbers, and Fermi level.
  Solving generalized eigenproblem
  Updating Kohn-Sham eigenvalues and eigenfunctions.
  Solving real generalised eigenvalue problem by standard LAPACK (fast)
  Determining occupation numbers for Kohn-Sham eigenstates.
  | Chemical potential (Fermi level) in eV                 : -.14471722E+01
  | Error in electron count due to remaining E_F inaccuracy: 0.00000000E+00
  | Maximum occupation number of highest empty state:  0.00E+00

  Highest occupied state (VBM) at     -6.23074349 eV
  | Occupation number:      2.00000000

  Lowest unoccupied state (CBM) at    -1.35299474 eV
  | Occupation number:      0.00000000

  Overall HOMO-LUMO gap:      4.87774875 eV.

  Total energy components:
  | Sum of eigenvalues            :        -207.61857151 Ha       -5649.58877858 eV
  | XC energy correction          :         -46.56108019 Ha       -1266.99145588 eV
  | XC potential correction       :          59.51826036 Ha        1619.57426740 eV
  | Free-atom electrostatic energy:        -179.06528755 Ha       -4872.61439012 eV
  | Hartree energy correction     :          -9.04653457 Ha        -246.16873062 eV
  | van der Waals energy corr.    :           0.00000000 Ha           0.00000000 eV
  | Entropy correction            :           0.00000000 Ha           0.00000000 eV
  | ---------------------------
  | Total energy                  :        -382.77321346 Ha      -10415.78908780 eV
  | Total energy, T -> 0          :        -382.77321346 Ha      -10415.78908780 eV  <-- do not rely on this value for anything but (periodic) metals
  | Electronic free energy        :        -382.77321346 Ha      -10415.78908780 eV

  Derived energy quantities:
  | Kinetic energy                :         381.47674708 Ha       10380.51044254 eV
  | Electrostatic energy          :        -717.68888035 Ha      -19529.30807446 eV
  | Energy correction for multipole
  | error in Hartree potential    :          -0.00846150 Ha          -0.23024901 eV
  | Sum of eigenvalues per atom                           :        -376.63925191 eV
  | Total energy (T->0) per atom                          :        -694.38593919 eV  <-- do not rely on this value for anything but (periodic) metals
  | Electronic free energy per atom                       :        -694.38593919 eV

  Self-consistency convergence accuracy:
  | Change of charge density      : 0.8969E-02
  | Change of sum of eigenvalues  : 0.1907E+01 eV
  | Change of total energy        : -.1959E-02 eV

  End self-consistency iteration #     6       :  max(cpu_time)    wall_clock(cpu1)
  | Time for this iteration                    :        1.987 s           1.986 s
  | Charge density update                      :        0.638 s           0.638 s
  | Density mixing                             :        0.011 s           0.011 s
  | Hartree multipole update                   :        0.004 s           0.005 s
  | Hartree multipole summation                :        0.323 s           0.323 s
  | Integration                                :        0.956 s           0.955 s
  | Solution of K.-S. eqns.                    :        0.053 s           0.054 s
  | Total energy evaluation                    :        0.001 s           0.000 s
------------------------------------------------------------

------------------------------------------------------------
          Begin self-consistency iteration #    7

  Date     :  20150727, Time     :  123817.423
------------------------------------------------------------
  Evaluating new KS density.
  Integration grid: deviation in total charge (<rho> - N_e) =  -4.973799E-14
  Pulay mixing of updated and previous charge densities.

  Evaluating partitioned Hartree potential by multipole expansion.
  | Analytical far-field extrapolation by fixed multipoles:
  | Hartree multipole sum: apparent total charge =  -0.375253E-05
  Summing up the Hartree potential.
  Time summed over all CPUs for potential: real work        2.567 s, elapsed        2.578 s
  | RMS charge density error from multipole expansion :   0.176204E-01

  Integrating Hamiltonian matrix: batch-based integration.
  Time summed over all CPUs for integration: real work        7.560 s, elapsed        7.622 s

  Updating Kohn-Sham eigenvalues, eigenvectors, occupation numbers, and Fermi level.
  Solving generalized eigenproblem
  Updating Kohn-Sham eigenvalues and eigenfunctions.
  Solving real generalised eigenvalue problem by standard LAPACK (fast)
  Determining occupation numbers for Kohn-Sham eigenstates.
  | Chemical potential (Fermi level) in eV                 : -.14860811E+01
  | Error in electron count due to remaining E_F inaccuracy: 0.00000000E+00
  | Maximum occupation number of highest empty state:  0.00E+00

  Highest occupied state (VBM) at     -6.30012099 eV
  | Occupation number:      2.00000000

  Lowest unoccupied state (CBM) at    -1.37776692 eV
  | Occupation number:      0.00000000

  Overall HOMO-LUMO gap:      4.92235407 eV.

  Total energy components:
  | Sum of eigenvalues            :        -207.75957123 Ha       -5653.42557629 eV
  | XC energy correction          :         -46.54572510 Ha       -1266.57362251 eV
  | XC potential correction       :          59.49775474 Ha        1619.01628111 eV
  | Free-atom electrostatic energy:        -179.06528755 Ha       -4872.61439012 eV
  | Hartree energy correction     :          -8.90029908 Ha        -242.18946042 eV
  | van der Waals energy corr.    :           0.00000000 Ha           0.00000000 eV
  | Entropy correction            :           0.00000000 Ha           0.00000000 eV
  | ---------------------------
  | Total energy                  :        -382.77312822 Ha      -10415.78676823 eV
  | Total energy, T -> 0          :        -382.77312822 Ha      -10415.78676823 eV  <-- do not rely on this value for anything but (periodic) metals
  | Electronic free energy        :        -382.77312822 Ha      -10415.78676823 eV

  Derived energy quantities:
  | Kinetic energy                :         381.51656711 Ha       10381.59400064 eV
  | Electrostatic energy          :        -717.74397023 Ha      -19530.80714637 eV
  | Energy correction for multipole
  | error in Hartree potential    :          -0.00859337 Ha          -0.23383739 eV
  | Sum of eigenvalues per atom                           :        -376.89503842 eV
  | Total energy (T->0) per atom                          :        -694.38578455 eV  <-- do not rely on this value for anything but (periodic) metals
  | Electronic free energy per atom                       :        -694.38578455 eV

  Self-consistency convergence accuracy:
  | Change of charge density      : 0.9757E-02
  | Change of sum of eigenvalues  : -.3837E+01 eV
  | Change of total energy        : 0.2320E-02 eV

  End self-consistency iteration #     7       :  max(cpu_time)    wall_clock(cpu1)
  | Time for this iteration                    :        1.987 s           1.987 s
  | Charge density update                      :        0.638 s           0.638 s
  | Density mixing                             :        0.013 s           0.012 s
  | Hartree multipole update                   :        0.005 s           0.005 s
  | Hartree multipole summation                :        0.323 s           0.323 s
  | Integration                                :        0.954 s           0.954 s
  | Solution of K.-S. eqns.                    :        0.054 s           0.054 s
  | Total energy evaluation                    :        0.000 s           0.000 s
------------------------------------------------------------

------------------------------------------------------------
          Begin self-consistency iteration #    8

  Date     :  20150727, Time     :  123819.410
------------------------------------------------------------
  Evaluating new KS density.
  Integration grid: deviation in total charge (<rho> - N_e) =   2.131628E-14
  Pulay mixing of updated and previous charge densities.

  Evaluating partitioned Hartree potential by multipole expansion.
  | Analytical far-field extrapolation by fixed multipoles:
  | Hartree multipole sum: apparent total charge =  -0.374607E-05
  Summing up the Hartree potential.
  Time summed over all CPUs for potential: real work        2.567 s, elapsed        2.578 s
  | RMS charge density error from multipole expansion :   0.176595E-01

  Integrating Hamiltonian matrix: batch-based integration.
  Time summed over all CPUs for integration: real work        7.560 s, elapsed        7.631 s

  Updating Kohn-Sham eigenvalues, eigenvectors, occupation numbers, and Fermi level.
  Solving generalized eigenproblem
  Updating Kohn-Sham eigenvalues and eigenfunctions.
  Solving real generalised eigenvalue problem by standard LAPACK (fast)
  Determining occupation numbers for Kohn-Sham eigenstates.
  | Chemical potential (Fermi level) in eV                 : -.14833704E+01
  | Error in electron count due to remaining E_F inaccuracy: 0.00000000E+00
  | Maximum occupation number of highest empty state:  0.00E+00

  Highest occupied state (VBM) at     -6.29029055 eV
  | Occupation number:      2.00000000

  Lowest unoccupied state (CBM) at    -1.37612631 eV
  | Occupation number:      0.00000000

  Overall HOMO-LUMO gap:      4.91416424 eV.

  Total energy components:
  | Sum of eigenvalues            :        -207.75121603 Ha       -5653.19821984 eV
  | XC energy correction          :         -46.54674295 Ha       -1266.60131955 eV
  | XC potential correction       :          59.49905696 Ha        1619.05171636 eV
  | Free-atom electrostatic energy:        -179.06528755 Ha       -4872.61439012 eV
  | Hartree energy correction     :          -8.90893958 Ha        -242.42458038 eV
  | van der Waals energy corr.    :           0.00000000 Ha           0.00000000 eV
  | Entropy correction            :           0.00000000 Ha           0.00000000 eV
  | ---------------------------
  | Total energy                  :        -382.77312915 Ha      -10415.78679353 eV
  | Total energy, T -> 0          :        -382.77312915 Ha      -10415.78679353 eV  <-- do not rely on this value for anything but (periodic) metals
  | Electronic free energy        :        -382.77312915 Ha      -10415.78679353 eV

  Derived energy quantities:
  | Kinetic energy                :         381.51727014 Ha       10381.61313104 eV
  | Electrostatic energy          :        -717.74365634 Ha      -19530.79860503 eV
  | Energy correction for multipole
  | error in Hartree potential    :          -0.00862544 Ha          -0.23471013 eV
  | Sum of eigenvalues per atom                           :        -376.87988132 eV
  | Total energy (T->0) per atom                          :        -694.38578624 eV  <-- do not rely on this value for anything but (periodic) metals
  | Electronic free energy per atom                       :        -694.38578624 eV

  Self-consistency convergence accuracy:
  | Change of charge density      : 0.1456E-02
  | Change of sum of eigenvalues  : 0.2274E+00 eV
  | Change of total energy        : -.2530E-04 eV

  End self-consistency iteration #     8       :  max(cpu_time)    wall_clock(cpu1)
  | Time for this iteration                    :        1.990 s           1.990 s
  | Charge density update                      :        0.639 s           0.638 s
  | Density mixing                             :        0.013 s           0.014 s
  | Hartree multipole update                   :        0.005 s           0.005 s
  | Hartree multipole summation                :        0.323 s           0.323 s
  | Integration                                :        0.956 s           0.956 s
  | Solution of K.-S. eqns.                    :        0.054 s           0.053 s
  | Total energy evaluation                    :        0.000 s           0.000 s
------------------------------------------------------------

------------------------------------------------------------
          Begin self-consistency iteration #    9

  Date     :  20150727, Time     :  123821.400
------------------------------------------------------------
  Evaluating new KS density.
  Integration grid: deviation in total charge (<rho> - N_e) =   2.842171E-14
  Pulay mixing of updated and previous charge densities.

  Evaluating partitioned Hartree potential by multipole expansion.
  | Analytical far-field extrapolation by fixed multipoles:
  | Hartree multipole sum: apparent total charge =  -0.373666E-05
  Summing up the Hartree potential.
  Time summed over all CPUs for potential: real work        2.567 s, elapsed        2.578 s
  | RMS charge density error from multipole expansion :   0.176593E-01

  Integrating Hamiltonian matrix: batch-based integration.
  Time summed over all CPUs for integration: real work        7.557 s, elapsed        7.607 s

  Updating Kohn-Sham eigenvalues, eigenvectors, occupation numbers, and Fermi level.
  Solving generalized eigenproblem
  Updating Kohn-Sham eigenvalues and eigenfunctions.
  Solving real generalised eigenvalue problem by standard LAPACK (fast)
  Determining occupation numbers for Kohn-Sham eigenstates.
  | Chemical potential (Fermi level) in eV                 : -.14848567E+01
  | Error in electron count due to remaining E_F inaccuracy: 0.00000000E+00
  | Maximum occupation number of highest empty state:  0.00E+00

  Highest occupied state (VBM) at     -6.29673258 eV
  | Occupation number:      2.00000000

  Lowest unoccupied state (CBM) at    -1.37653095 eV
  | Occupation number:      0.00000000

  Overall HOMO-LUMO gap:      4.92020163 eV.

  Total energy components:
  | Sum of eigenvalues            :        -207.75265379 Ha       -5653.23734322 eV
  | XC energy correction          :         -46.54645392 Ha       -1266.59345480 eV
  | XC potential correction       :          59.49865948 Ha        1619.04090031 eV
  | Free-atom electrostatic energy:        -179.06528755 Ha       -4872.61439012 eV
  | Hartree energy correction     :          -8.90739198 Ha        -242.38246811 eV
  | van der Waals energy corr.    :           0.00000000 Ha           0.00000000 eV
  | Entropy correction            :           0.00000000 Ha           0.00000000 eV
  | ---------------------------
  | Total energy                  :        -382.77312777 Ha      -10415.78675594 eV
  | Total energy, T -> 0          :        -382.77312777 Ha      -10415.78675594 eV  <-- do not rely on this value for anything but (periodic) metals
  | Electronic free energy        :        -382.77312777 Ha      -10415.78675594 eV

  Derived energy quantities:
  | Kinetic energy                :         381.52295116 Ha       10381.76771957 eV
  | Electrostatic energy          :        -717.74962500 Ha      -19530.96102071 eV
  | Energy correction for multipole
[...]
   ----------------------------------------------------------------
   Total forces(   4)            : -.473322E+00 0.603156E+00 0.229128E+01
  atom #    5
   Hellmann-Feynman + Multipole  : -.324231E+00 0.178143E+00 -.237235E+01
   Pulay + GGA                   : 0.930842E-02 0.951595E-03 0.126816E+00
   Van der Waals               : -.586642E-03 0.255085E-02 -.385014E-02
   ----------------------------------------------------------------
   Total forces(   5)            : -.315509E+00 0.181645E+00 -.224938E+01
  atom #    6
   Hellmann-Feynman + Multipole  : 0.937731E+00 -.117234E+01 0.253325E+00
   Pulay + GGA                   : -.507301E-01 0.676177E-01 0.119742E-01
   Van der Waals               : -.963103E-03 -.331942E-03 -.141021E-02
   ----------------------------------------------------------------
   Total forces(   6)            : 0.886038E+00 -.110505E+01 0.263889E+00
  atom #    7
   Hellmann-Feynman + Multipole  : -.844208E+00 -.459175E+01 -.142008E+02
   Pulay + GGA                   : 0.244146E+01 0.554862E+01 0.118171E+02
   Van der Waals               : -.301428E-02 -.262107E-02 -.299637E-02
   ----------------------------------------------------------------
   Total forces(   7)            : 0.159423E+01 0.954244E+00 -.238665E+01
  atom #    8
   Hellmann-Feynman + Multipole  : -.463339E+00 -.333189E+00 0.201136E+00
   Pulay + GGA                   : 0.984998E-01 0.566656E-01 0.478569E-01
   Van der Waals               : -.542073E-02 -.946583E-03 0.773020E-03
   ----------------------------------------------------------------
   Total forces(   8)            : -.370260E+00 -.277470E+00 0.249766E+00
  atom #    9
   Hellmann-Feynman + Multipole  : -.100931E+01 -.606927E+00 0.186106E+01
   Pulay + GGA                   : -.373336E-01 -.175844E-01 0.681867E-01
   Van der Waals               : -.796391E-03 -.239165E-02 -.227572E-02
   ----------------------------------------------------------------
   Total forces(   9)            : -.104744E+01 -.626903E+00 0.192697E+01
  atom #   10
   Hellmann-Feynman + Multipole  : -.117995E+02 -.533601E+01 -.149422E+01
   Pulay + GGA                   : 0.124013E+02 0.717850E+01 0.652030E+00
   Van der Waals               : -.194080E-02 -.393120E-02 -.100011E-02
   ----------------------------------------------------------------
   Total forces(  10)            : 0.599867E+00 0.183855E+01 -.843185E+00
  atom #   11
   Hellmann-Feynman + Multipole  : 0.835960E-01 -.420856E+00 0.264913E+00
   Pulay + GGA                   : 0.846419E-01 -.285390E-01 0.143984E-01
   Van der Waals               : -.178746E-02 -.445691E-02 -.164074E-02
   ----------------------------------------------------------------
   Total forces(  11)            : 0.166450E+00 -.453852E+00 0.277671E+00
  atom #   12
   Hellmann-Feynman + Multipole  : -.829146E+00 -.150336E+01 0.714191E+00
   Pulay + GGA                   : 0.429462E-01 0.986329E-01 -.661396E-01
   Van der Waals               : 0.221906E-02 -.368754E-02 0.267424E-02
   ----------------------------------------------------------------
   Total forces(  12)            : -.783981E+00 -.140842E+01 0.650726E+00
  atom #   13
   Hellmann-Feynman + Multipole  : -.165213E+01 -.126074E+02 -.704998E+00
   Pulay + GGA                   : 0.223881E+01 0.130606E+02 -.606654E+00
   Van der Waals               : 0.168044E-02 -.161311E-02 0.115056E-02
   ----------------------------------------------------------------
   Total forces(  13)            : 0.588362E+00 0.451578E+00 -.131050E+01
  atom #   14
   Hellmann-Feynman + Multipole  : -.276396E+00 0.412522E+00 0.340960E+00
   Pulay + GGA                   : -.799085E-01 0.859231E-01 0.726530E-01
   Van der Waals               : 0.473220E-02 -.219730E-02 -.269019E-02
   ----------------------------------------------------------------
   Total forces(  14)            : -.351572E+00 0.496248E+00 0.410923E+00
  atom #   15
   Hellmann-Feynman + Multipole  : -.518853E+00 -.767115E+00 0.751771E+00
   Pulay + GGA                   : 0.295484E-01 0.703359E-01 -.670363E-01
   Van der Waals               : -.976876E-04 -.812891E-03 0.502033E-03
   ----------------------------------------------------------------
   Total forces(  15)            : -.489402E+00 -.697592E+00 0.685236E+00
  Timings for vdw_correction_hirshfeld (Tkatchenko-Scheffler 2009):
  | CPU time:        5.352 s, Wall clock time:        5.352 s.
  Removing unitary transformations (pure translations, rotations) from forces on atoms.
  Atomic forces before filtering:
  | Net force on center of mass :  0.930887E-02 0.311876E-02 0.107481E-02 eV/A
  | Net torque on center of mass:  -.148893E-01 -.115560E-02 -.119029E-02 eV
  Atomic forces after filtering:
  | Net force on center of mass :  -.892031E-16 0.151645E-14 0.267609E-15 eV/A
  | Net torque on center of mass:  0.498005E-14 -.320989E-14 -.755268E-15 eV
 
  Energy and forces in a compact form:
  | Total energy uncorrected      :         -0.104158604098640E+05 eV
  | Total energy corrected        :         -0.104158604098640E+05 eV  <-- do not rely on this value for anything but (periodic) metals
  | Electronic free energy        :         -0.104158604098640E+05 eV
  Total atomic forces (unitary forces cleaned) [eV/Ang]:
  |   1         -0.230095888987206E+00          0.363660763907769E+01         -0.141259984088242E+01
  |   2          0.228697027757068E+01         -0.339938220568885E+01          0.156667213806521E+01
  |   3         -0.205285155713370E+01         -0.189545555707323E+00         -0.121502736516593E+00
  |   4         -0.473935788958827E+00          0.602560233221019E+00          0.229103185026754E+01
  |   5         -0.316122540406956E+00          0.180830111697159E+00         -0.224964414651996E+01
  |   6          0.885418904661705E+00         -0.110562456271491E+01          0.263799679843194E+00
  |   7          0.159361416403676E+01          0.954036654358990E+00         -0.238671937249789E+01
  |   8         -0.370884005660019E+00         -0.277745006949055E+00          0.249810707326426E+00
  |   9         -0.104805692372466E+01         -0.627266699834287E+00          0.192684410773013E+01
  |  10          0.599236026316442E+00          0.183862704180771E+01         -0.842947446862020E+00
  |  11          0.165822457401622E+00         -0.453845462052635E+00          0.277825468229532E+00
  |  12         -0.784617720190237E+00         -0.140824941129228E+01          0.651149308639119E+00
  |  13          0.587736323589927E+00          0.451144476680083E+00         -0.131037779794712E+01
  |  14         -0.352202076694079E+00          0.495708018978457E+00          0.411196270464842E+00
  |  15         -0.490031651821452E+00         -0.697855271581773E+00          0.685461810660015E+00
 
  ------------------------------------ 
  Start decomposition of the XC Energy 
  ------------------------------------ 
  Hartree-Fock part   :          0.000000000 Ha              0.000000000 eV
  ------------------------------------ 
  X Energy            :        -44.912161652 Ha          -1222.122099437 eV
  C Energy GGA        :         -1.634129195 Ha            -44.466917840 eV
  Total XC Energy     :        -46.546290847 Ha          -1266.589017277 eV
  LDA X and C from self-consistent density 
  X Energy LDA        :        -40.471623788 Ha          -1101.288916238 eV
  C Energy LDA        :         -3.297593255 Ha            -89.732077973 eV
  ------------------------------------ 
  End decomposition of the XC Energy 
  ------------------------------------ 
  Performing Hirshfeld analysis of fragment charges and moments.
  ----------------------------------------------------------------------
  | Atom     1: O
  |   Hirshfeld charge        :     -0.29448054
  |   Free atom volume        :     23.95238533
  |   Hirshfeld volume        :     22.78373635
  |   Hirshfeld dipole vector :      0.02908566       0.04934607      -0.00293662
  |   Hirshfeld dipole moment :      0.05735533
  |   Hirshfeld second moments:      0.04940488      -0.02559434       0.02626753
  |                                 -0.02559434      -0.01116998      -0.02788890
  |                                  0.02626753      -0.02788890      -0.06584917
  ----------------------------------------------------------------------
  | Atom     2: H
  |   Hirshfeld charge        :      0.14709543
  |   Free atom volume        :     10.44207651
  |   Hirshfeld volume        :      7.00165634
  |   Hirshfeld dipole vector :     -0.06432717       0.08867047      -0.03904618
  |   Hirshfeld dipole moment :      0.11629721
  |   Hirshfeld second moments:      0.12596056       0.00528002       0.00400340
  |                                  0.00528002       0.07826735      -0.00307262
  |                                  0.00400340      -0.00307262       0.09192617
  ----------------------------------------------------------------------
  | Atom     3: H
  |   Hirshfeld charge        :      0.13519572
  |   Free atom volume        :     10.44207651
  |   Hirshfeld volume        :      7.08015010
  |   Hirshfeld dipole vector :      0.11646664       0.01837271       0.00836696
  |   Hirshfeld dipole moment :      0.11820339
  |   Hirshfeld second moments:      0.10065394      -0.01897121      -0.00000640
  |                                 -0.01897121       0.10271593      -0.01568033
  |                                 -0.00000640      -0.01568033       0.08696003
  ----------------------------------------------------------------------
  | Atom     4: O
  |   Hirshfeld charge        :     -0.25976875
  |   Free atom volume        :     23.95238533
  |   Hirshfeld volume        :     21.52405624
  |   Hirshfeld dipole vector :      0.00672987       0.03667031       0.00378721
  |   Hirshfeld dipole moment :      0.03747461
  |   Hirshfeld second moments:      0.03019638      -0.02532183       0.00299573
  |                                 -0.02532183      -0.00559497      -0.02322528
  |                                  0.00299573      -0.02322528       0.07006851
  ----------------------------------------------------------------------
  | Atom     5: H
  |   Hirshfeld charge        :      0.14332653
  |   Free atom volume        :     10.44207651
  |   Hirshfeld volume        :      6.22511155
  |   Hirshfeld dipole vector :      0.01918256      -0.01063797       0.11757913
  |   Hirshfeld dipole moment :      0.11960764
  |   Hirshfeld second moments:      0.12050710      -0.01225630      -0.00248263
  |                                 -0.01225630       0.11120486      -0.00625763
  |                                 -0.00248263      -0.00625763       0.11175036
  ----------------------------------------------------------------------
  | Atom     6: H
  |   Hirshfeld charge        :      0.09065620
  |   Free atom volume        :     10.44207651
  |   Hirshfeld volume        :      7.75101553
  |   Hirshfeld dipole vector :     -0.02497414       0.02905066       0.00348658
  |   Hirshfeld dipole moment :      0.03846823
  |   Hirshfeld second moments:      0.05832262       0.02208732      -0.01837181
  |                                  0.02208732       0.05051296       0.01109203
  |                                 -0.01837181       0.01109203       0.10249652
  ----------------------------------------------------------------------
  | Atom     7: O
  |   Hirshfeld charge        :     -0.27039683
  |   Free atom volume        :     23.95238533
  |   Hirshfeld volume        :     21.10122698
  |   Hirshfeld dipole vector :     -0.01721994       0.02238178       0.03592322
  |   Hirshfeld dipole moment :      0.04569407
  |   Hirshfeld second moments:      0.06721477       0.03614719       0.01268535
  |                                  0.03614719       0.02735102      -0.01236319
  |                                  0.01268535      -0.01236319       0.03359600
  ----------------------------------------------------------------------
  | Atom     8: H
  |   Hirshfeld charge        :      0.14954542
  |   Free atom volume        :     10.44207651
  |   Hirshfeld volume        :      6.08652697
  |   Hirshfeld dipole vector :      0.09473731       0.06735624       0.03631057
  |   Hirshfeld dipole moment :      0.12178045
  |   Hirshfeld second moments:      0.12219153       0.00638628      -0.00447208
  |                                  0.00638628       0.10982128      -0.00933584
  |                                 -0.00447208      -0.00933584       0.12442547
  ----------------------------------------------------------------------
  | Atom     9: H
  |   Hirshfeld charge        :      0.09265817
  |   Free atom volume        :     10.44207651
  |   Hirshfeld volume        :      7.72968126
  |   Hirshfeld dipole vector :     -0.02130204      -0.01089597       0.03018909
  |   Hirshfeld dipole moment :      0.03852117
  |   Hirshfeld second moments:      0.06944720      -0.00600376       0.03754440
  |                                 -0.00600376       0.08013387       0.01152918
  |                                  0.03754440       0.01152918       0.06710760
  ----------------------------------------------------------------------
  | Atom    10: O
  |   Hirshfeld charge        :     -0.24940217
  |   Free atom volume        :     23.95238533
  |   Hirshfeld volume        :     21.03903085
  |   Hirshfeld dipole vector :      0.02345912       0.00844343       0.02525700
  |   Hirshfeld dipole moment :      0.03548997
  |   Hirshfeld second moments:      0.04368154      -0.00746589      -0.01177345
  |                                 -0.00746589       0.06450286      -0.04049712
  |                                 -0.01177345      -0.04049712       0.02404081
  ----------------------------------------------------------------------
  | Atom    11: H
  |   Hirshfeld charge        :      0.10715520
  |   Free atom volume        :     10.44207651
  |   Hirshfeld volume        :      7.41847780
  |   Hirshfeld dipole vector :      0.04802986      -0.01494378       0.00921183
  |   Hirshfeld dipole moment :      0.05113748
  |   Hirshfeld second moments:      0.06839950       0.02888805      -0.02633254
  |                                  0.02888805       0.09340095       0.00350701
  |                                 -0.02633254       0.00350701       0.08082930
  ----------------------------------------------------------------------
  | Atom    12: H
  |   Hirshfeld charge        :      0.15338081
  |   Free atom volume        :     10.44207651
  |   Hirshfeld volume        :      5.96489000
  |   Hirshfeld dipole vector :      0.03713299       0.10301695      -0.05049209
  |   Hirshfeld dipole moment :      0.12058525
  |   Hirshfeld second moments:      0.13058901      -0.00867397       0.00118289
  |                                 -0.00867397       0.11700722      -0.00692659
  |                                  0.00118289      -0.00692659       0.11590435
  ----------------------------------------------------------------------
  | Atom    13: O
  |   Hirshfeld charge        :     -0.22081808
  |   Free atom volume        :     23.95238533
  |   Hirshfeld volume        :     20.69523584
  |   Hirshfeld dipole vector :      0.02420529       0.01586473       0.01033823
  |   Hirshfeld dipole moment :      0.03073214
  |   Hirshfeld second moments:      0.04485494      -0.02894823      -0.03319275
  |                                 -0.02894823       0.06054168      -0.00268913
  |                                 -0.03319275      -0.00268913       0.07174200
  ----------------------------------------------------------------------
  | Atom    14: H
  |   Hirshfeld charge        :      0.15636235
  |   Free atom volume        :     10.44207651
  |   Hirshfeld volume        :      5.84081031
  |   Hirshfeld dipole vector :     -0.05978179       0.08358627       0.06506831
  |   Hirshfeld dipole moment :      0.12163228
  |   Hirshfeld second moments:      0.12148697      -0.00200524      -0.00835021
  |                                 -0.00200524       0.12417334      -0.01121867
  |                                 -0.00835021      -0.01121867       0.13092896
  ----------------------------------------------------------------------
  | Atom    15: H
  |   Hirshfeld charge        :      0.11938383
  |   Free atom volume        :     10.44207651
  |   Hirshfeld volume        :      7.37077439
  |   Hirshfeld dipole vector :      0.01699215       0.03723578      -0.03178175
  |   Hirshfeld dipole moment :      0.05182003
  |   Hirshfeld second moments:      0.07927538      -0.01964805       0.02133428
  |                                 -0.01964805       0.10829995       0.01269336
  |                                  0.02133428       0.01269336       0.06108091
  ----------------------------------------------------------------------


------------------------------------------------------------------------------
  Final output of selected total energy values:

  The following output summarizes some interesting total energy values
  at the end of a run (AFTER all relaxation, molecular dynamics, etc.).

  | Total energy of the DFT / Hartree-Fock s.c.f. calculation      :         -10415.860409864 eV
  | Final zero-broadening corrected energy (caution - metals only) :         -10415.860409864 eV
  | For reference only, the value of 1 Hartree used in FHI-aims is :             27.211384500 eV

  Before relying on these values, please be sure to understand exactly which
  total energy value is referred to by a given number. Different objects may
  all carry the same name 'total energy'. Definitions:

  Total energy of the DFT / Hartree-Fock s.c.f. calculation:
  | Note that this energy does not include ANY quantities calculated after the
  | s.c.f. cycle, in particular not ANY RPA, MP2, etc. many-body perturbation terms.

  Final zero-broadening corrected energy:
  | For metallic systems only, a broadening of the occupation numbers at the Fermi
  | level can be extrapolated back to zero broadening by an electron-gas inspired
  | formula. For all systems that are not real metals, this value can be
  | meaningless and should be avoided.

------------------------------------------------------------------------------

------------------------------------------------------------
          Leaving FHI-aims.
          Date     :  20150727, Time     :  123841.375

          Computational steps:
          | Number of self-consistency cycles          :           16

          Detailed time accounting                     :  max(cpu_time)    wall_clock(cpu1)
          | Total time                                 :       38.473 s          38.494 s
          | Preparation time                           :        0.168 s           0.567 s
          | Grid partitioning                          :        0.133 s           0.132 s
          | Preloading free-atom quantities on grid    :        0.013 s           0.013 s
          | Free-atom superposition energy             :        0.066 s           0.066 s
          | Total time for integrations                :       16.766 s          16.765 s
          | Total time for solution of K.-S. equations :        1.056 s           1.055 s
          | Total time for density & force components  :       13.056 s          13.053 s
          | Total time for mixing                      :        0.209 s           0.208 s
          | Total time for Hartree multipole update    :        0.076 s           0.079 s
          | Total time for Hartree multipole sum       :        6.242 s           6.243 s
          | Total time for total energy evaluation     :        0.003 s           0.005 s
          | Total time for scaled ZORA corrections     :        0.000 s           0.000 s
          | Total time for TS (2009) vdW correction    :        0.051 s           0.052 s

          Have a nice day.
------------------------------------------------------------
