  MPI-parallelism will be employed.
------------------------------------------------------------
          Invoking FHI-aims ...
          Version 081213
          Compiled on 2013/08/29 at 17:41:06 on host generoso.

          When using FHI-aims, please cite the following reference:

          Volker Blum, Ralf Gehrke, Felix Hanke, Paula Havu,
          Ville Havu, Xinguo Ren, Karsten Reuter, and Matthias Scheffler,
          'Ab Initio Molecular Simulations with Numeric Atom-Centered Orbitals: FHI-aims',
          Computer Physics Communications 180, 2175-2196 (2009)

          For any questions about FHI-aims, please visit the aimsclub website
          with its forums and wiki. Contributions to both the forums and the
          wiki are warmly encouraged - they are for you, and everyone is welcome there.

------------------------------------------------------------

  Date     :  20150727, Time     :  121941.529
  Time zero on CPU 1             :   0.359940000000000E-01  s.
  Internal wall clock time zero  :           207231581.529  s.

  Using        8 parallel tasks.
  Task        0 on host gen60 reporting.
  Task        1 on host gen60 reporting.
  Task        2 on host gen60 reporting.
  Task        3 on host gen60 reporting.
  Task        4 on host gen60 reporting.
  Task        5 on host gen60 reporting.
  Task        6 on host gen60 reporting.
  Task        7 on host gen60 reporting.

  Performing system and environment tests:
  | Environment variable OMP_NUM_THREADS correctly set to 1.
  | Checking for scalapack...
  | No scalapack compiled in.

  Obtaining array dimensions for all initial allocations:
  
  -----------------------------------------------------------------------
  Parsing control.in (first pass over file, find array dimensions only).
  The contents of control.in will be repeated verbatim below
  unless switched off by setting 'verbatim_writeout .false.' .
  in the first line of control.in .
  -----------------------------------------------------------------------
  
  #########################################################################################
  #
  #  Volker Blum, FHI 2008 : Test run input file control.in
  #
  #########################################################################################
  #
  #  Physical model
  #
    xc                 rpbe
    spin               none
    relativistic       atomic_zora scalar
    charge             0.
   vdw_correction_hirshfeld
  #
  #  SCF convergence
  #
    occupation_type    gaussian 0.01
    mixer              pulay
      n_max_pulay        10
      charge_mix_param   0.1
    sc_accuracy_rho    5E-5
    sc_accuracy_eev    5E-3
    sc_accuracy_etot   5E-6
    sc_iter_limit      3000
  #
  #  Eigenvalue solver
  #
    KS_method          lapack
      empty_states       8
      basis_threshold    0.e-5
  #
  #  Efficiency
  #
  #   all previous settings are now default, except stratmann still
  #   undecided. Continue to handle stratmann with care, if at all.
  #
  #  partition_type stratmann
    partition_type rho_r2
  #  hartree_partition_type stratmann
  #
  #  Oprions for large clusters (100's of atoms: memory saving / better scaling)
  #
  # for periodic systems:
  #
    density_update_method orbital
    packed_matrix_format none
  #  k_grid 6 6 6
  #  output k_eigenvalue 1
  #  distributed_spline_storage .true.
  #
  #  Relaxation
  #
  #  relax_geometry   bfgs 5.e-3
    sc_accuracy_forces 5.E-4
    final_forces_cleaned .true.
  #
  #  Output options
  #
  #  output mulliken
    output Hirshfeld
  #  output dipole
  
  #harmonic_length_scale 0.001
  
  ################################################################################
  #
  #  FHI-aims code project
  #  VB, Fritz-Haber Institut, 2007
  #
  #  Suggested "safe" defaults for H atom (to be pasted into control.in file)
  #  Basis constructed for a non-relativistic H2 molecule using the
  #  PW-LDA functional.
  #
  ################################################################################
    species        H
  #     global species definitions
      nucleus             1
      cut_pot             4.0  2.0  1.0
      cut_free_atom       finite 8.0
      logarithmic         0.00010000 100.00  1.0123
      basis_dep_cutoff    1d-4  # 1d-4 is safe default - please check 5d-4 if you wish!
      radial_base         24 7.0
      radial_multiplier   2
      angular_grids       specified
        division   0.2783  110
        division   0.3822  194
        division   0.5626  302
  #      division   0.5922  434
  #      division   0.6227  590
  #      division   0.7206  770
        outer_grid  302
      l_hartree           4
  ################################################################################
  #
  #  Definition of "minimal" basis
  #
  ################################################################################
  #     valence basis states
      valence      1  s   1.
  #     ion occupancy
      ion_occ      1  s   0.5
  ################################################################################
  #
  #  Suggested additional basis functions. For production calculations,
  #  uncomment them one after another (the most important basis functions are
  #  listed first).
  #
  ################################################################################
  #  "First tier" - improvements: -1014.90 meV to -62.69 meV
       hydro 2 s 2.1
       hydro 2 p 3.5
  #  "Second tier" - improvements: -12.89 meV to -1.83 meV
       hydro 1 s 0.85
       hydro 2 p 3.7
       hydro 2 s 1.2
       hydro 3 d 7
  #  "Third tier" - improvements: -0.25 meV to -0.12 meV
  #     hydro 4 f 11.2
  #     hydro 3 p 4.8
  #     hydro 4 d 9
  #     hydro 3 s 3.2
  
  ################################################################################
  #
  #  FHI-aims code project
  #  VB, Fritz-Haber Institut, 2007
  #
  #  Suggested "safe" defaults for O atom (to be pasted into control.in file)
  #  All values have been tested for a non-relativistic, non-spinpolarized O2
  #  molecule using the PW-LDA functional. Validity for PBE is expected.
  #
  #  Constructed for dimers: 1.0 A, 1.208 A, 1.5 A, 2.0 A, 3.0 A
  #
  ################################################################################
    species        O
  #     global species definitions
      nucleus             8
      mass                15.9994
      l_hartree           4
      cut_pot             4.0  2.0  1.0
      cut_free_atom       finite 8.0
      basis_dep_cutoff    1d-4  # 1d-4 is safe default - please check 5d-4 if you wish!
      logarithmic         0.00010000 100.00  1.0123
      radial_base         36 7.0
      radial_multiplier   2
       angular_grids specified
        division   0.4087  110
        division   0.5181  194
        division   0.6184  302
  #      division   0.7315  434
  #      division   0.7934  590
  #      division   0.9656  770
  #      division   1.4041  974
  #      outer_grid 974
        outer_grid 302
  ################################################################################
  #
  #  Definition of "minimal" basis
  #
  ################################################################################
  #     valence basis states
      valence      2  s   2.
      valence      2  p   4.
  #     ion occupancy
      ion_occ      2  s   1.
      ion_occ      2  p   3.
  ################################################################################
  #
  #  Suggested additional basis functions. For production calculations,
  #  uncomment them one after another (the most important basis functions are
  #  listed first).
  #
  ################################################################################
  #  "First tier" - improvements: -699.05 meV to -159.38 meV
       hydro 2 p 1.8
       hydro 3 d 7.6
       hydro 3 s 6.4
  #  "Second tier" - improvements: -49.91 meV to -5.39 meV
       hydro 4 f 11.6
       hydro 3 p 6.2
       hydro 3 d 5.6
       hydro 5 g 17.6
       hydro 1 s 0.75
  #  "Third tier" - improvements: -2.83 meV to -0.50 meV
  #     ionic 2 p auto
  #     hydro 4 f 10.8
  #     hydro 4 d 4.7
  #     hydro 2 s 6.8
  #  "Fourth tier" - improvements: -0.40 meV to -0.12 meV
  #     hydro 3 p 5
  #     hydro 3 s 3.3
  #     hydro 5 g 15.6
  #     hydro 4 f 17.6
  #     hydro 4 d 14
  # Further basis functions - -0.08 meV and below
  #     hydro 3 s 2.1
  #     hydro 4 d 11.6
  #     hydro 3 p 16
  #     hydro 2 s 17.2
  
  
  -----------------------------------------------------------------------
  Completed first pass over input file control.in .
  -----------------------------------------------------------------------
  
  
  -----------------------------------------------------------------------
  Parsing geometry.in (first pass over file, find array dimensions only).
  The contents of geometry.in will be repeated verbatim below
  unless switched off by setting 'verbatim_writeout .false.' .
  in the first line of geometry.in .
  -----------------------------------------------------------------------
  
  atom      -4.053030000      0.065001000     -1.525160000  O
  atom      -4.566710000      0.974813000     -1.912820000  H
  atom      -3.067820000      0.330172000     -1.477310000  H
  atom      -5.293160000      2.192130000     -2.328800000  O
  atom      -4.829300000      2.988660000     -1.973850000  H
  atom      -5.428570000      2.328640000     -3.235170000  H
  atom      -1.645860000      0.870179000     -1.502250000  O
  atom      -1.568890000      1.501730000     -0.721051000  H
  atom      -0.824432000      0.282220000     -1.377720000  H
  atom      -3.818880000      2.024990000      2.187990000  O
  atom      -3.690880000      1.961360000      3.202150000  H
  atom      -4.546490000      2.751300000      2.045370000  H
  
  -----------------------------------------------------------------------
  Completed first pass over input file geometry.in .
  -----------------------------------------------------------------------
  
 
  Basic array size parameters: 
  | Number of species                 :        2
  | Number of atoms                   :       12
  | Max. basis fn. angular momentum   :        4
  | Max. atomic/ionic basis occupied n:        2
  | Max. number of basis fn. types    :        2
  | Max. radial fns per species/type  :        8
  | Max. logarithmic grid size        :     1301
  | Max. radial integration grid size :       73
  | Max. angular integration grid size:      302
  | Max. angular grid division number :        8
  | Radial grid for Hartree potential :     1301
  | Number of spin channels           :        1

------------------------------------------------------------
          Reading file control.in.
------------------------------------------------------------
  XC: Using RPBE gradient-corrected functionals.
  Spin treatment: No spin polarisation.
  Scalar relativistic treatment of kinetic energy: on-site free-atom approximation to ZORA.
  Charge =   0.000000E+00: Neutral system requested explicitly.
  Using non-empirical van der Waals correction (Hirshfeld partitioning):
  Occupation type: Gaussian broadening, width =   0.100000E-01 eV.
  Using pulay charge density mixing.
  Pulay mixing - number of memorized iterations:   10
  Charge density mixing - mixing parameter:     0.1000
  Convergence accuracy of self-consistent charge density: 0.5000E-04
  Convergence accuracy of sum of eigenvalues: 0.5000E-02
  Convergence accuracy of total energy: 0.5000E-05
  Maximum number of s.-c. iterations  :  3000
  Kohn-Sham eigenvalues and eigenfunctions calculated by lapack diagonalisation (D&C).
  Number of empty states per atom:        8
  Threshold for basis singularities: 0.0000E+00
  Partition function in integrals calculations: rho / r^2
 Using packed matrix format           0
  Convergence accuracy of forces: 0.5000E-03
  Cleaning forces before final output.
  Hirshfeld charge analysis will be performed.
 
  Reading configuration options for species H                   .
  | Found nuclear charge :   1.0000
  | Found cutoff potl. onset [A], width [A], scale factor :    4.00000    2.00000    1.00000
  | Found cutoff specification for free atom: Cutoff potential begins at    8.00000 A.
  | Found logarithmic grid data [bohr] : 0.1000E-03 0.1000E+03 0.1012E+01
  | Threshold for basis-dependent cutoff potential is   0.100000E-03
  | Found data for basic radial integration grid :    24 points, outermost radius =    7.000 A
  | Found multiplier for basic radial grid :   2
  | Found angular grid specification: user-specified.
  | Specified grid contains     4 separate shells.
  | Check grid settings after all constraints further below.
  | Found l_max for Hartree potential  :   4
  | Found free-atom valence shell :  1 s   1.000
  | No ionic wave fns used. Skipping ion_occ.
  | Found hydrogenic basis function :  2 s   2.100
  | Found hydrogenic basis function :  2 p   3.500
  | Found hydrogenic basis function :  1 s   0.850
  | Found hydrogenic basis function :  2 p   3.700
  | Found hydrogenic basis function :  2 s   1.200
  | Found hydrogenic basis function :  3 d   7.000
  Species H                   : Missing cutoff potential type.
  Defaulting to exp(1/x)/(1-x)^2 type cutoff potential.
  Species H : On-site basis accuracy parameter (for Gram-Schmidt orthonormalisation) not specified.
  Using default value basis_acc =  0.1000000E-03.
  Species H                   : Using default innermost maximum threshold i_radial=  2 for radial functions.
  Species H                   : Basic radial grid will be enhanced according to radial_multiplier =   2, to contain    49 grid points.
 
  Reading configuration options for species O                   .
  | Found nuclear charge :   8.0000
  | Found atomic mass :    15.9994000000000      amu
  | Found l_max for Hartree potential  :   4
  | Found cutoff potl. onset [A], width [A], scale factor :    4.00000    2.00000    1.00000
  | Found cutoff specification for free atom: Cutoff potential begins at    8.00000 A.
  | Threshold for basis-dependent cutoff potential is   0.100000E-03
  | Found logarithmic grid data [bohr] : 0.1000E-03 0.1000E+03 0.1012E+01
  | Found data for basic radial integration grid :    36 points, outermost radius =    7.000 A
  | Found multiplier for basic radial grid :   2
  | Found angular grid specification: user-specified.
  | Specified grid contains     4 separate shells.
  | Check grid settings after all constraints further below.
  | Found free-atom valence shell :  2 s   2.000
  | Found free-atom valence shell :  2 p   4.000
  | No ionic wave fns used. Skipping ion_occ.
  | No ionic wave fns used. Skipping ion_occ.
  | Found hydrogenic basis function :  2 p   1.800
  | Found hydrogenic basis function :  3 d   7.600
  | Found hydrogenic basis function :  3 s   6.400
  | Found hydrogenic basis function :  4 f  11.600
  | Found hydrogenic basis function :  3 p   6.200
  | Found hydrogenic basis function :  3 d   5.600
  | Found hydrogenic basis function :  5 g  17.600
  | Found hydrogenic basis function :  1 s   0.750
  Species O                   : Missing cutoff potential type.
  Defaulting to exp(1/x)/(1-x)^2 type cutoff potential.
  Species O : On-site basis accuracy parameter (for Gram-Schmidt orthonormalisation) not specified.
  Using default value basis_acc =  0.1000000E-03.
  Species O                   : Using default innermost maximum threshold i_radial=  2 for radial functions.
  Species O                   : Basic radial grid will be enhanced according to radial_multiplier =   2, to contain    73 grid points.
 
  Finished reading input file 'control.in'. Consistency checks are next.
 
  Target number of points in a grid batch is not set. Defaulting to  100
  Method for grid partitioning is not set. Defaulting to parallel hash+maxmin partitioning.
  Batch size limit is not set. Defaulting to    200
  By default, will store active basis functions for each batch.
  If in need of memory, prune_basis_once .false. can be used to disable this option.
  communication_type for Hartree potential was not specified.
  Defaulting to calc_hartree .
  Pulay mixer: Number of initial linear mixing iterations not set.
  Defaulting to    0 iterations.
  Work space size for distributed Hartree potential not set.
  Defaulting to   0.200000E+03 MB.
  Algorithm-dependent basis array size parameters:
  | n_max_pulay                         :       10
  Geometry relaxation not requested: no relaxation will be performed.
  Handling of forces: Unphysical translation and rotation will be removed from forces.
  No accuracy limit for integral partition fn. given. Defaulting to 0.1000E-14.
  No threshold value for u(r) in integrations given. Defaulting to 0.1000E-05.
  No accuracy for occupation numbers given. Defaulting to 0.1000E-07.
  No threshold value for occupation numbers given. Defaulting to 0.0000E+00.
  No accuracy for fermi level given. Defaulting to 0.1000E-19.
  Maximum # of iterations to find E_F not set. Defaulting to  200.
  Will not use alltoall communication since running on < 1024 CPUs.
  Partitioning for Hartree potential was not defined. Using partition_type for integrals.
  | Reporting present value of keyword multip_moments_threshold  :       0.10000000E-09
  | This value may affect high angular momentum components of the Hartree potential in periodic systems.
  No q(lm)/r^(l+1) cutoff set for long-range Hartree potential.
  | Using default value of  0.100000E-09 .
  | Verify using the multipole_threshold keyword.
  Defaulting to new monopole extrapolation.
  Density update method: Loop over occupied states selected for charge density update.
------------------------------------------------------------


------------------------------------------------------------
          Reading geometry description geometry.in.
------------------------------------------------------------
  Input structure read successfully.
  The structure contains       12 atoms,  and a total of         40.000 electrons.

  Input geometry:
  | No unit cell requested.
  | Atomic structure:
  |       Atom                x [A]            y [A]            z [A]
  |    1: Species O             -4.053030         0.065001        -1.525160
  |    2: Species H             -4.566710         0.974813        -1.912820
  |    3: Species H             -3.067820         0.330172        -1.477310
  |    4: Species O             -5.293160         2.192130        -2.328800
  |    5: Species H             -4.829300         2.988660        -1.973850
  |    6: Species H             -5.428570         2.328640        -3.235170
  |    7: Species O             -1.645860         0.870179        -1.502250
  |    8: Species H             -1.568890         1.501730        -0.721051
  |    9: Species H             -0.824432         0.282220        -1.377720
  |   10: Species O             -3.818880         2.024990         2.187990
  |   11: Species H             -3.690880         1.961360         3.202150
  |   12: Species H             -4.546490         2.751300         2.045370
  |

  | The smallest distance between any two atoms is         0.92654057 AA.
  |
  | The first atom of this pair is atom number                      4 .
  | The second atom of this pair is atom number                     6 .

  Structure-dependent array size parameters: 
  | Maximum number of distinct radial functions  :       18
  | Maximum number of basis functions            :      276
  | Number of Kohn-Sham states (occupied + empty):       68
------------------------------------------------------------

------------------------------------------------------------
          Preparing all fixed parts of the calculation.
------------------------------------------------------------
  Determining machine precision:
    2.225073858507201E-308
  Setting up grids for atomic and cluster calculations.

  Creating wave function, potential, and density for free atoms.

  Species: H

  List of occupied orbitals and eigenvalues:
    n    l              occ      energy [Ha]    energy [eV]
    1    0           1.0000        -0.241408        -6.5691


  Species: O

  List of occupied orbitals and eigenvalues:
    n    l              occ      energy [Ha]    energy [eV]
    1    0           2.0000       -18.944147      -515.4965
    2    0           2.0000        -0.883529       -24.0421
    2    1           4.0000        -0.330176        -8.9845

  Creating fixed part of basis set: Ionic, confined, hydrogenic.
 
  H                    hydrogenic:
 
  List of hydrogenic basis orbitals: 
    n    l      effective z      eigenvalue [eV]  inner max. [A]     outer max. [A]     outer radius [A]   
    2    0         2.100000       -14.9965           0.193241           1.317192           5.372934
    2    1         3.500000       -41.6672           0.602363           0.602363           4.056010
    1    0         0.850000        -9.8292           0.624864           0.624864           5.372934
    2    1         3.700000       -46.5653           0.573616           0.573616           3.909951
    2    0         1.200000        -4.5995           0.334977           2.228160           5.505921
    3    2         7.000000       -74.0753           0.680692           0.680692           3.769152
 
 
  O                    hydrogenic:
 
  List of hydrogenic basis orbitals: 
    n    l      effective z      eigenvalue [eV]  inner max. [A]     outer max. [A]     outer radius [A]   
    2    1         1.800000       -11.0118           1.178546           1.178546           5.432516
    3    2         7.600000       -87.3182           0.624117           0.624117           3.541422
    3    0         6.400000       -61.9209           0.061166           1.081887           4.306510
    4    3        11.600000      -114.4238           0.731621           0.731621           3.584982
    3    1         6.200000       -58.1113           0.255677           1.030255           4.306510
    3    2         5.600000       -47.4081           0.847222           0.847222           4.413102
    5    4        17.600000      -168.5799           0.749730           0.749730           3.372413
    1    0         0.750000        -7.6499           0.705275           0.705275           5.366508
 

  Adding cutoff potential to free-atom effective potential.
  Creating atomic-like basis functions for current effective potential.

  Species H                   :

  List of atomic basis orbitals and eigenvalues:
    n    l      energy [Ha]    energy [eV]    outer radius [A]
    1    0        -0.241374        -6.5681       5.372934


  Species O                   :

  List of atomic basis orbitals and eigenvalues:
    n    l      energy [Ha]    energy [eV]    outer radius [A]
    1    0       -18.944147      -515.4965       1.415745
    2    0        -0.883529       -24.0421       5.048305
    2    1        -0.330173        -8.9845       5.301302

  Assembling full basis from fixed parts.
  | Species H :   atomic orbital   1 s accepted.
  | Species H :    hydro orbital   2 s accepted.
  | Species H :    hydro orbital   1 s accepted.
  | Species H :    hydro orbital   2 s accepted.
  | Species H :    hydro orbital   2 p accepted.
  | Species H :    hydro orbital   2 p accepted.
  | Species H :    hydro orbital   3 d accepted.
  | Species O :   atomic orbital   1 s accepted.
  | Species O :    hydro orbital   3 s accepted.
  | Species O :   atomic orbital   2 s accepted.
  | Species O :    hydro orbital   1 s accepted.
  | Species O :    hydro orbital   3 p accepted.
  | Species O :   atomic orbital   2 p accepted.
  | Species O :    hydro orbital   2 p accepted.
  | Species O :    hydro orbital   3 d accepted.
  | Species O :    hydro orbital   3 d accepted.
  | Species O :    hydro orbital   4 f accepted.
  | Species O :    hydro orbital   5 g accepted.
 
  Basis size parameters after reduction:
  | Total number of radial functions:       18
  | Total number of basis functions :      276
 
  Testing on-site integration grid accuracy.
  |  Species  Function  <phi|h_atom|phi> (log., in eV)  <phi|h_atom|phi> (rad., in eV)
           1        1                 -6.5683835025                 -6.5684759159
           1        2                 13.3711789951                 13.3708738703
           1        3                 23.6590910787                 23.6532055418
           1        4                 16.2963827186                 16.1870710655 ***
           1        5                 28.7627214838                 28.7627215090
           1        6                 59.5965249172                 59.5965950857
           1        7                 60.2220506392                 60.2220503827
           2        8               -515.4964576505               -515.4964530710
           2        9                 15.3030791347                 15.3030722972
           2       10                -21.7296094581                -21.7296135470
           2       11                 14.2969371730                 14.2969701621
           2       12                 21.0679693190                 21.0679697493
           2       13                 -2.3833606469                 -2.3833613176
           2       14                 13.7067136422                 13.7066766629
           2       15                 45.8013116808                 45.8013116965
           2       16                 52.2309815402                 52.2309831494
           2       17                 85.4120732416                 85.4120732763
           2       18                142.1019167745                142.1019167817
 * Note: Onsite integrals marked "***" above are less accurate than
 * onsite_accuracy_threshold =    0.03000 eV. Usually, this is harmless.
 * When in doubt, tighten the "radial" and/or "radial_multiplier" flags to check.

  Preparing densities etc. for the partition functions (integrals / Hartree potential).

  Preparations completed.
  max(cpu_time)          :      0.171 s.
  Wall clock time (cpu1) :      0.556 s.
------------------------------------------------------------

------------------------------------------------------------
          Begin self-consistency loop: Initialization.

          Date     :  20150727, Time     :  121942.118
------------------------------------------------------------

  Initializing index lists of integration centers etc. from given atomic structure:
  | Number of centers in hartree potential         :        12
  | Number of centers in hartree multipole         :        12
  | Number of centers in electron density summation:        12
  | Number of centers in basis integrals           :        12
  | Number of centers in integrals                 :        12
  Partitioning the integration grid into batches with parallel hashing+maxmin method.
  | Number of batches:     1677
  | Maximal batch size:     197
  | Minimal batch size:      50
  | Average batch size:      93.839
  | Standard deviation of batch sizes:      32.058

  Integration load balanced across     8 MPI tasks.
  Work distribution over tasks is as follows:
  Task     0 has      19681 integration points.
  Task     1 has      19707 integration points.
  Task     2 has      19635 integration points.
  Task     3 has      19706 integration points.
  Task     4 has      19626 integration points.
  Task     5 has      19684 integration points.
  Task     6 has      19611 integration points.
  Task     7 has      19718 integration points.
  Initializing partition tables, free-atom densities, potentials, etc. across the integration grid (initialize_grid_storage).
  | Net number of integration points:   157368
  | of which are non-zero points    :   156822
  Obtaining max. number of non-zero basis functions in each batch (get_n_compute_maxes).
  | Maximal number of non-zero basis functions:      274 in task     0
  | Maximal number of non-zero basis functions:      274 in task     1
  | Maximal number of non-zero basis functions:      274 in task     2
  | Maximal number of non-zero basis functions:      274 in task     3
  | Maximal number of non-zero basis functions:      273 in task     4
  | Maximal number of non-zero basis functions:      274 in task     5
  | Maximal number of non-zero basis functions:      273 in task     6
  | Maximal number of non-zero basis functions:      273 in task     7
  Integrating Hamiltonian matrix: batch-based integration.
  Time summed over all CPUs for integration: real work        4.107 s, elapsed        4.248 s
  Integrating overlap matrix.
  Time summed over all CPUs for integration: real work        2.167 s, elapsed        2.225 s

  Updating Kohn-Sham eigenvalues, eigenvectors, occupation numbers, and Fermi level.
  Solving generalized eigenproblem
  Updating Kohn-Sham eigenvalues and eigenfunctions.
  Transforming overlap matrix and checking for singularities.
  Overlap matrix is nonsingular:
  | Lowest eigenvalue:  0.258607E-03
  Solving real generalised eigenvalue problem by standard LAPACK (fast)
  Determining occupation numbers for Kohn-Sham eigenstates.
  | Chemical potential (Fermi level) in eV                 : -.45839242E+01
  | Error in electron count due to remaining E_F inaccuracy: 0.00000000E+00
  | Maximum occupation number of highest empty state:  0.00E+00

  Writing Kohn-Sham eigenvalues.

  State    Occupation    Eigenvalue [Ha]    Eigenvalue [eV]
      1       2.00000         -19.064785         -518.77920
      2       2.00000         -19.042417         -518.17054
      3       2.00000         -19.028663         -517.79625
      4       2.00000         -19.019676         -517.55171
      5       2.00000          -1.121187          -30.50905
      6       2.00000          -1.086671          -29.56982
      7       2.00000          -1.060021          -28.84465
      8       2.00000          -1.042006          -28.35444
      9       2.00000          -0.650123          -17.69074
     10       2.00000          -0.608799          -16.56625
     11       2.00000          -0.600550          -16.34180
     12       2.00000          -0.590387          -16.06525
     13       2.00000          -0.548456          -14.92424
     14       2.00000          -0.500715          -13.62514
     15       2.00000          -0.487730          -13.27182
     16       2.00000          -0.476461          -12.96516
     17       2.00000          -0.441345          -12.00961
     18       2.00000          -0.431360          -11.73790
     19       2.00000          -0.417390          -11.35775
     20       2.00000          -0.409702          -11.14857
     21       0.00000          -0.091455           -2.48861
     22       0.00000          -0.070274           -1.91226
     23       0.00000          -0.063655           -1.73215
     24       0.00000          -0.017929           -0.48788
     25       0.00000          -0.011902           -0.32386
     26       0.00000           0.002551            0.06942
     27       0.00000           0.012658            0.34445
     28       0.00000           0.060132            1.63628
     29       0.00000           0.069691            1.89639
     30       0.00000           0.081383            2.21453
     31       0.00000           0.090324            2.45785
     32       0.00000           0.102232            2.78188
     33       0.00000           0.105446            2.86933
     34       0.00000           0.108550            2.95381
     35       0.00000           0.113765            3.09571
     36       0.00000           0.122935            3.34523
     37       0.00000           0.136992            3.72774
     38       0.00000           0.146159            3.97718
     39       0.00000           0.152160            4.14049
     40       0.00000           0.177556            4.83156
     41       0.00000           0.183825            5.00212
     42       0.00000           0.202042            5.49784
     43       0.00000           0.226252            6.15664
     44       0.00000           0.235301            6.40287
     45       0.00000           0.259017            7.04822
     46       0.00000           0.267836            7.28818
     47       0.00000           0.299129            8.13971
     48       0.00000           0.305409            8.31059
     49       0.00000           0.336999            9.17022
     50       0.00000           0.344453            9.37305
     51       0.00000           0.360372            9.80622
     52       0.00000           0.365536            9.94673
     53       0.00000           0.393531           10.70853
     54       0.00000           0.400362           10.89441
     55       0.00000           0.408702           11.12134
     56       0.00000           0.416674           11.33828
     57       0.00000           0.421197           11.46134
     58       0.00000           0.434280           11.81735
     59       0.00000           0.454083           12.35621
     60       0.00000           0.466952           12.70642
     61       0.00000           0.492655           13.40583
     62       0.00000           0.528995           14.39469
     63       0.00000           0.536874           14.60909
     64       0.00000           0.568689           15.47481
     65       0.00000           0.609384           16.58218
     66       0.00000           0.660229           17.96574
     67       0.00000           0.692217           18.83619
     68       0.00000           0.707655           19.25627

  Highest occupied state (VBM) at    -11.14856506 eV
  | Occupation number:      2.00000000

  Lowest unoccupied state (CBM) at    -2.48861019 eV
  | Occupation number:      0.00000000

  Overall HOMO-LUMO gap:      8.65995487 eV.
  Calculating total energy contributions from superposition of free atom densities.

  Total energy components:
  | Sum of eigenvalues            :        -173.25688816 Ha       -4714.55980102 eV
  | XC energy correction          :         -36.42986368 Ha        -991.30702791 eV
  | XC potential correction       :          46.54782100 Ha        1266.63065493 eV
  | Free-atom electrostatic energy:        -143.31602604 Ha       -3899.82748961 eV
  | Hartree energy correction     :           0.00000000 Ha           0.00000000 eV
  | van der Waals energy corr.    :           0.00000000 Ha           0.00000000 eV
  | Entropy correction            :           0.00000000 Ha           0.00000000 eV
  | ---------------------------
  | Total energy                  :        -306.45495688 Ha       -8339.06366361 eV
  | Total energy, T -> 0          :        -306.45495688 Ha       -8339.06366361 eV  <-- do not rely on this value for anything but (periodic) metals
  | Electronic free energy        :        -306.45495688 Ha       -8339.06366361 eV

  Derived energy quantities:
  | Kinetic energy                :         303.29496388 Ha        8253.07587904 eV
  | Electrostatic energy          :        -573.32005708 Ha      -15600.83251474 eV
  | Energy correction for multipole
  | error in Hartree potential    :           0.00000000 Ha           0.00000000 eV
  | Sum of eigenvalues per atom                           :        -392.87998342 eV
  | Total energy (T->0) per atom                          :        -694.92197197 eV  <-- do not rely on this value for anything but (periodic) metals
  | Electronic free energy per atom                       :        -694.92197197 eV
  Initialize hartree_potential_storage
  Max. number of atoms included in rho_multipole:           12

  End scf initialization - timings             :  max(cpu_time)    wall_clock(cpu1)
  | Time for scf. initialization               :        1.194 s           1.193 s
  | Boundary condition initialization          :        0.000 s           0.000 s
  | Integration                                :        0.811 s           0.812 s
  | Solution of K.-S. eqns.                    :        0.119 s           0.118 s
  | Grid partitioning                          :        0.117 s           0.116 s
  | Preloading free-atom quantities on grid    :        0.014 s           0.013 s
  | Free-atom superposition energy             :        0.046 s           0.046 s
  | Total energy evaluation                    :        0.000 s           0.000 s
------------------------------------------------------------

------------------------------------------------------------
          Begin self-consistency iteration #    1

  Date     :  20150727, Time     :  121943.311
------------------------------------------------------------
  Evaluating new KS density.
  Integration grid: deviation in total charge (<rho> - N_e) =   0.000000E+00
  Pulay mixing of updated and previous charge densities.

  Evaluating partitioned Hartree potential by multipole expansion.
  | Analytical far-field extrapolation by fixed multipoles:
  | Hartree multipole sum: apparent total charge =  -0.169277E-05
  Summing up the Hartree potential.
  Time summed over all CPUs for potential: real work        1.653 s, elapsed        1.661 s
  | RMS charge density error from multipole expansion :   0.140374E-02

  Integrating Hamiltonian matrix: batch-based integration.
  Time summed over all CPUs for integration: real work        4.113 s, elapsed        4.253 s

  Updating Kohn-Sham eigenvalues, eigenvectors, occupation numbers, and Fermi level.
  Solving generalized eigenproblem
  Updating Kohn-Sham eigenvalues and eigenfunctions.
  Solving real generalised eigenvalue problem by standard LAPACK (fast)
  Determining occupation numbers for Kohn-Sham eigenstates.
  | Chemical potential (Fermi level) in eV                 : -.41070855E+01
  | Error in electron count due to remaining E_F inaccuracy: 0.00000000E+00
  | Maximum occupation number of highest empty state:  0.00E+00

  Writing Kohn-Sham eigenvalues.

  State    Occupation    Eigenvalue [Ha]    Eigenvalue [eV]
      1       2.00000         -18.996794         -516.92908
      2       2.00000         -18.976091         -516.36570
      3       2.00000         -18.954414         -515.77585
      4       2.00000         -18.922220         -514.89979
      5       2.00000          -1.088953          -29.63192
      6       2.00000          -1.053522          -28.66780
      7       2.00000          -1.023065          -27.83903
      8       2.00000          -0.987855          -26.88089
      9       2.00000          -0.622542          -16.94024
     10       2.00000          -0.577388          -15.71151
     11       2.00000          -0.564908          -15.37194
     12       2.00000          -0.559807          -15.23312
     13       2.00000          -0.512628          -13.94932
     14       2.00000          -0.462161          -12.57604
     15       2.00000          -0.450843          -12.26806
     16       2.00000          -0.435963          -11.86316
     17       2.00000          -0.399771          -10.87834
     18       2.00000          -0.389406          -10.59627
     19       2.00000          -0.378333          -10.29497
     20       2.00000          -0.353959           -9.63172
     21       0.00000          -0.084215           -2.29161
     22       0.00000          -0.062781           -1.70835
     23       0.00000          -0.057493           -1.56445
     24       0.00000          -0.011540           -0.31403
     25       0.00000          -0.004815           -0.13102
     26       0.00000           0.009703            0.26404
     27       0.00000           0.025341            0.68955
     28       0.00000           0.068508            1.86420
     29       0.00000           0.080429            2.18858
     30       0.00000           0.091957            2.50228
     31       0.00000           0.098035            2.66767
     32       0.00000           0.110416            3.00457
     33       0.00000           0.114033            3.10299
     34       0.00000           0.118274            3.21841
     35       0.00000           0.126251            3.43547
     36       0.00000           0.133306            3.62743
     37       0.00000           0.145162            3.95005
     38       0.00000           0.156827            4.26748
     39       0.00000           0.177653            4.83417
     40       0.00000           0.188945            5.14146
     41       0.00000           0.196797            5.35511
     42       0.00000           0.210628            5.73147
     43       0.00000           0.234772            6.38846
     44       0.00000           0.245105            6.66963
     45       0.00000           0.267916            7.29036
     46       0.00000           0.275212            7.48891
     47       0.00000           0.307485            8.36709
     48       0.00000           0.316168            8.60337
     49       0.00000           0.345034            9.38885
     50       0.00000           0.357878            9.73834
     51       0.00000           0.372653           10.14041
     52       0.00000           0.374177           10.18189
     53       0.00000           0.404172           10.99808
     54       0.00000           0.408238           11.10872
     55       0.00000           0.419988           11.42847
     56       0.00000           0.424608           11.55416
     57       0.00000           0.430443           11.71295
     58       0.00000           0.443786           12.07603
     59       0.00000           0.462040           12.57274
     60       0.00000           0.476840           12.97547
     61       0.00000           0.502528           13.67448
     62       0.00000           0.540178           14.69899
     63       0.00000           0.548754           14.93236
     64       0.00000           0.583366           15.87419
     65       0.00000           0.623905           16.97731
     66       0.00000           0.675707           18.38692
     67       0.00000           0.705910           19.20878
     68       0.00000           0.722838           19.66943

  Highest occupied state (VBM) at     -9.63171895 eV
  | Occupation number:      2.00000000

  Lowest unoccupied state (CBM) at    -2.29160799 eV
  | Occupation number:      0.00000000

  Overall HOMO-LUMO gap:      7.34011096 eV.

  Total energy components:
  | Sum of eigenvalues            :        -171.42124666 Ha       -4664.60945439 eV
  | XC energy correction          :         -36.62033140 Ha        -996.48991812 eV
  | XC potential correction       :          46.79743995 Ha        1273.42313204 eV
  | Free-atom electrostatic energy:        -143.31602604 Ha       -3899.82748961 eV
  | Hartree energy correction     :          -1.77583767 Ha         -48.32300171 eV
  | van der Waals energy corr.    :           0.00000000 Ha           0.00000000 eV
  | Entropy correction            :           0.00000000 Ha           0.00000000 eV
  | ---------------------------
  | Total energy                  :        -306.33600182 Ha       -8335.82673179 eV
  | Total energy, T -> 0          :        -306.33600182 Ha       -8335.82673179 eV  <-- do not rely on this value for anything but (periodic) metals
  | Electronic free energy        :        -306.33600182 Ha       -8335.82673179 eV

  Derived energy quantities:
  | Kinetic energy                :         304.42152470 Ha        8283.73115868 eV
  | Electrostatic energy          :        -574.13719513 Ha      -15623.06797235 eV
  | Energy correction for multipole
  | error in Hartree potential    :          -0.00024642 Ha          -0.00670530 eV
  | Sum of eigenvalues per atom                           :        -388.71745453 eV
  | Total energy (T->0) per atom                          :        -694.65222765 eV  <-- do not rely on this value for anything but (periodic) metals
  | Electronic free energy per atom                       :        -694.65222765 eV

  Self-consistency convergence accuracy:
  | Change of charge density      : 0.5846E+00
  | Change of sum of eigenvalues  : 0.4995E+02 eV
  | Change of total energy        : 0.3237E+01 eV

  End self-consistency iteration #     1       :  max(cpu_time)    wall_clock(cpu1)
  | Time for this iteration                    :        1.141 s           1.141 s
  | Charge density update                      :        0.362 s           0.361 s
  | Density mixing                             :        0.002 s           0.003 s
  | Hartree multipole update                   :        0.005 s           0.004 s
  | Hartree multipole summation                :        0.208 s           0.208 s
  | Integration                                :        0.533 s           0.533 s
  | Solution of K.-S. eqns.                    :        0.030 s           0.031 s
  | Total energy evaluation                    :        0.000 s           0.000 s
------------------------------------------------------------

------------------------------------------------------------
          Begin self-consistency iteration #    2

  Date     :  20150727, Time     :  121944.453
------------------------------------------------------------
  Evaluating new KS density.
  Integration grid: deviation in total charge (<rho> - N_e) =   2.842171E-14
  Pulay mixing of updated and previous charge densities.

  Evaluating partitioned Hartree potential by multipole expansion.
  | Analytical far-field extrapolation by fixed multipoles:
  | Hartree multipole sum: apparent total charge =  -0.492423E-05
  Summing up the Hartree potential.
  Time summed over all CPUs for potential: real work        1.653 s, elapsed        1.661 s
  | RMS charge density error from multipole expansion :   0.556935E-02

  Integrating Hamiltonian matrix: batch-based integration.
  Time summed over all CPUs for integration: real work        4.101 s, elapsed        4.231 s

  Updating Kohn-Sham eigenvalues, eigenvectors, occupation numbers, and Fermi level.
  Solving generalized eigenproblem
  Updating Kohn-Sham eigenvalues and eigenfunctions.
  Solving real generalised eigenvalue problem by standard LAPACK (fast)
  Determining occupation numbers for Kohn-Sham eigenstates.
  | Chemical potential (Fermi level) in eV                 : -.28899904E+01
  | Error in electron count due to remaining E_F inaccuracy: 0.00000000E+00
  | Maximum occupation number of highest empty state:  0.00E+00

  Highest occupied state (VBM) at     -6.03173700 eV
  | Occupation number:      2.00000000

  Lowest unoccupied state (CBM) at    -1.85072036 eV
  | Occupation number:      0.00000000

  Overall HOMO-LUMO gap:      4.18101664 eV.

  Total energy components:
  | Sum of eigenvalues            :        -167.13707176 Ha       -4548.03112398 eV
  | XC energy correction          :         -37.08191668 Ha       -1009.05029290 eV
  | XC potential correction       :          47.40188786 Ha        1289.87099662 eV
  | Free-atom electrostatic energy:        -143.31602604 Ha       -3899.82748961 eV
  | Hartree energy correction     :          -6.06385650 Ha        -165.00593073 eV
  | van der Waals energy corr.    :           0.00000000 Ha           0.00000000 eV
  | Entropy correction            :           0.00000000 Ha           0.00000000 eV
  | ---------------------------
  | Total energy                  :        -306.19698313 Ha       -8332.04384060 eV
  | Total energy, T -> 0          :        -306.19698313 Ha       -8332.04384060 eV  <-- do not rely on this value for anything but (periodic) metals
  | Electronic free energy        :        -306.19698313 Ha       -8332.04384060 eV

  Derived energy quantities:
  | Kinetic energy                :         306.63733903 Ha        8344.02653452 eV
  | Electrostatic energy          :        -575.75240548 Ha      -15667.02008222 eV
  | Energy correction for multipole
  | error in Hartree potential    :          -0.00152118 Ha          -0.04139353 eV
  | Sum of eigenvalues per atom                           :        -379.00259367 eV
  | Total energy (T->0) per atom                          :        -694.33698672 eV  <-- do not rely on this value for anything but (periodic) metals
  | Electronic free energy per atom                       :        -694.33698672 eV

  Self-consistency convergence accuracy:
  | Change of charge density      : 0.4410E+00
  | Change of sum of eigenvalues  : 0.1166E+03 eV
  | Change of total energy        : 0.3783E+01 eV

  End self-consistency iteration #     2       :  max(cpu_time)    wall_clock(cpu1)
  | Time for this iteration                    :        1.135 s           1.135 s
  | Charge density update                      :        0.357 s           0.357 s
  | Density mixing                             :        0.005 s           0.005 s
  | Hartree multipole update                   :        0.004 s           0.004 s
  | Hartree multipole summation                :        0.208 s           0.208 s
  | Integration                                :        0.530 s           0.530 s
  | Solution of K.-S. eqns.                    :        0.031 s           0.031 s
  | Total energy evaluation                    :        0.000 s           0.000 s
------------------------------------------------------------

------------------------------------------------------------
          Begin self-consistency iteration #    3

  Date     :  20150727, Time     :  121945.588
------------------------------------------------------------
  Evaluating new KS density.
  Integration grid: deviation in total charge (<rho> - N_e) =  -1.421085E-14
  Pulay mixing of updated and previous charge densities.

  Evaluating partitioned Hartree potential by multipole expansion.
  | Analytical far-field extrapolation by fixed multipoles:
  | Hartree multipole sum: apparent total charge =  -0.511223E-05
  Summing up the Hartree potential.
  Time summed over all CPUs for potential: real work        1.653 s, elapsed        1.661 s
  | RMS charge density error from multipole expansion :   0.112740E-01

  Integrating Hamiltonian matrix: batch-based integration.
  Time summed over all CPUs for integration: real work        4.107 s, elapsed        4.238 s

  Updating Kohn-Sham eigenvalues, eigenvectors, occupation numbers, and Fermi level.
  Solving generalized eigenproblem
  Updating Kohn-Sham eigenvalues and eigenfunctions.
  Solving real generalised eigenvalue problem by standard LAPACK (fast)
  Determining occupation numbers for Kohn-Sham eigenstates.
  | Chemical potential (Fermi level) in eV                 : -.25685015E+01
  | Error in electron count due to remaining E_F inaccuracy: 0.00000000E+00
  | Maximum occupation number of highest empty state:  0.00E+00

  Highest occupied state (VBM) at     -5.62373478 eV
  | Occupation number:      2.00000000

  Lowest unoccupied state (CBM) at    -1.75684984 eV
  | Occupation number:      0.00000000

  Overall HOMO-LUMO gap:      3.86688495 eV.

  Total energy components:
  | Sum of eigenvalues            :        -167.26785554 Ha       -4551.58993160 eV
  | XC energy correction          :         -37.05144670 Ha       -1008.22116256 eV
  | XC potential correction       :          47.35852730 Ha        1288.69109578 eV
  | Free-atom electrostatic energy:        -143.31602604 Ha       -3899.82748961 eV
  | Hartree energy correction     :          -5.91447791 Ha        -160.94113241 eV
  | van der Waals energy corr.    :           0.00000000 Ha           0.00000000 eV
  | Entropy correction            :           0.00000000 Ha           0.00000000 eV
  | ---------------------------
  | Total energy                  :        -306.19127889 Ha       -8331.88862040 eV
  | Total energy, T -> 0          :        -306.19127889 Ha       -8331.88862040 eV  <-- do not rely on this value for anything but (periodic) metals
  | Electronic free energy        :        -306.19127889 Ha       -8331.88862040 eV

  Derived energy quantities:
  | Kinetic energy                :         304.98174775 Ha        8298.97560362 eV
  | Electrostatic energy          :        -574.12157994 Ha      -15622.64306146 eV
  | Energy correction for multipole
  | error in Hartree potential    :          -0.00533718 Ha          -0.14523197 eV
  | Sum of eigenvalues per atom                           :        -379.29916097 eV
  | Total energy (T->0) per atom                          :        -694.32405170 eV  <-- do not rely on this value for anything but (periodic) metals
  | Electronic free energy per atom                       :        -694.32405170 eV

  Self-consistency convergence accuracy:
  | Change of charge density      : 0.2239E+00
  | Change of sum of eigenvalues  : -.3559E+01 eV
  | Change of total energy        : 0.1552E+00 eV

  End self-consistency iteration #     3       :  max(cpu_time)    wall_clock(cpu1)
  | Time for this iteration                    :        1.136 s           1.136 s
  | Charge density update                      :        0.356 s           0.356 s
  | Density mixing                             :        0.006 s           0.006 s
  | Hartree multipole update                   :        0.004 s           0.004 s
  | Hartree multipole summation                :        0.208 s           0.208 s
  | Integration                                :        0.531 s           0.531 s
  | Solution of K.-S. eqns.                    :        0.031 s           0.031 s
  | Total energy evaluation                    :        0.000 s           0.000 s
------------------------------------------------------------

------------------------------------------------------------
          Begin self-consistency iteration #    4

  Date     :  20150727, Time     :  121946.724
------------------------------------------------------------
  Evaluating new KS density.
  Integration grid: deviation in total charge (<rho> - N_e) =  -1.421085E-14
  Pulay mixing of updated and previous charge densities.

  Evaluating partitioned Hartree potential by multipole expansion.
  | Analytical far-field extrapolation by fixed multipoles:
  | Hartree multipole sum: apparent total charge =  -0.624564E-05
  Summing up the Hartree potential.
  Time summed over all CPUs for potential: real work        1.652 s, elapsed        1.660 s
  | RMS charge density error from multipole expansion :   0.147993E-01

  Integrating Hamiltonian matrix: batch-based integration.
  Time summed over all CPUs for integration: real work        4.085 s, elapsed        4.208 s

  Updating Kohn-Sham eigenvalues, eigenvectors, occupation numbers, and Fermi level.
  Solving generalized eigenproblem
  Updating Kohn-Sham eigenvalues and eigenfunctions.
  Solving real generalised eigenvalue problem by standard LAPACK (fast)
  Determining occupation numbers for Kohn-Sham eigenstates.
  | Chemical potential (Fermi level) in eV                 : -.20055650E+01
  | Error in electron count due to remaining E_F inaccuracy: 0.00000000E+00
  | Maximum occupation number of highest empty state:  0.00E+00

  Highest occupied state (VBM) at     -4.26421047 eV
  | Occupation number:      2.00000000

  Lowest unoccupied state (CBM) at    -1.56630260 eV
  | Occupation number:      0.00000000

  Overall HOMO-LUMO gap:      2.69790787 eV.

  Total energy components:
  | Sum of eigenvalues            :        -165.83940494 Ha       -4512.71981298 eV
  | XC energy correction          :         -37.21700413 Ha       -1012.72620943 eV
  | XC potential correction       :          47.57465966 Ha        1294.57235640 eV
  | Free-atom electrostatic energy:        -143.31602604 Ha       -3899.82748961 eV
  | Hartree energy correction     :          -7.38322213 Ha        -200.90769629 eV
  | van der Waals energy corr.    :           0.00000000 Ha           0.00000000 eV
  | Entropy correction            :           0.00000000 Ha           0.00000000 eV
  | ---------------------------
  | Total energy                  :        -306.18099759 Ha       -8331.60885191 eV
  | Total energy, T -> 0          :        -306.18099759 Ha       -8331.60885191 eV  <-- do not rely on this value for anything but (periodic) metals
  | Electronic free energy        :        -306.18099759 Ha       -8331.60885191 eV

  Derived energy quantities:
  | Kinetic energy                :         305.12468315 Ha        8302.86507363 eV
  | Electrostatic energy          :        -574.08867660 Ha      -15621.74771611 eV
  | Energy correction for multipole
  | error in Hartree potential    :          -0.00720525 Ha          -0.19606478 eV
  | Sum of eigenvalues per atom                           :        -376.05998441 eV
  | Total energy (T->0) per atom                          :        -694.30073766 eV  <-- do not rely on this value for anything but (periodic) metals
  | Electronic free energy per atom                       :        -694.30073766 eV

  Self-consistency convergence accuracy:
  | Change of charge density      : 0.1271E+00
  | Change of sum of eigenvalues  : 0.3887E+02 eV
  | Change of total energy        : 0.2798E+00 eV

  End self-consistency iteration #     4       :  max(cpu_time)    wall_clock(cpu1)
  | Time for this iteration                    :        1.133 s           1.133 s
  | Charge density update                      :        0.355 s           0.356 s
  | Density mixing                             :        0.007 s           0.007 s
  | Hartree multipole update                   :        0.004 s           0.004 s
  | Hartree multipole summation                :        0.208 s           0.208 s
  | Integration                                :        0.527 s           0.527 s
  | Solution of K.-S. eqns.                    :        0.030 s           0.031 s
  | Total energy evaluation                    :        0.001 s           0.000 s
------------------------------------------------------------

------------------------------------------------------------
          Begin self-consistency iteration #    5

  Date     :  20150727, Time     :  121947.857
------------------------------------------------------------
  Evaluating new KS density.
  Integration grid: deviation in total charge (<rho> - N_e) =   2.131628E-14
  Pulay mixing of updated and previous charge densities.

  Evaluating partitioned Hartree potential by multipole expansion.
  | Analytical far-field extrapolation by fixed multipoles:
  | Hartree multipole sum: apparent total charge =  -0.625184E-05
  Summing up the Hartree potential.
  Time summed over all CPUs for potential: real work        1.652 s, elapsed        1.660 s
  | RMS charge density error from multipole expansion :   0.153911E-01

  Integrating Hamiltonian matrix: batch-based integration.
  Time summed over all CPUs for integration: real work        4.084 s, elapsed        4.213 s

  Updating Kohn-Sham eigenvalues, eigenvectors, occupation numbers, and Fermi level.
  Solving generalized eigenproblem
  Updating Kohn-Sham eigenvalues and eigenfunctions.
  Solving real generalised eigenvalue problem by standard LAPACK (fast)
  Determining occupation numbers for Kohn-Sham eigenstates.
  | Chemical potential (Fermi level) in eV                 : -.19974136E+01
  | Error in electron count due to remaining E_F inaccuracy: 0.00000000E+00
  | Maximum occupation number of highest empty state:  0.00E+00

  Highest occupied state (VBM) at     -4.24719914 eV
  | Occupation number:      2.00000000

  Lowest unoccupied state (CBM) at    -1.54742775 eV
  | Occupation number:      0.00000000

  Overall HOMO-LUMO gap:      2.69977140 eV.

  Total energy components:
  | Sum of eigenvalues            :        -165.77787046 Ha       -4511.04537478 eV
  | XC energy correction          :         -37.22901967 Ha       -1013.05316890 eV
  | XC potential correction       :          47.58984097 Ha        1294.98546105 eV
  | Free-atom electrostatic energy:        -143.31602604 Ha       -3899.82748961 eV
  | Hartree energy correction     :          -7.44765141 Ha        -202.66090618 eV
  | van der Waals energy corr.    :           0.00000000 Ha           0.00000000 eV
  | Entropy correction            :           0.00000000 Ha           0.00000000 eV
  | ---------------------------
  | Total energy                  :        -306.18072662 Ha       -8331.60147842 eV
  | Total energy, T -> 0          :        -306.18072662 Ha       -8331.60147842 eV  <-- do not rely on this value for anything but (periodic) metals
  | Electronic free energy        :        -306.18072662 Ha       -8331.60147842 eV

  Derived energy quantities:
  | Kinetic energy                :         305.15015775 Ha        8303.55827266 eV
  | Electrostatic energy          :        -574.10186469 Ha      -15622.10658217 eV
  | Energy correction for multipole
  | error in Hartree potential    :          -0.00731925 Ha          -0.19916688 eV
  | Sum of eigenvalues per atom                           :        -375.92044790 eV
  | Total energy (T->0) per atom                          :        -694.30012320 eV  <-- do not rely on this value for anything but (periodic) metals
  | Electronic free energy per atom                       :        -694.30012320 eV

  Self-consistency convergence accuracy:
  | Change of charge density      : 0.3052E-01
  | Change of sum of eigenvalues  : 0.1674E+01 eV
  | Change of total energy        : 0.7373E-02 eV

  End self-consistency iteration #     5       :  max(cpu_time)    wall_clock(cpu1)
  | Time for this iteration                    :        1.135 s           1.135 s
  | Charge density update                      :        0.355 s           0.356 s
  | Density mixing                             :        0.007 s           0.008 s
  | Hartree multipole update                   :        0.004 s           0.004 s
  | Hartree multipole summation                :        0.209 s           0.208 s
  | Integration                                :        0.527 s           0.528 s
  | Solution of K.-S. eqns.                    :        0.031 s           0.031 s
  | Total energy evaluation                    :        0.001 s           0.000 s
------------------------------------------------------------

------------------------------------------------------------
          Begin self-consistency iteration #    6

  Date     :  20150727, Time     :  121948.992
------------------------------------------------------------
  Evaluating new KS density.
  Integration grid: deviation in total charge (<rho> - N_e) =   1.421085E-14
  Pulay mixing of updated and previous charge densities.

  Evaluating partitioned Hartree potential by multipole expansion.
  | Analytical far-field extrapolation by fixed multipoles:
  | Hartree multipole sum: apparent total charge =  -0.625335E-05
  Summing up the Hartree potential.
  Time summed over all CPUs for potential: real work        1.652 s, elapsed        1.660 s
  | RMS charge density error from multipole expansion :   0.154853E-01

  Integrating Hamiltonian matrix: batch-based integration.
  Time summed over all CPUs for integration: real work        4.092 s, elapsed        4.239 s

  Updating Kohn-Sham eigenvalues, eigenvectors, occupation numbers, and Fermi level.
  Solving generalized eigenproblem
  Updating Kohn-Sham eigenvalues and eigenfunctions.
  Solving real generalised eigenvalue problem by standard LAPACK (fast)
  Determining occupation numbers for Kohn-Sham eigenstates.
  | Chemical potential (Fermi level) in eV                 : -.19931327E+01
  | Error in electron count due to remaining E_F inaccuracy: 0.00000000E+00
  | Maximum occupation number of highest empty state:  0.00E+00

  Highest occupied state (VBM) at     -4.24009424 eV
  | Occupation number:      2.00000000

  Lowest unoccupied state (CBM) at    -1.54459563 eV
  | Occupation number:      0.00000000

  Overall HOMO-LUMO gap:      2.69549860 eV.

  Total energy components:
  | Sum of eigenvalues            :        -165.76982766 Ha       -4510.82651896 eV
  | XC energy correction          :         -37.23051634 Ha       -1013.09389537 eV
  | XC potential correction       :          47.59171793 Ha        1295.03653569 eV
  | Free-atom electrostatic energy:        -143.31602604 Ha       -3899.82748961 eV
  | Hartree energy correction     :          -7.45608345 Ha        -202.89035367 eV
  | van der Waals energy corr.    :           0.00000000 Ha           0.00000000 eV
  | Entropy correction            :           0.00000000 Ha           0.00000000 eV
  | ---------------------------
  | Total energy                  :        -306.18073556 Ha       -8331.60172192 eV
  | Total energy, T -> 0          :        -306.18073556 Ha       -8331.60172192 eV  <-- do not rely on this value for anything but (periodic) metals
  | Electronic free energy        :        -306.18073556 Ha       -8331.60172192 eV

  Derived energy quantities:
  | Kinetic energy                :         305.14903493 Ha        8303.52771922 eV
  | Electrostatic energy          :        -574.09925415 Ha      -15622.03554577 eV
  | Energy correction for multipole
  | error in Hartree potential    :          -0.00734519 Ha          -0.19987278 eV
  | Sum of eigenvalues per atom                           :        -375.90220991 eV
  | Total energy (T->0) per atom                          :        -694.30014349 eV  <-- do not rely on this value for anything but (periodic) metals
  | Electronic free energy per atom                       :        -694.30014349 eV

  Self-consistency convergence accuracy:
  | Change of charge density      : 0.1166E-01
  | Change of sum of eigenvalues  : 0.2189E+00 eV
  | Change of total energy        : -.2435E-03 eV

  End self-consistency iteration #     6       :  max(cpu_time)    wall_clock(cpu1)
  | Time for this iteration                    :        1.139 s           1.140 s
  | Charge density update                      :        0.356 s           0.357 s
  | Density mixing                             :        0.009 s           0.008 s
  | Hartree multipole update                   :        0.004 s           0.005 s
  | Hartree multipole summation                :        0.208 s           0.208 s
  | Integration                                :        0.531 s           0.531 s
  | Solution of K.-S. eqns.                    :        0.031 s           0.030 s
  | Total energy evaluation                    :        0.000 s           0.001 s
------------------------------------------------------------

------------------------------------------------------------
          Begin self-consistency iteration #    7

  Date     :  20150727, Time     :  121950.132
------------------------------------------------------------
  Evaluating new KS density.
  Integration grid: deviation in total charge (<rho> - N_e) =   1.421085E-14
  Pulay mixing of updated and previous charge densities.

  Evaluating partitioned Hartree potential by multipole expansion.
  | Analytical far-field extrapolation by fixed multipoles:
  | Hartree multipole sum: apparent total charge =  -0.607034E-05
  Summing up the Hartree potential.
  Time summed over all CPUs for potential: real work        1.652 s, elapsed        1.660 s
  | RMS charge density error from multipole expansion :   0.155042E-01

  Integrating Hamiltonian matrix: batch-based integration.
  Time summed over all CPUs for integration: real work        4.085 s, elapsed        4.214 s

  Updating Kohn-Sham eigenvalues, eigenvectors, occupation numbers, and Fermi level.
  Solving generalized eigenproblem
  Updating Kohn-Sham eigenvalues and eigenfunctions.
  Solving real generalised eigenvalue problem by standard LAPACK (fast)
  Determining occupation numbers for Kohn-Sham eigenstates.
  | Chemical potential (Fermi level) in eV                 : -.20512708E+01
  | Error in electron count due to remaining E_F inaccuracy: 0.00000000E+00
  | Maximum occupation number of highest empty state:  0.00E+00

  Highest occupied state (VBM) at     -4.38398393 eV
  | Occupation number:      2.00000000

  Lowest unoccupied state (CBM) at    -1.56277606 eV
  | Occupation number:      0.00000000

  Overall HOMO-LUMO gap:      2.82120787 eV.

  Total energy components:
  | Sum of eigenvalues            :        -165.88946953 Ha       -4514.08213998 eV
  | XC energy correction          :         -37.22025959 Ha       -1012.81479484 eV
  | XC potential correction       :          47.57778365 Ha        1294.65736455 eV
  | Free-atom electrostatic energy:        -143.31602604 Ha       -3899.82748961 eV
  | Hartree energy correction     :          -7.33264299 Ha        -199.53136774 eV
  | van der Waals energy corr.    :           0.00000000 Ha           0.00000000 eV
  | Entropy correction            :           0.00000000 Ha           0.00000000 eV
  | ---------------------------
  | Total energy                  :        -306.18061450 Ha       -8331.59842761 eV
  | Total energy, T -> 0          :        -306.18061450 Ha       -8331.59842761 eV  <-- do not rely on this value for anything but (periodic) metals
  | Electronic free energy        :        -306.18061450 Ha       -8331.59842761 eV

  Derived energy quantities:
  | Kinetic energy                :         305.20292373 Ha        8304.99410818 eV
  | Electrostatic energy          :        -574.16327864 Ha      -15623.77774094 eV
  | Energy correction for multipole
  | error in Hartree potential    :          -0.00711389 Ha          -0.19357876 eV
  | Sum of eigenvalues per atom                           :        -376.17351166 eV
  | Total energy (T->0) per atom                          :        -694.29986897 eV  <-- do not rely on this value for anything but (periodic) metals
  | Electronic free energy per atom                       :        -694.29986897 eV

  Self-consistency convergence accuracy:
  | Change of charge density      : 0.1090E-01
  | Change of sum of eigenvalues  : -.3256E+01 eV
  | Change of total energy        : 0.3294E-02 eV

  End self-consistency iteration #     7       :  max(cpu_time)    wall_clock(cpu1)
  | Time for this iteration                    :        1.135 s           1.135 s
  | Charge density update                      :        0.354 s           0.354 s
  | Density mixing                             :        0.010 s           0.010 s
  | Hartree multipole update                   :        0.004 s           0.004 s
  | Hartree multipole summation                :        0.208 s           0.208 s
  | Integration                                :        0.528 s           0.528 s
  | Solution of K.-S. eqns.                    :        0.031 s           0.031 s
  | Total energy evaluation                    :        0.000 s           0.000 s
------------------------------------------------------------

------------------------------------------------------------
          Begin self-consistency iteration #    8

  Date     :  20150727, Time     :  121951.267
------------------------------------------------------------
  Evaluating new KS density.
  Integration grid: deviation in total charge (<rho> - N_e) =   0.000000E+00
  Pulay mixing of updated and previous charge densities.

  Evaluating partitioned Hartree potential by multipole expansion.
  | Analytical far-field extrapolation by fixed multipoles:
  | Hartree multipole sum: apparent total charge =  -0.606137E-05
  Summing up the Hartree potential.
  Time summed over all CPUs for potential: real work        1.652 s, elapsed        1.660 s
  | RMS charge density error from multipole expansion :   0.155392E-01

  Integrating Hamiltonian matrix: batch-based integration.
  Time summed over all CPUs for integration: real work        4.087 s, elapsed        4.225 s

  Updating Kohn-Sham eigenvalues, eigenvectors, occupation numbers, and Fermi level.
  Solving generalized eigenproblem
  Updating Kohn-Sham eigenvalues and eigenfunctions.
  Solving real generalised eigenvalue problem by standard LAPACK (fast)
  Determining occupation numbers for Kohn-Sham eigenstates.
  | Chemical potential (Fermi level) in eV                 : -.20492835E+01
  | Error in electron count due to remaining E_F inaccuracy: 0.00000000E+00
  | Maximum occupation number of highest empty state:  0.00E+00

  Highest occupied state (VBM) at     -4.37772308 eV
  | Occupation number:      2.00000000

  Lowest unoccupied state (CBM) at    -1.56266118 eV
  | Occupation number:      0.00000000

  Overall HOMO-LUMO gap:      2.81506190 eV.

  Total energy components:
  | Sum of eigenvalues            :        -165.88786126 Ha       -4514.03837655 eV
  | XC energy correction          :         -37.22018731 Ha       -1012.81282795 eV
  | XC potential correction       :          47.57764593 Ha        1294.65361691 eV
  | Free-atom electrostatic energy:        -143.31602604 Ha       -3899.82748961 eV
  | Hartree energy correction     :          -7.33418442 Ha        -199.57331219 eV
  | van der Waals energy corr.    :           0.00000000 Ha           0.00000000 eV
  | Entropy correction            :           0.00000000 Ha           0.00000000 eV
  | ---------------------------
  | Total energy                  :        -306.18061310 Ha       -8331.59838940 eV
  | Total energy, T -> 0          :        -306.18061310 Ha       -8331.59838940 eV  <-- do not rely on this value for anything but (periodic) metals
  | Electronic free energy        :        -306.18061310 Ha       -8331.59838940 eV

  Derived energy quantities:
  | Kinetic energy                :         305.20586104 Ha        8305.07403654 eV
  | Electrostatic energy          :        -574.16628683 Ha      -15623.85959799 eV
  | Energy correction for multipole
  | error in Hartree potential    :          -0.00712799 Ha          -0.19396253 eV
  | Sum of eigenvalues per atom                           :        -376.16986471 eV
  | Total energy (T->0) per atom                          :        -694.29986578 eV  <-- do not rely on this value for anything but (periodic) metals
  | Electronic free energy per atom                       :        -694.29986578 eV

  Self-consistency convergence accuracy:
  | Change of charge density      : 0.1616E-02
  | Change of sum of eigenvalues  : 0.4376E-01 eV
  | Change of total energy        : 0.3821E-04 eV

  End self-consistency iteration #     8       :  max(cpu_time)    wall_clock(cpu1)
  | Time for this iteration                    :        1.138 s           1.138 s
  | Charge density update                      :        0.355 s           0.355 s
  | Density mixing                             :        0.011 s           0.011 s
  | Hartree multipole update                   :        0.004 s           0.004 s
  | Hartree multipole summation                :        0.208 s           0.208 s
  | Integration                                :        0.529 s           0.529 s
  | Solution of K.-S. eqns.                    :        0.031 s           0.031 s
  | Total energy evaluation                    :        0.000 s           0.000 s
------------------------------------------------------------

------------------------------------------------------------
          Begin self-consistency iteration #    9

  Date     :  20150727, Time     :  121952.405
------------------------------------------------------------
  Evaluating new KS density.
  Integration grid: deviation in total charge (<rho> - N_e) =  -2.131628E-14
  Pulay mixing of updated and previous charge densities.

  Evaluating partitioned Hartree potential by multipole expansion.
  | Analytical far-field extrapolation by fixed multipoles:
  | Hartree multipole sum: apparent total charge =  -0.605929E-05
  Summing up the Hartree potential.
  Time summed over all CPUs for potential: real work        1.652 s, elapsed        1.660 s
  | RMS charge density error from multipole expansion :   0.155336E-01

  Integrating Hamiltonian matrix: batch-based integration.
  Time summed over all CPUs for integration: real work        4.082 s, elapsed        4.210 s

  Updating Kohn-Sham eigenvalues, eigenvectors, occupation numbers, and Fermi level.
  Solving generalized eigenproblem
  Updating Kohn-Sham eigenvalues and eigenfunctions.
  Solving real generalised eigenvalue problem by standard LAPACK (fast)
  Determining occupation numbers for Kohn-Sham eigenstates.
  | Chemical potential (Fermi level) in eV                 : -.20489802E+01
  | Error in electron count due to remaining E_F inaccuracy: 0.00000000E+00
  | Maximum occupation number of highest empty state:  0.00E+00

  Highest occupied state (VBM) at     -4.37639479 eV
  | Occupation number:      2.00000000

  Lowest unoccupied state (CBM) at    -1.56301188 eV
  | Occupation number:      0.00000000

  Overall HOMO-LUMO gap:      2.81338291 eV.

  Total energy components:
  | Sum of eigenvalues            :        -165.88681942 Ha       -4514.01002659 eV
  | XC energy correction          :         -37.22017974 Ha       -1012.81262206 eV
  | XC potential correction       :          47.57763573 Ha        1294.65333948 eV
  | Free-atom electrostatic energy:        -143.31602604 Ha       -3899.82748961 eV
  | Hartree energy correction     :          -7.33522271 Ha        -199.60156561 eV
  | van der Waals energy corr.    :           0.00000000 Ha           0.00000000 eV
  | Entropy correction            :           0.00000000 Ha           0.00000000 eV
  | ---------------------------
  | Total energy                  :        -306.18061218 Ha       -8331.59836440 eV
  | Total energy, T -> 0          :        -306.18061218 Ha       -8331.59836440 eV  <-- do not rely on this value for anything but (periodic) metals
  | Electronic free energy        :        -306.18061218 Ha       -8331.59836440 eV

  Derived energy quantities:
  | Kinetic energy                :         305.20942260 Ha        8305.17095127 eV
  | Electrostatic energy          :        -574.16985503 Ha      -15623.95669361 eV
  | Energy correction for multipole
  | error in Hartree potential    :          -0.00712489 Ha          -0.19387820 eV
  | Sum of eigenvalues per atom                           :        -376.16750222 eV
  | Total energy (T->0) per atom                          :        -694.29986370 eV  <-- do not rely on this value for anything but (periodic) metals
  | Electronic free energy per atom                       :        -694.29986370 eV

  Self-consistency convergence accuracy:
  | Change of charge density      : 0.6881E-03
  | Change of sum of eigenvalues  : 0.2835E-01 eV
  | Change of total energy        : 0.2500E-04 eV

  End self-consistency iteration #     9       :  max(cpu_time)    wall_clock(cpu1)
  | Time for this iteration                    :        1.139 s           1.139 s
  | Charge density update                      :        0.356 s           0.356 s
  | Density mixing                             :        0.012 s           0.012 s
  | Hartree multipole update                   :        0.004 s           0.004 s
  | Hartree multipole summation                :        0.208 s           0.208 s
  | Integration                                :        0.528 s           0.527 s
  | Solution of K.-S. eqns.                    :        0.031 s           0.031 s
  | Total energy evaluation                    :        0.000 s           0.001 s
------------------------------------------------------------

------------------------------------------------------------
          Begin self-consistency iteration #   10

  Date     :  20150727, Time     :  121953.544
------------------------------------------------------------
  Evaluating new KS density.
  Integration grid: deviation in total charge (<rho> - N_e) =   7.105427E-15
  Pulay mixing of updated and previous charge densities.

  Evaluating partitioned Hartree potential by multipole expansion.
  | Analytical far-field extrapolation by fixed multipoles:
  | Hartree multipole sum: apparent total charge =  -0.605421E-05
  Summing up the Hartree potential.
  Time summed over all CPUs for potential: real work        1.652 s, elapsed        1.660 s
  | RMS charge density error from multipole expansion :   0.155407E-01

  Integrating Hamiltonian matrix: batch-based integration.
  Time summed over all CPUs for integration: real work        4.078 s, elapsed        4.210 s

  Updating Kohn-Sham eigenvalues, eigenvectors, occupation numbers, and Fermi level.
  Solving generalized eigenproblem
[...]
  |                                 -0.00693963       0.09930860      -0.00507939
  |                                  0.00348441      -0.00507939       0.13077299
  ----------------------------------------------------------------------


  Total energy components:
  | Sum of eigenvalues            :        -165.88882525 Ha       -4514.06460825 eV
  | XC energy correction          :         -37.21991720 Ha       -1012.80547798 eV
  | XC potential correction       :          47.57727300 Ha        1294.64346899 eV
  | Free-atom electrostatic energy:        -143.31602604 Ha       -3899.82748961 eV
  | Hartree energy correction     :          -7.33311630 Ha        -199.54424710 eV
  | van der Waals energy corr.    :          -0.00114333 Ha          -0.03111163 eV
  | Entropy correction            :           0.00000000 Ha           0.00000000 eV
  | ---------------------------
  | Total energy                  :        -306.18175512 Ha       -8331.62946557 eV
  | Total energy, T -> 0          :        -306.18175512 Ha       -8331.62946557 eV  <-- do not rely on this value for anything but (periodic) metals
  | Electronic free energy        :        -306.18175512 Ha       -8331.62946557 eV

  Derived energy quantities:
  | Kinetic energy                :         305.21075048 Ha        8305.20708471 eV
  | Electrostatic energy          :        -574.17144507 Ha      -15623.99996068 eV
  | Energy correction for multipole
  | error in Hartree potential    :          -0.00712955 Ha          -0.19400479 eV
  | Sum of eigenvalues per atom                           :        -376.17205069 eV
  | Total energy (T->0) per atom                          :        -694.30245546 eV  <-- do not rely on this value for anything but (periodic) metals
  | Electronic free energy per atom                       :        -694.30245546 eV

  atomic forces [eV/Ang]:
  -----------------------
  atom #    1
   Hellmann-Feynman + Multipole  : -.661431E+01 -.101241E+02 0.276475E+01
   Pulay + GGA                   : 0.598597E+01 0.126070E+02 -.370080E+01
   Van der Waals               : -.197517E-02 -.504063E-02 0.292480E-02
   ----------------------------------------------------------------
   Total forces(   1)            : -.630313E+00 0.247791E+01 -.933123E+00
  atom #    2
   Hellmann-Feynman + Multipole  : 0.194101E+01 -.341170E+01 0.139401E+01
   Pulay + GGA                   : -.170263E-02 0.574431E-01 -.239150E-01
   Van der Waals               : -.122399E-02 0.230037E-03 0.183645E-02
   ----------------------------------------------------------------
   Total forces(   2)            : 0.193809E+01 -.335403E+01 0.137193E+01
  atom #    3
   Hellmann-Feynman + Multipole  : -.213555E+01 -.635669E+00 -.215032E+00
   Pulay + GGA                   : 0.605727E-01 0.173899E-01 0.241720E-01
   Van der Waals               : -.543485E-04 0.376418E-03 0.170094E-02
   ----------------------------------------------------------------
   Total forces(   3)            : -.207503E+01 -.617903E+00 -.189159E+00
  atom #    4
   Hellmann-Feynman + Multipole  : -.599834E+01 -.923780E+01 0.924356E+01
   Pulay + GGA                   : 0.609132E+01 0.104118E+02 -.669611E+01
   Van der Waals               : 0.211044E-04 0.253779E-02 0.672083E-03
   ----------------------------------------------------------------
   Total forces(   4)            : 0.930019E-01 0.117652E+01 0.254811E+01
  atom #    5
   Hellmann-Feynman + Multipole  : -.469377E+00 -.760528E+00 -.485713E+00
   Pulay + GGA                   : 0.523796E-01 0.121440E+00 0.366865E-01
   Van der Waals               : 0.215834E-02 0.334903E-03 0.134597E-02
   ----------------------------------------------------------------
   Total forces(   5)            : -.414839E+00 -.638753E+00 -.447680E+00
  atom #    6
   Hellmann-Feynman + Multipole  : -.237141E+00 0.404776E+00 -.232487E+01
   Pulay + GGA                   : -.387612E-01 0.447688E-01 -.126714E+00
   Van der Waals               : 0.106790E-02 -.224857E-03 0.449115E-03
   ----------------------------------------------------------------
   Total forces(   6)            : -.274835E+00 0.449320E+00 -.245113E+01
  atom #    7
   Hellmann-Feynman + Multipole  : -.648728E+01 0.516313E+00 -.100593E+02
   Pulay + GGA                   : 0.950643E+01 -.827920E-01 0.115359E+02
   Van der Waals               : 0.325250E-03 0.236699E-02 0.111591E-02
   ----------------------------------------------------------------
   Total forces(   7)            : 0.301948E+01 0.435888E+00 0.147775E+01
  atom #    8
   Hellmann-Feynman + Multipole  : -.214756E+00 -.102530E+01 -.117014E+01
   Pulay + GGA                   : 0.421978E-01 0.943866E-01 0.870256E-01
   Van der Waals               : -.115182E-02 0.266854E-02 0.182049E-02
   ----------------------------------------------------------------
   Total forces(   8)            : -.173710E+00 -.928244E+00 -.108129E+01
  atom #    9
   Hellmann-Feynman + Multipole  : -.164982E+01 0.103593E+01 -.312138E+00
   Pulay + GGA                   : 0.128231E+00 -.539549E-01 0.208141E-01
   Van der Waals               : -.126692E-02 0.342655E-03 0.148809E-04
   ----------------------------------------------------------------
   Total forces(   9)            : -.152286E+01 0.982317E+00 -.291309E+00
  atom #   10
   Hellmann-Feynman + Multipole  : 0.642806E+01 -.857135E+01 -.110130E+02
   Pulay + GGA                   : -.770931E+01 0.101239E+02 0.125346E+02
   Van der Waals               : 0.149564E-02 -.241505E-02 -.833320E-02
   ----------------------------------------------------------------
   Total forces(  10)            : -.127976E+01 0.155018E+01 0.151330E+01
  atom #   11
   Hellmann-Feynman + Multipole  : -.504736E+00 0.323853E+00 -.228917E+01
   Pulay + GGA                   : 0.235783E-01 0.163689E-01 0.145073E+00
   Van der Waals               : 0.181338E-03 -.252497E-03 -.955439E-03
   ----------------------------------------------------------------
   Total forces(  11)            : -.480977E+00 0.339970E+00 -.214505E+01
  atom #   12
   Hellmann-Feynman + Multipole  : 0.190096E+01 -.198336E+01 0.661579E+00
   Pulay + GGA                   : -.947424E-01 0.114443E+00 -.188067E-01
   Van der Waals               : 0.422672E-03 -.924303E-03 -.259201E-02
   ----------------------------------------------------------------
   Total forces(  12)            : 0.180664E+01 -.186984E+01 0.640180E+00
  Timings for vdw_correction_hirshfeld (Tkatchenko-Scheffler 2009):
  | CPU time:        2.987 s, Wall clock time:        2.986 s.
  Removing unitary transformations (pure translations, rotations) from forces on atoms.
  Atomic forces before filtering:
  | Net force on center of mass :  0.489448E-02 0.335152E-02 0.125273E-01 eV/A
  | Net torque on center of mass:  -.238733E-02 0.206697E-02 0.266129E-02 eV
  Atomic forces after filtering:
  | Net force on center of mass :  0.000000E+00 -.356812E-15 0.535218E-15 eV/A
  | Net torque on center of mass:  0.188817E-15 -.755268E-15 -.141613E-14 eV
 
  Energy and forces in a compact form:
  | Total energy uncorrected      :         -0.833162946557245E+04 eV
  | Total energy corrected        :         -0.833162946557245E+04 eV  <-- do not rely on this value for anything but (periodic) metals
  | Electronic free energy        :         -0.833162946557245E+04 eV
  Total atomic forces (unitary forces cleaned) [eV/Ang]:
  |   1         -0.630796773668974E+00          0.247770502159625E+01         -0.934250771632407E+00
  |   2          0.193768593947655E+01         -0.335418001585200E+01          0.137082231649464E+01
  |   3         -0.207549599370465E+01         -0.618188474576444E+00         -0.190234210642093E+00
  |   4          0.927106945487064E-01          0.117644156663136E+01          0.254703160973492E+01
  |   5         -0.415084969223579E+00         -0.638884107511140E+00         -0.448707822825686E+00
  |   6         -0.275078209457628E+00          0.449291057679371E+00         -0.245221475049356E+01
  |   7          0.301905576445951E+01          0.435496986062432E+00          0.147675600411945E+01
  |   8         -0.174118841907152E+00         -0.928675995459210E+00         -0.108225059614636E+01
  |   9         -0.152333318497311E+01          0.981858721112153E+00         -0.292294233716485E+00
  |  10         -0.128024556305571E+01          0.154978774815888E+01          0.151226975079866E+01
  |  11         -0.481513443240317E+00          0.339518436087187E+00         -0.214608089670342E+01
  |  12          0.180621458074636E+01         -0.187017094392884E+01          0.639153601012344E+00
 
  ------------------------------------ 
  Start decomposition of the XC Energy 
  ------------------------------------ 
  Hartree-Fock part   :          0.000000000 Ha              0.000000000 eV
  ------------------------------------ 
  X Energy            :        -35.913606999 Ha           -977.258968819 eV
  C Energy GGA        :         -1.306310201 Ha            -35.546509160 eV
  Total XC Energy     :        -37.219917200 Ha          -1012.805477979 eV
  LDA X and C from self-consistent density 
  X Energy LDA        :        -32.358417232 Ha           -880.517333110 eV
  C Energy LDA        :         -2.636436732 Ha            -71.741093619 eV
  ------------------------------------ 
  End decomposition of the XC Energy 
  ------------------------------------ 
  Performing Hirshfeld analysis of fragment charges and moments.
  ----------------------------------------------------------------------
  | Atom     1: O
  |   Hirshfeld charge        :     -0.42747033
  |   Free atom volume        :     23.95238533
  |   Hirshfeld volume        :     25.31278907
  |   Hirshfeld dipole vector :      0.03889344       0.07610513      -0.01678187
  |   Hirshfeld dipole moment :      0.08709949
  |   Hirshfeld second moments:     -0.02390793      -0.02908664       0.02782855
  |                                 -0.02908664      -0.08856663      -0.02260632
  |                                  0.02782855      -0.02260632      -0.13247544
  ----------------------------------------------------------------------
  | Atom     2: H
  |   Hirshfeld charge        :      0.05452241
  |   Free atom volume        :     10.44207651
  |   Hirshfeld volume        :      8.78465122
  |   Hirshfeld dipole vector :     -0.02119905       0.04590428      -0.01896147
  |   Hirshfeld dipole moment :      0.05400130
  |   Hirshfeld second moments:      0.06392638       0.02638754       0.00205566
  |                                  0.02638754       0.01937413       0.01474758
  |                                  0.00205566       0.01474758       0.05096328
  ----------------------------------------------------------------------
  | Atom     3: H
  |   Hirshfeld charge        :      0.04019765
  |   Free atom volume        :     10.44207651
  |   Hirshfeld volume        :      8.99622445
  |   Hirshfeld dipole vector :      0.05298005       0.01576348       0.00667379
  |   Hirshfeld dipole moment :      0.05567685
  |   Hirshfeld second moments:      0.01464319      -0.03037237       0.00609589
  |                                 -0.03037237       0.06162346      -0.00455575
  |                                  0.00609589      -0.00455575       0.04244846
  ----------------------------------------------------------------------
  | Atom     4: O
  |   Hirshfeld charge        :     -0.17415536
  |   Free atom volume        :     23.95238533
  |   Hirshfeld volume        :     19.94543981
  |   Hirshfeld dipole vector :      0.03083171      -0.01056051      -0.01651620
  |   Hirshfeld dipole moment :      0.03653634
  |   Hirshfeld second moments:      0.04936219       0.02089479       0.02893231
  |                                  0.02089479       0.09304039       0.01405213
  |                                  0.02893231       0.01405213       0.11101358
  ----------------------------------------------------------------------
  | Atom     5: H
  |   Hirshfeld charge        :      0.18011324
  |   Free atom volume        :     10.44207651
  |   Hirshfeld volume        :      5.77568476
  |   Hirshfeld dipole vector :      0.05947866       0.09218621       0.04667279
  |   Hirshfeld dipole moment :      0.11922398
  |   Hirshfeld second moments:      0.11869057      -0.00017445       0.00332683
  |                                 -0.00017445       0.12633478      -0.00119852
  |                                  0.00332683      -0.00119852       0.14703103
  ----------------------------------------------------------------------
  | Atom     6: H
  |   Hirshfeld charge        :      0.17377642
  |   Free atom volume        :     10.44207651
  |   Hirshfeld volume        :      5.67120449
  |   Hirshfeld dipole vector :     -0.01772565       0.00799518      -0.12019407
  |   Hirshfeld dipole moment :      0.12175688
  |   Hirshfeld second moments:      0.12698849       0.01143071       0.00833034
  |                                  0.01143071       0.14083070       0.00494149
  |                                  0.00833034       0.00494149       0.13010104
  ----------------------------------------------------------------------
  | Atom     7: O
  |   Hirshfeld charge        :     -0.18684522
  |   Free atom volume        :     23.95238533
  |   Hirshfeld volume        :     20.59922090
  |   Hirshfeld dipole vector :     -0.01879829      -0.02857284       0.03213641
  |   Hirshfeld dipole moment :      0.04693114
  |   Hirshfeld second moments:      0.06874993      -0.02859955       0.00792282
  |                                 -0.02859955       0.07767521       0.03875517
  |                                  0.00792282       0.03875517       0.04488271
  ----------------------------------------------------------------------
  | Atom     8: H
  |   Hirshfeld charge        :      0.16554501
  |   Free atom volume        :     10.44207651
  |   Hirshfeld volume        :      6.35126498
  |   Hirshfeld dipole vector :      0.00516299       0.07017815       0.08723473
  |   Hirshfeld dipole moment :      0.11207822
  |   Hirshfeld second moments:      0.12449789      -0.01048551       0.01262478
  |                                 -0.01048551       0.12613996      -0.00227909
  |                                  0.01262478      -0.00227909       0.09991819
  ----------------------------------------------------------------------
  | Atom     9: H
  |   Hirshfeld charge        :      0.17090629
  |   Free atom volume        :     10.44207651
  |   Hirshfeld volume        :      5.80856507
  |   Hirshfeld dipole vector :      0.08996029      -0.07905809       0.01332693
  |   Hirshfeld dipole moment :      0.12050163
  |   Hirshfeld second moments:      0.12337653       0.00102836       0.00076060
  |                                  0.00102836       0.12897240       0.01553720
  |                                  0.00076060       0.01553720       0.13138408
  ----------------------------------------------------------------------
  | Atom    10: O
  |   Hirshfeld charge        :     -0.28713474
  |   Free atom volume        :     23.95238533
  |   Hirshfeld volume        :     22.18667482
  |   Hirshfeld dipole vector :     -0.02816976       0.01948782       0.03562504
  |   Hirshfeld dipole moment :      0.04942119
  |   Hirshfeld second moments:     -0.00840456      -0.05352644       0.02675942
  |                                 -0.05352644      -0.01505925      -0.02552747
  |                                  0.02675942      -0.02552747       0.04115589
  ----------------------------------------------------------------------
  | Atom    11: H
  |   Hirshfeld charge        :      0.14504844
  |   Free atom volume        :     10.44207651
  |   Hirshfeld volume        :      6.29531888
  |   Hirshfeld dipole vector :      0.01963144      -0.01624522       0.12314225
  |   Hirshfeld dipole moment :      0.12575100
  |   Hirshfeld second moments:      0.11494855      -0.01965944       0.00466191
  |                                 -0.01965944       0.11352835      -0.00447222
  |                                  0.00466191      -0.00447222       0.10853991
  ----------------------------------------------------------------------
  | Atom    12: H
  |   Hirshfeld charge        :      0.14552854
  |   Free atom volume        :     10.44207651
  |   Hirshfeld volume        :      6.40226802
  |   Hirshfeld dipole vector :     -0.08842882       0.08417844      -0.02389192
  |   Hirshfeld dipole moment :      0.12440454
  |   Hirshfeld second moments:      0.10145185      -0.00693963       0.00348441
  |                                 -0.00693963       0.09930860      -0.00507939
  |                                  0.00348441      -0.00507939       0.13077299
  ----------------------------------------------------------------------


------------------------------------------------------------------------------
  Final output of selected total energy values:

  The following output summarizes some interesting total energy values
  at the end of a run (AFTER all relaxation, molecular dynamics, etc.).

  | Total energy of the DFT / Hartree-Fock s.c.f. calculation      :          -8331.629465572 eV
  | Final zero-broadening corrected energy (caution - metals only) :          -8331.629465572 eV
  | For reference only, the value of 1 Hartree used in FHI-aims is :             27.211384500 eV

  Before relying on these values, please be sure to understand exactly which
  total energy value is referred to by a given number. Different objects may
  all carry the same name 'total energy'. Definitions:

  Total energy of the DFT / Hartree-Fock s.c.f. calculation:
  | Note that this energy does not include ANY quantities calculated after the
  | s.c.f. cycle, in particular not ANY RPA, MP2, etc. many-body perturbation terms.

  Final zero-broadening corrected energy:
  | For metallic systems only, a broadening of the occupation numbers at the Fermi
  | level can be extrapolated back to zero broadening by an electron-gas inspired
  | formula. For all systems that are not real metals, this value can be
  | meaningless and should be avoided.

------------------------------------------------------------------------------

------------------------------------------------------------
          Leaving FHI-aims.
          Date     :  20150727, Time     :  122004.520

          Computational steps:
          | Number of self-consistency cycles          :           15

          Detailed time accounting                     :  max(cpu_time)    wall_clock(cpu1)
          | Total time                                 :       22.952 s          22.991 s
          | Preparation time                           :        0.171 s           0.556 s
          | Grid partitioning                          :        0.117 s           0.116 s
          | Preloading free-atom quantities on grid    :        0.014 s           0.013 s
          | Free-atom superposition energy             :        0.046 s           0.046 s
          | Total time for integrations                :        8.735 s           8.738 s
          | Total time for solution of K.-S. equations :        0.580 s           0.581 s
          | Total time for density & force components  :        8.339 s           8.339 s
          | Total time for mixing                      :        0.148 s           0.152 s
          | Total time for Hartree multipole update    :        0.062 s           0.062 s
          | Total time for Hartree multipole sum       :        4.158 s           4.158 s
          | Total time for total energy evaluation     :        0.003 s           0.005 s
          | Total time for scaled ZORA corrections     :        0.000 s           0.000 s
          | Total time for TS (2009) vdW correction    :        0.036 s           0.036 s

          Have a nice day.
------------------------------------------------------------
