  MPI-parallelism will be employed.
------------------------------------------------------------
          Invoking FHI-aims ...
          Version 081213
          Compiled on 2013/08/29 at 17:41:06 on host generoso.

          When using FHI-aims, please cite the following reference:

          Volker Blum, Ralf Gehrke, Felix Hanke, Paula Havu,
          Ville Havu, Xinguo Ren, Karsten Reuter, and Matthias Scheffler,
          'Ab Initio Molecular Simulations with Numeric Atom-Centered Orbitals: FHI-aims',
          Computer Physics Communications 180, 2175-2196 (2009)

          For any questions about FHI-aims, please visit the aimsclub website
          with its forums and wiki. Contributions to both the forums and the
          wiki are warmly encouraged - they are for you, and everyone is welcome there.

------------------------------------------------------------

  Date     :  20150727, Time     :  113656.204
  Time zero on CPU 1             :   0.419920000000000E-01  s.
  Internal wall clock time zero  :           207229016.204  s.

  Using        8 parallel tasks.
  Task        0 on host gen60 reporting.
  Task        1 on host gen60 reporting.
  Task        2 on host gen60 reporting.
  Task        3 on host gen60 reporting.
  Task        4 on host gen60 reporting.
  Task        5 on host gen60 reporting.
  Task        6 on host gen60 reporting.
  Task        7 on host gen60 reporting.

  Performing system and environment tests:
  | Environment variable OMP_NUM_THREADS correctly set to 1.
  | Checking for scalapack...
  | No scalapack compiled in.

  Obtaining array dimensions for all initial allocations:
  
  -----------------------------------------------------------------------
  Parsing control.in (first pass over file, find array dimensions only).
  The contents of control.in will be repeated verbatim below
  unless switched off by setting 'verbatim_writeout .false.' .
  in the first line of control.in .
  -----------------------------------------------------------------------
  
  #########################################################################################
  #
  #  Volker Blum, FHI 2008 : Test run input file control.in
  #
  #########################################################################################
  #
  #  Physical model
  #
    xc                 rpbe
    spin               none
    relativistic       atomic_zora scalar
    charge             0.
   vdw_correction_hirshfeld
  #
  #  SCF convergence
  #
    occupation_type    gaussian 0.01
    mixer              pulay
      n_max_pulay        10
      charge_mix_param   0.1
    sc_accuracy_rho    5E-5
    sc_accuracy_eev    5E-3
    sc_accuracy_etot   5E-6
    sc_iter_limit      3000
  #
  #  Eigenvalue solver
  #
    KS_method          lapack
      empty_states       8
      basis_threshold    0.e-5
  #
  #  Efficiency
  #
  #   all previous settings are now default, except stratmann still
  #   undecided. Continue to handle stratmann with care, if at all.
  #
  #  partition_type stratmann
    partition_type rho_r2
  #  hartree_partition_type stratmann
  #
  #  Oprions for large clusters (100's of atoms: memory saving / better scaling)
  #
  # for periodic systems:
  #
    density_update_method orbital
    packed_matrix_format none
  #  k_grid 6 6 6
  #  output k_eigenvalue 1
  #  distributed_spline_storage .true.
  #
  #  Relaxation
  #
  #  relax_geometry   bfgs 5.e-3
    sc_accuracy_forces 5.E-4
    final_forces_cleaned .true.
  #
  #  Output options
  #
  #  output mulliken
    output Hirshfeld
  #  output dipole
  
  #harmonic_length_scale 0.001
  
  ################################################################################
  #
  #  FHI-aims code project
  #  VB, Fritz-Haber Institut, 2007
  #
  #  Suggested "safe" defaults for H atom (to be pasted into control.in file)
  #  Basis constructed for a non-relativistic H2 molecule using the
  #  PW-LDA functional.
  #
  ################################################################################
    species        H
  #     global species definitions
      nucleus             1
      cut_pot             4.0  2.0  1.0
      cut_free_atom       finite 8.0
      logarithmic         0.00010000 100.00  1.0123
      basis_dep_cutoff    1d-4  # 1d-4 is safe default - please check 5d-4 if you wish!
      radial_base         24 7.0
      radial_multiplier   2
      angular_grids       specified
        division   0.2783  110
        division   0.3822  194
        division   0.5626  302
  #      division   0.5922  434
  #      division   0.6227  590
  #      division   0.7206  770
        outer_grid  302
      l_hartree           4
  ################################################################################
  #
  #  Definition of "minimal" basis
  #
  ################################################################################
  #     valence basis states
      valence      1  s   1.
  #     ion occupancy
      ion_occ      1  s   0.5
  ################################################################################
  #
  #  Suggested additional basis functions. For production calculations,
  #  uncomment them one after another (the most important basis functions are
  #  listed first).
  #
  ################################################################################
  #  "First tier" - improvements: -1014.90 meV to -62.69 meV
       hydro 2 s 2.1
       hydro 2 p 3.5
  #  "Second tier" - improvements: -12.89 meV to -1.83 meV
       hydro 1 s 0.85
       hydro 2 p 3.7
       hydro 2 s 1.2
       hydro 3 d 7
  #  "Third tier" - improvements: -0.25 meV to -0.12 meV
  #     hydro 4 f 11.2
  #     hydro 3 p 4.8
  #     hydro 4 d 9
  #     hydro 3 s 3.2
  
  ################################################################################
  #
  #  FHI-aims code project
  #  VB, Fritz-Haber Institut, 2007
  #
  #  Suggested "safe" defaults for O atom (to be pasted into control.in file)
  #  All values have been tested for a non-relativistic, non-spinpolarized O2
  #  molecule using the PW-LDA functional. Validity for PBE is expected.
  #
  #  Constructed for dimers: 1.0 A, 1.208 A, 1.5 A, 2.0 A, 3.0 A
  #
  ################################################################################
    species        O
  #     global species definitions
      nucleus             8
      mass                15.9994
      l_hartree           4
      cut_pot             4.0  2.0  1.0
      cut_free_atom       finite 8.0
      basis_dep_cutoff    1d-4  # 1d-4 is safe default - please check 5d-4 if you wish!
      logarithmic         0.00010000 100.00  1.0123
      radial_base         36 7.0
      radial_multiplier   2
       angular_grids specified
        division   0.4087  110
        division   0.5181  194
        division   0.6184  302
  #      division   0.7315  434
  #      division   0.7934  590
  #      division   0.9656  770
  #      division   1.4041  974
  #      outer_grid 974
        outer_grid 302
  ################################################################################
  #
  #  Definition of "minimal" basis
  #
  ################################################################################
  #     valence basis states
      valence      2  s   2.
      valence      2  p   4.
  #     ion occupancy
      ion_occ      2  s   1.
      ion_occ      2  p   3.
  ################################################################################
  #
  #  Suggested additional basis functions. For production calculations,
  #  uncomment them one after another (the most important basis functions are
  #  listed first).
  #
  ################################################################################
  #  "First tier" - improvements: -699.05 meV to -159.38 meV
       hydro 2 p 1.8
       hydro 3 d 7.6
       hydro 3 s 6.4
  #  "Second tier" - improvements: -49.91 meV to -5.39 meV
       hydro 4 f 11.6
       hydro 3 p 6.2
       hydro 3 d 5.6
       hydro 5 g 17.6
       hydro 1 s 0.75
  #  "Third tier" - improvements: -2.83 meV to -0.50 meV
  #     ionic 2 p auto
  #     hydro 4 f 10.8
  #     hydro 4 d 4.7
  #     hydro 2 s 6.8
  #  "Fourth tier" - improvements: -0.40 meV to -0.12 meV
  #     hydro 3 p 5
  #     hydro 3 s 3.3
  #     hydro 5 g 15.6
  #     hydro 4 f 17.6
  #     hydro 4 d 14
  # Further basis functions - -0.08 meV and below
  #     hydro 3 s 2.1
  #     hydro 4 d 11.6
  #     hydro 3 p 16
  #     hydro 2 s 17.2
  
  
  -----------------------------------------------------------------------
  Completed first pass over input file control.in .
  -----------------------------------------------------------------------
  
  
  -----------------------------------------------------------------------
  Parsing geometry.in (first pass over file, find array dimensions only).
  The contents of geometry.in will be repeated verbatim below
  unless switched off by setting 'verbatim_writeout .false.' .
  in the first line of geometry.in .
  -----------------------------------------------------------------------
  
  atom      -4.053030000      0.065001000     -1.525160000  O
  atom      -4.566710000      0.974813000     -1.912820000  H
  atom      -3.067820000      0.330172000     -1.477310000  H
  atom      -4.581760000     -0.256435000      0.939478000  O
  atom      -4.349860000      0.471090000      1.504340000  H
  atom      -5.393870000     -0.726611000      1.228070000  H
  atom      -5.293160000      2.192130000     -2.328800000  O
  atom      -4.829300000      2.988660000     -1.973850000  H
  atom      -5.428570000      2.328640000     -3.235170000  H
  atom      -1.645860000      0.870179000     -1.502250000  O
  atom      -1.568890000      1.501730000     -0.721051000  H
  atom      -0.824432000      0.282220000     -1.377720000  H
  atom      -3.818880000      2.024990000      2.187990000  O
  atom      -3.690880000      1.961360000      3.202150000  H
  atom      -4.546490000      2.751300000      2.045370000  H
  atom      -4.066610000      4.258280000     -0.900064000  O
  atom      -3.224110000      3.876870000     -0.569443000  H
  atom      -3.737450000      5.116530000     -1.322720000  H
  
  -----------------------------------------------------------------------
  Completed first pass over input file geometry.in .
  -----------------------------------------------------------------------
  
 
  Basic array size parameters: 
  | Number of species                 :        2
  | Number of atoms                   :       18
  | Max. basis fn. angular momentum   :        4
  | Max. atomic/ionic basis occupied n:        2
  | Max. number of basis fn. types    :        2
  | Max. radial fns per species/type  :        8
  | Max. logarithmic grid size        :     1301
  | Max. radial integration grid size :       73
  | Max. angular integration grid size:      302
  | Max. angular grid division number :        8
  | Radial grid for Hartree potential :     1301
  | Number of spin channels           :        1

------------------------------------------------------------
          Reading file control.in.
------------------------------------------------------------
  XC: Using RPBE gradient-corrected functionals.
  Spin treatment: No spin polarisation.
  Scalar relativistic treatment of kinetic energy: on-site free-atom approximation to ZORA.
  Charge =   0.000000E+00: Neutral system requested explicitly.
  Using non-empirical van der Waals correction (Hirshfeld partitioning):
  Occupation type: Gaussian broadening, width =   0.100000E-01 eV.
  Using pulay charge density mixing.
  Pulay mixing - number of memorized iterations:   10
  Charge density mixing - mixing parameter:     0.1000
  Convergence accuracy of self-consistent charge density: 0.5000E-04
  Convergence accuracy of sum of eigenvalues: 0.5000E-02
  Convergence accuracy of total energy: 0.5000E-05
  Maximum number of s.-c. iterations  :  3000
  Kohn-Sham eigenvalues and eigenfunctions calculated by lapack diagonalisation (D&C).
  Number of empty states per atom:        8
  Threshold for basis singularities: 0.0000E+00
  Partition function in integrals calculations: rho / r^2
 Using packed matrix format           0
  Convergence accuracy of forces: 0.5000E-03
  Cleaning forces before final output.
  Hirshfeld charge analysis will be performed.
 
  Reading configuration options for species H                   .
  | Found nuclear charge :   1.0000
  | Found cutoff potl. onset [A], width [A], scale factor :    4.00000    2.00000    1.00000
  | Found cutoff specification for free atom: Cutoff potential begins at    8.00000 A.
  | Found logarithmic grid data [bohr] : 0.1000E-03 0.1000E+03 0.1012E+01
  | Threshold for basis-dependent cutoff potential is   0.100000E-03
  | Found data for basic radial integration grid :    24 points, outermost radius =    7.000 A
  | Found multiplier for basic radial grid :   2
  | Found angular grid specification: user-specified.
  | Specified grid contains     4 separate shells.
  | Check grid settings after all constraints further below.
  | Found l_max for Hartree potential  :   4
  | Found free-atom valence shell :  1 s   1.000
  | No ionic wave fns used. Skipping ion_occ.
  | Found hydrogenic basis function :  2 s   2.100
  | Found hydrogenic basis function :  2 p   3.500
  | Found hydrogenic basis function :  1 s   0.850
  | Found hydrogenic basis function :  2 p   3.700
  | Found hydrogenic basis function :  2 s   1.200
  | Found hydrogenic basis function :  3 d   7.000
  Species H                   : Missing cutoff potential type.
  Defaulting to exp(1/x)/(1-x)^2 type cutoff potential.
  Species H : On-site basis accuracy parameter (for Gram-Schmidt orthonormalisation) not specified.
  Using default value basis_acc =  0.1000000E-03.
  Species H                   : Using default innermost maximum threshold i_radial=  2 for radial functions.
  Species H                   : Basic radial grid will be enhanced according to radial_multiplier =   2, to contain    49 grid points.
 
  Reading configuration options for species O                   .
  | Found nuclear charge :   8.0000
  | Found atomic mass :    15.9994000000000      amu
  | Found l_max for Hartree potential  :   4
  | Found cutoff potl. onset [A], width [A], scale factor :    4.00000    2.00000    1.00000
  | Found cutoff specification for free atom: Cutoff potential begins at    8.00000 A.
  | Threshold for basis-dependent cutoff potential is   0.100000E-03
  | Found logarithmic grid data [bohr] : 0.1000E-03 0.1000E+03 0.1012E+01
  | Found data for basic radial integration grid :    36 points, outermost radius =    7.000 A
  | Found multiplier for basic radial grid :   2
  | Found angular grid specification: user-specified.
  | Specified grid contains     4 separate shells.
  | Check grid settings after all constraints further below.
  | Found free-atom valence shell :  2 s   2.000
  | Found free-atom valence shell :  2 p   4.000
  | No ionic wave fns used. Skipping ion_occ.
  | No ionic wave fns used. Skipping ion_occ.
  | Found hydrogenic basis function :  2 p   1.800
  | Found hydrogenic basis function :  3 d   7.600
  | Found hydrogenic basis function :  3 s   6.400
  | Found hydrogenic basis function :  4 f  11.600
  | Found hydrogenic basis function :  3 p   6.200
  | Found hydrogenic basis function :  3 d   5.600
  | Found hydrogenic basis function :  5 g  17.600
  | Found hydrogenic basis function :  1 s   0.750
  Species O                   : Missing cutoff potential type.
  Defaulting to exp(1/x)/(1-x)^2 type cutoff potential.
  Species O : On-site basis accuracy parameter (for Gram-Schmidt orthonormalisation) not specified.
  Using default value basis_acc =  0.1000000E-03.
  Species O                   : Using default innermost maximum threshold i_radial=  2 for radial functions.
  Species O                   : Basic radial grid will be enhanced according to radial_multiplier =   2, to contain    73 grid points.
 
  Finished reading input file 'control.in'. Consistency checks are next.
 
  Target number of points in a grid batch is not set. Defaulting to  100
  Method for grid partitioning is not set. Defaulting to parallel hash+maxmin partitioning.
  Batch size limit is not set. Defaulting to    200
  By default, will store active basis functions for each batch.
  If in need of memory, prune_basis_once .false. can be used to disable this option.
  communication_type for Hartree potential was not specified.
  Defaulting to calc_hartree .
  Pulay mixer: Number of initial linear mixing iterations not set.
  Defaulting to    0 iterations.
  Work space size for distributed Hartree potential not set.
  Defaulting to   0.200000E+03 MB.
  Algorithm-dependent basis array size parameters:
  | n_max_pulay                         :       10
  Geometry relaxation not requested: no relaxation will be performed.
  Handling of forces: Unphysical translation and rotation will be removed from forces.
  No accuracy limit for integral partition fn. given. Defaulting to 0.1000E-14.
  No threshold value for u(r) in integrations given. Defaulting to 0.1000E-05.
  No accuracy for occupation numbers given. Defaulting to 0.1000E-07.
  No threshold value for occupation numbers given. Defaulting to 0.0000E+00.
  No accuracy for fermi level given. Defaulting to 0.1000E-19.
  Maximum # of iterations to find E_F not set. Defaulting to  200.
  Will not use alltoall communication since running on < 1024 CPUs.
  Partitioning for Hartree potential was not defined. Using partition_type for integrals.
  | Reporting present value of keyword multip_moments_threshold  :       0.10000000E-09
  | This value may affect high angular momentum components of the Hartree potential in periodic systems.
  No q(lm)/r^(l+1) cutoff set for long-range Hartree potential.
  | Using default value of  0.100000E-09 .
  | Verify using the multipole_threshold keyword.
  Defaulting to new monopole extrapolation.
  Density update method: Loop over occupied states selected for charge density update.
------------------------------------------------------------


------------------------------------------------------------
          Reading geometry description geometry.in.
------------------------------------------------------------
  Input structure read successfully.
  The structure contains       18 atoms,  and a total of         60.000 electrons.

  Input geometry:
  | No unit cell requested.
  | Atomic structure:
  |       Atom                x [A]            y [A]            z [A]
  |    1: Species O             -4.053030         0.065001        -1.525160
  |    2: Species H             -4.566710         0.974813        -1.912820
  |    3: Species H             -3.067820         0.330172        -1.477310
  |    4: Species O             -4.581760        -0.256435         0.939478
  |    5: Species H             -4.349860         0.471090         1.504340
  |    6: Species H             -5.393870        -0.726611         1.228070
  |    7: Species O             -5.293160         2.192130        -2.328800
  |    8: Species H             -4.829300         2.988660        -1.973850
  |    9: Species H             -5.428570         2.328640        -3.235170
  |   10: Species O             -1.645860         0.870179        -1.502250
  |   11: Species H             -1.568890         1.501730        -0.721051
  |   12: Species H             -0.824432         0.282220        -1.377720
  |   13: Species O             -3.818880         2.024990         2.187990
  |   14: Species H             -3.690880         1.961360         3.202150
  |   15: Species H             -4.546490         2.751300         2.045370
  |   16: Species O             -4.066610         4.258280        -0.900064
  |   17: Species H             -3.224110         3.876870        -0.569443
  |   18: Species H             -3.737450         5.116530        -1.322720
  |

  | The smallest distance between any two atoms is         0.92654057 AA.
  |
  | The first atom of this pair is atom number                      7 .
  | The second atom of this pair is atom number                     9 .

  Structure-dependent array size parameters: 
  | Maximum number of distinct radial functions  :       18
  | Maximum number of basis functions            :      414
  | Number of Kohn-Sham states (occupied + empty):      102
------------------------------------------------------------

------------------------------------------------------------
          Preparing all fixed parts of the calculation.
------------------------------------------------------------
  Determining machine precision:
    2.225073858507201E-308
  Setting up grids for atomic and cluster calculations.

  Creating wave function, potential, and density for free atoms.

  Species: H

  List of occupied orbitals and eigenvalues:
    n    l              occ      energy [Ha]    energy [eV]
    1    0           1.0000        -0.241408        -6.5691


  Species: O

  List of occupied orbitals and eigenvalues:
    n    l              occ      energy [Ha]    energy [eV]
    1    0           2.0000       -18.944147      -515.4965
    2    0           2.0000        -0.883529       -24.0421
    2    1           4.0000        -0.330176        -8.9845

  Creating fixed part of basis set: Ionic, confined, hydrogenic.
 
  H                    hydrogenic:
 
  List of hydrogenic basis orbitals: 
    n    l      effective z      eigenvalue [eV]  inner max. [A]     outer max. [A]     outer radius [A]   
    2    0         2.100000       -14.9965           0.193241           1.317192           5.372934
    2    1         3.500000       -41.6672           0.602363           0.602363           4.056010
    1    0         0.850000        -9.8292           0.624864           0.624864           5.372934
    2    1         3.700000       -46.5653           0.573616           0.573616           3.909951
    2    0         1.200000        -4.5995           0.334977           2.228160           5.505921
    3    2         7.000000       -74.0753           0.680692           0.680692           3.769152
 
 
  O                    hydrogenic:
 
  List of hydrogenic basis orbitals: 
    n    l      effective z      eigenvalue [eV]  inner max. [A]     outer max. [A]     outer radius [A]   
    2    1         1.800000       -11.0118           1.178546           1.178546           5.432516
    3    2         7.600000       -87.3182           0.624117           0.624117           3.541422
    3    0         6.400000       -61.9209           0.061166           1.081887           4.306510
    4    3        11.600000      -114.4238           0.731621           0.731621           3.584982
    3    1         6.200000       -58.1113           0.255677           1.030255           4.306510
    3    2         5.600000       -47.4081           0.847222           0.847222           4.413102
    5    4        17.600000      -168.5799           0.749730           0.749730           3.372413
    1    0         0.750000        -7.6499           0.705275           0.705275           5.366508
 

  Adding cutoff potential to free-atom effective potential.
  Creating atomic-like basis functions for current effective potential.

  Species H                   :

  List of atomic basis orbitals and eigenvalues:
    n    l      energy [Ha]    energy [eV]    outer radius [A]
    1    0        -0.241374        -6.5681       5.372934


  Species O                   :

  List of atomic basis orbitals and eigenvalues:
    n    l      energy [Ha]    energy [eV]    outer radius [A]
    1    0       -18.944147      -515.4965       1.415745
    2    0        -0.883529       -24.0421       5.048305
    2    1        -0.330173        -8.9845       5.301302

  Assembling full basis from fixed parts.
  | Species H :   atomic orbital   1 s accepted.
  | Species H :    hydro orbital   2 s accepted.
  | Species H :    hydro orbital   1 s accepted.
  | Species H :    hydro orbital   2 s accepted.
  | Species H :    hydro orbital   2 p accepted.
  | Species H :    hydro orbital   2 p accepted.
  | Species H :    hydro orbital   3 d accepted.
  | Species O :   atomic orbital   1 s accepted.
  | Species O :    hydro orbital   3 s accepted.
  | Species O :   atomic orbital   2 s accepted.
  | Species O :    hydro orbital   1 s accepted.
  | Species O :    hydro orbital   3 p accepted.
  | Species O :   atomic orbital   2 p accepted.
  | Species O :    hydro orbital   2 p accepted.
  | Species O :    hydro orbital   3 d accepted.
  | Species O :    hydro orbital   3 d accepted.
  | Species O :    hydro orbital   4 f accepted.
  | Species O :    hydro orbital   5 g accepted.
 
  Basis size parameters after reduction:
  | Total number of radial functions:       18
  | Total number of basis functions :      414
 
  Testing on-site integration grid accuracy.
  |  Species  Function  <phi|h_atom|phi> (log., in eV)  <phi|h_atom|phi> (rad., in eV)
           1        1                 -6.5683835025                 -6.5684759159
           1        2                 13.3711789951                 13.3708738703
           1        3                 23.6590910787                 23.6532055418
           1        4                 16.2963827186                 16.1870710655 ***
           1        5                 28.7627214838                 28.7627215090
           1        6                 59.5965249172                 59.5965950857
           1        7                 60.2220506392                 60.2220503827
           2        8               -515.4964576505               -515.4964530710
           2        9                 15.3030791347                 15.3030722972
           2       10                -21.7296094581                -21.7296135470
           2       11                 14.2969371730                 14.2969701621
           2       12                 21.0679693190                 21.0679697493
           2       13                 -2.3833606469                 -2.3833613176
           2       14                 13.7067136422                 13.7066766629
           2       15                 45.8013116808                 45.8013116965
           2       16                 52.2309815402                 52.2309831494
           2       17                 85.4120732416                 85.4120732763
           2       18                142.1019167745                142.1019167817
 * Note: Onsite integrals marked "***" above are less accurate than
 * onsite_accuracy_threshold =    0.03000 eV. Usually, this is harmless.
 * When in doubt, tighten the "radial" and/or "radial_multiplier" flags to check.

  Preparing densities etc. for the partition functions (integrals / Hartree potential).

  Preparations completed.
  max(cpu_time)          :      0.172 s.
  Wall clock time (cpu1) :      0.571 s.
------------------------------------------------------------

------------------------------------------------------------
          Begin self-consistency loop: Initialization.

          Date     :  20150727, Time     :  113656.839
------------------------------------------------------------

  Initializing index lists of integration centers etc. from given atomic structure:
  | Number of centers in hartree potential         :        18
  | Number of centers in hartree multipole         :        18
  | Number of centers in electron density summation:        18
  | Number of centers in basis integrals           :        18
  | Number of centers in integrals                 :        18
  Partitioning the integration grid into batches with parallel hashing+maxmin method.
  | Number of batches:     2226
  | Maximal batch size:     199
  | Minimal batch size:      52
  | Average batch size:     106.043
  | Standard deviation of batch sizes:      33.939

  Integration load balanced across     8 MPI tasks.
  Work distribution over tasks is as follows:
  Task     0 has      29539 integration points.
  Task     1 has      29476 integration points.
  Task     2 has      29519 integration points.
  Task     3 has      29552 integration points.
  Task     4 has      29525 integration points.
  Task     5 has      29518 integration points.
  Task     6 has      29450 integration points.
  Task     7 has      29473 integration points.
  Initializing partition tables, free-atom densities, potentials, etc. across the integration grid (initialize_grid_storage).
  | Net number of integration points:   236052
  | of which are non-zero points    :   235483
  Obtaining max. number of non-zero basis functions in each batch (get_n_compute_maxes).
  | Maximal number of non-zero basis functions:      410 in task     0
  | Maximal number of non-zero basis functions:      410 in task     1
  | Maximal number of non-zero basis functions:      409 in task     2
  | Maximal number of non-zero basis functions:      410 in task     3
  | Maximal number of non-zero basis functions:      409 in task     4
  | Maximal number of non-zero basis functions:      410 in task     5
  | Maximal number of non-zero basis functions:      410 in task     6
  | Maximal number of non-zero basis functions:      410 in task     7
  Integrating Hamiltonian matrix: batch-based integration.
  Time summed over all CPUs for integration: real work       10.643 s, elapsed       10.921 s
  Integrating overlap matrix.
  Time summed over all CPUs for integration: real work        5.815 s, elapsed        5.972 s

  Updating Kohn-Sham eigenvalues, eigenvectors, occupation numbers, and Fermi level.
  Solving generalized eigenproblem
  Updating Kohn-Sham eigenvalues and eigenfunctions.
  Transforming overlap matrix and checking for singularities.
  Overlap matrix is nonsingular:
  | Lowest eigenvalue:  0.225779E-03
  Solving real generalised eigenvalue problem by standard LAPACK (fast)
  Determining occupation numbers for Kohn-Sham eigenstates.
  | Chemical potential (Fermi level) in eV                 : -.31502635E+01
  | Error in electron count due to remaining E_F inaccuracy: 0.00000000E+00
  | Maximum occupation number of highest empty state:  0.00E+00

  Writing Kohn-Sham eigenvalues.

  State    Occupation    Eigenvalue [Ha]    Eigenvalue [eV]
      1       2.00000         -19.064899         -518.78231
      2       2.00000         -19.052086         -518.43364
      3       2.00000         -19.042872         -518.18290
      4       2.00000         -19.042434         -518.17099
      5       2.00000         -19.032051         -517.88845
      6       2.00000         -19.019932         -517.55868
      7       2.00000          -1.122158          -30.53548
      8       2.00000          -1.100275          -29.94001
      9       2.00000          -1.086862          -29.57501
     10       2.00000          -1.086553          -29.56662
     11       2.00000          -1.064254          -28.95983
     12       2.00000          -1.042354          -28.36389
     13       2.00000          -0.653318          -17.77768
     14       2.00000          -0.648444          -17.64507
     15       2.00000          -0.609362          -16.58158
     16       2.00000          -0.606223          -16.49618
     17       2.00000          -0.600807          -16.34879
     18       2.00000          -0.593819          -16.15864
     19       2.00000          -0.550499          -14.97985
     20       2.00000          -0.513134          -13.96308
     21       2.00000          -0.507289          -13.80403
     22       2.00000          -0.499230          -13.58475
     23       2.00000          -0.491433          -13.37258
     24       2.00000          -0.475579          -12.94117
     25       2.00000          -0.441474          -12.01312
     26       2.00000          -0.440072          -11.97497
     27       2.00000          -0.433610          -11.79912
     28       2.00000          -0.430384          -11.71135
     29       2.00000          -0.424454          -11.54998
     30       2.00000          -0.402693          -10.95784
     31       0.00000          -0.101862           -2.77180
     32       0.00000          -0.074991           -2.04061
     33       0.00000          -0.065628           -1.78582
     34       0.00000          -0.050654           -1.37837
     35       0.00000          -0.037993           -1.03384
     36       0.00000          -0.019177           -0.52184
     37       0.00000          -0.014501           -0.39460
     38       0.00000           0.019747            0.53733
     39       0.00000           0.027134            0.73836
     40       0.00000           0.036699            0.99863
     41       0.00000           0.049931            1.35870
     42       0.00000           0.060815            1.65486
     43       0.00000           0.073022            1.98702
     44       0.00000           0.076826            2.09055
     45       0.00000           0.085954            2.33893
     46       0.00000           0.095354            2.59471
     47       0.00000           0.100831            2.74375
     48       0.00000           0.101671            2.76661
     49       0.00000           0.105970            2.88360
     50       0.00000           0.117014            3.18412
     51       0.00000           0.123415            3.35830
     52       0.00000           0.128247            3.48977
     53       0.00000           0.133974            3.64561
     54       0.00000           0.137851            3.75111
     55       0.00000           0.147213            4.00587
     56       0.00000           0.148088            4.02967
     57       0.00000           0.156020            4.24551
     58       0.00000           0.178225            4.84974
     59       0.00000           0.180951            4.92393
     60       0.00000           0.194698            5.29800
     61       0.00000           0.210620            5.73125
     62       0.00000           0.225753            6.14305
     63       0.00000           0.239681            6.52204
     64       0.00000           0.244238            6.64604
     65       0.00000           0.253371            6.89458
     66       0.00000           0.264344            7.19316
     67       0.00000           0.267633            7.28266
     68       0.00000           0.276596            7.52656
     69       0.00000           0.301132            8.19421
     70       0.00000           0.309727            8.42809
     71       0.00000           0.331526            9.02129
     72       0.00000           0.337982            9.19695
     73       0.00000           0.357667            9.73262
     74       0.00000           0.360103            9.79890
     75       0.00000           0.361966            9.84960
     76       0.00000           0.375116           10.20743
     77       0.00000           0.389414           10.59649
     78       0.00000           0.399033           10.85825
     79       0.00000           0.408226           11.10839
     80       0.00000           0.414651           11.28324
     81       0.00000           0.423761           11.53112
     82       0.00000           0.437147           11.89537
     83       0.00000           0.445729           12.12891
     84       0.00000           0.449371           12.22801
     85       0.00000           0.461540           12.55915
     86       0.00000           0.466594           12.69666
     87       0.00000           0.483240           13.14964
     88       0.00000           0.500133           13.60932
     89       0.00000           0.523829           14.25410
     90       0.00000           0.541450           14.73362
     91       0.00000           0.552887           15.04483
     92       0.00000           0.563007           15.32021
     93       0.00000           0.578166           15.73270
     94       0.00000           0.580902           15.80713
     95       0.00000           0.599793           16.32119
     96       0.00000           0.653345           17.77843
     97       0.00000           0.657569           17.89335
     98       0.00000           0.672931           18.31140
     99       0.00000           0.700697           19.06694
    100       0.00000           0.718178           19.54261
    101       0.00000           0.738875           20.10581
    102       0.00000           0.761448           20.72004

  Highest occupied state (VBM) at    -10.95783667 eV
  | Occupation number:      2.00000000

  Lowest unoccupied state (CBM) at    -2.77180218 eV
  | Occupation number:      0.00000000

  Overall HOMO-LUMO gap:      8.18603449 eV.
  Calculating total energy contributions from superposition of free atom densities.

  Total energy components:
  | Sum of eigenvalues            :        -260.15711110 Ha       -7079.23518057 eV
  | XC energy correction          :         -54.68196626 Ha       -1487.97200922 eV
  | XC potential correction       :          69.87488590 Ha        1901.39238713 eV
  | Free-atom electrostatic energy:        -214.72901460 Ha       -5843.07377952 eV
  | Hartree energy correction     :           0.00000000 Ha           0.00000000 eV
  | van der Waals energy corr.    :           0.00000000 Ha           0.00000000 eV
  | Entropy correction            :           0.00000000 Ha           0.00000000 eV
  | ---------------------------
  | Total energy                  :        -459.69320606 Ha      -12508.88858219 eV
  | Total energy, T -> 0          :        -459.69320606 Ha      -12508.88858219 eV  <-- do not rely on this value for anything but (periodic) metals
  | Electronic free energy        :        -459.69320606 Ha      -12508.88858219 eV

  Derived energy quantities:
  | Kinetic energy                :         454.99598669 Ha       12381.07073980 eV
  | Electrostatic energy          :        -860.00722649 Ha      -23401.98731277 eV
  | Energy correction for multipole
  | error in Hartree potential    :           0.00000000 Ha           0.00000000 eV
  | Sum of eigenvalues per atom                           :        -393.29084337 eV
  | Total energy (T->0) per atom                          :        -694.93825457 eV  <-- do not rely on this value for anything but (periodic) metals
  | Electronic free energy per atom                       :        -694.93825457 eV
  Initialize hartree_potential_storage
  Max. number of atoms included in rho_multipole:           18

  End scf initialization - timings             :  max(cpu_time)    wall_clock(cpu1)
  | Time for scf. initialization               :        2.900 s           2.899 s
  | Boundary condition initialization          :        0.000 s           0.000 s
  | Integration                                :        2.117 s           2.117 s
  | Solution of K.-S. eqns.                    :        0.295 s           0.295 s
  | Grid partitioning                          :        0.192 s           0.192 s
  | Preloading free-atom quantities on grid    :        0.014 s           0.014 s
  | Free-atom superposition energy             :        0.088 s           0.088 s
  | Total energy evaluation                    :        0.000 s           0.000 s
------------------------------------------------------------

------------------------------------------------------------
          Begin self-consistency iteration #    1

  Date     :  20150727, Time     :  113659.739
------------------------------------------------------------
  Evaluating new KS density.
  Integration grid: deviation in total charge (<rho> - N_e) =  -1.421085E-14
  Pulay mixing of updated and previous charge densities.

  Evaluating partitioned Hartree potential by multipole expansion.
  | Analytical far-field extrapolation by fixed multipoles:
  | Hartree multipole sum: apparent total charge =  -0.219034E-05
  Summing up the Hartree potential.
  Time summed over all CPUs for potential: real work        3.783 s, elapsed        3.806 s
  | RMS charge density error from multipole expansion :   0.176422E-02

  Integrating Hamiltonian matrix: batch-based integration.
  Time summed over all CPUs for integration: real work       10.640 s, elapsed       10.882 s

  Updating Kohn-Sham eigenvalues, eigenvectors, occupation numbers, and Fermi level.
  Solving generalized eigenproblem
  Updating Kohn-Sham eigenvalues and eigenfunctions.
  Solving real generalised eigenvalue problem by standard LAPACK (fast)
  Determining occupation numbers for Kohn-Sham eigenstates.
  | Chemical potential (Fermi level) in eV                 : -.27170699E+01
  | Error in electron count due to remaining E_F inaccuracy: 0.00000000E+00
  | Maximum occupation number of highest empty state:  0.00E+00

  Writing Kohn-Sham eigenvalues.

  State    Occupation    Eigenvalue [Ha]    Eigenvalue [eV]
      1       2.00000         -18.990143         -516.74809
      2       2.00000         -18.976410         -516.37439
      3       2.00000         -18.975137         -516.33974
      4       2.00000         -18.965146         -516.06788
      5       2.00000         -18.957705         -515.86540
      6       2.00000         -18.916479         -514.74357
      7       2.00000          -1.084291          -29.50507
      8       2.00000          -1.055989          -28.73493
      9       2.00000          -1.052663          -28.64442
     10       2.00000          -1.049705          -28.56393
     11       2.00000          -1.030784          -28.04906
     12       2.00000          -0.983107          -26.75172
     13       2.00000          -0.620063          -16.87276
     14       2.00000          -0.603362          -16.41832
     15       2.00000          -0.580778          -15.80378
     16       2.00000          -0.576237          -15.68022
     17       2.00000          -0.567356          -15.43855
     18       2.00000          -0.561500          -15.27920
     19       2.00000          -0.511141          -13.90886
     20       2.00000          -0.480192          -13.06668
     21       2.00000          -0.465786          -12.67469
     22       2.00000          -0.458545          -12.47764
     23       2.00000          -0.448085          -12.19300
     24       2.00000          -0.430895          -11.72525
     25       2.00000          -0.400738          -10.90463
     26       2.00000          -0.396400          -10.78658
     27       2.00000          -0.392134          -10.67051
     28       2.00000          -0.385077          -10.47846
     29       2.00000          -0.382033          -10.39566
     30       2.00000          -0.341166           -9.28361
     31       0.00000          -0.094363           -2.56775
     32       0.00000          -0.067692           -1.84200
     33       0.00000          -0.058907           -1.60294
     34       0.00000          -0.039752           -1.08170
     35       0.00000          -0.027174           -0.73945
     36       0.00000          -0.012742           -0.34674
     37       0.00000          -0.008144           -0.22160
     38       0.00000           0.032244            0.87739
     39       0.00000           0.038140            1.03785
     40       0.00000           0.046166            1.25623
     41       0.00000           0.059914            1.63035
     42       0.00000           0.070335            1.91390
     43       0.00000           0.083030            2.25936
     44       0.00000           0.085654            2.33077
     45       0.00000           0.097627            2.65657
     46       0.00000           0.105184            2.86220
     47       0.00000           0.107747            2.93195
     48       0.00000           0.113486            3.08811
     49       0.00000           0.120930            3.29067
     50       0.00000           0.127513            3.46980
     51       0.00000           0.134877            3.67019
     52       0.00000           0.137661            3.74596
     53       0.00000           0.147953            4.02602
     54       0.00000           0.153619            4.18018
     55       0.00000           0.157282            4.27987
     56       0.00000           0.164580            4.47846
     57       0.00000           0.180425            4.90962
     58       0.00000           0.190781            5.19141
     59       0.00000           0.194270            5.28634
     60       0.00000           0.204718            5.57066
     61       0.00000           0.224276            6.10287
     62       0.00000           0.234696            6.38639
     63       0.00000           0.253433            6.89627
     64       0.00000           0.257498            7.00689
     65       0.00000           0.263685            7.17523
     66       0.00000           0.272142            7.40537
     67       0.00000           0.278858            7.58810
     68       0.00000           0.287234            7.81603
     69       0.00000           0.314287            8.55219
     70       0.00000           0.322043            8.76324
     71       0.00000           0.342976            9.33284
     72       0.00000           0.350268            9.53128
     73       0.00000           0.366660            9.97731
     74       0.00000           0.372337           10.13180
     75       0.00000           0.373717           10.16935
     76       0.00000           0.384094           10.45173
     77       0.00000           0.400730           10.90442
     78       0.00000           0.412109           11.21405
     79       0.00000           0.418098           11.37703
     80       0.00000           0.426603           11.60846
     81       0.00000           0.436525           11.87846
     82       0.00000           0.447019           12.16402
     83       0.00000           0.453983           12.35351
     84       0.00000           0.459246           12.49671
     85       0.00000           0.470204           12.79490
     86       0.00000           0.480248           13.06821
     87       0.00000           0.494619           13.45928
     88       0.00000           0.510731           13.89769
     89       0.00000           0.537626           14.62955
     90       0.00000           0.554474           15.08799
     91       0.00000           0.568249           15.46283
     92       0.00000           0.576173           15.67847
     93       0.00000           0.592608           16.12569
     94       0.00000           0.595728           16.21059
     95       0.00000           0.615217           16.74090
     96       0.00000           0.666479           18.13580
     97       0.00000           0.675233           18.37401
     98       0.00000           0.687850           18.71734
     99       0.00000           0.716900           19.50785
    100       0.00000           0.734424           19.98470
    101       0.00000           0.755172           20.54928
    102       0.00000           0.774643           21.07912

  Highest occupied state (VBM) at     -9.28360625 eV
  | Occupation number:      2.00000000

  Lowest unoccupied state (CBM) at    -2.56775487 eV
  | Occupation number:      0.00000000

  Overall HOMO-LUMO gap:      6.71585138 eV.

  Total energy components:
  | Sum of eigenvalues            :        -257.27809718 Ha       -7000.89322573 eV
  | XC energy correction          :         -54.96981952 Ha       -1495.80489496 eV
  | XC potential correction       :          70.25141937 Ha        1911.63838404 eV
  | Free-atom electrostatic energy:        -214.72901460 Ha       -5843.07377952 eV
  | Hartree energy correction     :          -2.78665312 Ha         -75.82868939 eV
  | van der Waals energy corr.    :           0.00000000 Ha           0.00000000 eV
  | Entropy correction            :           0.00000000 Ha           0.00000000 eV
  | ---------------------------
  | Total energy                  :        -459.51216505 Ha      -12503.96220558 eV
  | Total energy, T -> 0          :        -459.51216505 Ha      -12503.96220558 eV  <-- do not rely on this value for anything but (periodic) metals
  | Electronic free energy        :        -459.51216505 Ha      -12503.96220558 eV

  Derived energy quantities:
  | Kinetic energy                :         456.71166639 Ha       12427.75675969 eV
  | Electrostatic energy          :        -861.25401191 Ha      -23435.91407031 eV
  | Energy correction for multipole
  | error in Hartree potential    :          -0.00009614 Ha          -0.00261605 eV
  | Sum of eigenvalues per atom                           :        -388.93851254 eV
  | Total energy (T->0) per atom                          :        -694.66456698 eV  <-- do not rely on this value for anything but (periodic) metals
  | Electronic free energy per atom                       :        -694.66456698 eV

  Self-consistency convergence accuracy:
  | Change of charge density      : 0.7229E+00
  | Change of sum of eigenvalues  : 0.7834E+02 eV
  | Change of total energy        : 0.4926E+01 eV

  End self-consistency iteration #     1       :  max(cpu_time)    wall_clock(cpu1)
  | Time for this iteration                    :        2.835 s           2.834 s
  | Charge density update                      :        0.903 s           0.902 s
  | Density mixing                             :        0.004 s           0.004 s
  | Hartree multipole update                   :        0.006 s           0.006 s
  | Hartree multipole summation                :        0.477 s           0.477 s
  | Integration                                :        1.363 s           1.363 s
  | Solution of K.-S. eqns.                    :        0.081 s           0.081 s
  | Total energy evaluation                    :        0.000 s           0.001 s
------------------------------------------------------------

------------------------------------------------------------
          Begin self-consistency iteration #    2

  Date     :  20150727, Time     :  113702.573
------------------------------------------------------------
  Evaluating new KS density.
  Integration grid: deviation in total charge (<rho> - N_e) =  -2.842171E-14
  Pulay mixing of updated and previous charge densities.

  Evaluating partitioned Hartree potential by multipole expansion.
  | Analytical far-field extrapolation by fixed multipoles:
  | Hartree multipole sum: apparent total charge =  -0.617932E-05
  Summing up the Hartree potential.
  Time summed over all CPUs for potential: real work        3.783 s, elapsed        3.806 s
  | RMS charge density error from multipole expansion :   0.706344E-02

  Integrating Hamiltonian matrix: batch-based integration.
  Time summed over all CPUs for integration: real work       10.602 s, elapsed       10.873 s

  Updating Kohn-Sham eigenvalues, eigenvectors, occupation numbers, and Fermi level.
  Solving generalized eigenproblem
  Updating Kohn-Sham eigenvalues and eigenfunctions.
  Solving real generalised eigenvalue problem by standard LAPACK (fast)
  Determining occupation numbers for Kohn-Sham eigenstates.
  | Chemical potential (Fermi level) in eV                 : -.27594836E+01
  | Error in electron count due to remaining E_F inaccuracy: 0.00000000E+00
  | Maximum occupation number of highest empty state:  0.00E+00

  Highest occupied state (VBM) at     -5.21266876 eV
  | Occupation number:      2.00000000

  Lowest unoccupied state (CBM) at    -2.14298475 eV
  | Occupation number:      0.00000000

  Overall HOMO-LUMO gap:      3.06968402 eV.

  Total energy components:
  | Sum of eigenvalues            :        -250.42589440 Ha       -6814.43530134 eV
  | XC energy correction          :         -55.68054972 Ha       -1515.14484767 eV
  | XC potential correction       :          71.18030250 Ha        1936.91458013 eV
  | Free-atom electrostatic energy:        -214.72901460 Ha       -5843.07377952 eV
  | Hartree energy correction     :          -9.64212238 Ha        -262.37549958 eV
  | van der Waals energy corr.    :           0.00000000 Ha           0.00000000 eV
  | Entropy correction            :           0.00000000 Ha           0.00000000 eV
  | ---------------------------
  | Total energy                  :        -459.29727861 Ha      -12498.11484799 eV
  | Total energy, T -> 0          :        -459.29727861 Ha      -12498.11484799 eV  <-- do not rely on this value for anything but (periodic) metals
  | Electronic free energy        :        -459.29727861 Ha      -12498.11484799 eV

  Derived energy quantities:
  | Kinetic energy                :         460.15461399 Ha       12521.44413062 eV
  | Electrostatic energy          :        -863.77134287 Ha      -23504.41413093 eV
  | Energy correction for multipole
  | error in Hartree potential    :          -0.00132323 Ha          -0.03600683 eV
  | Sum of eigenvalues per atom                           :        -378.57973896 eV
  | Total energy (T->0) per atom                          :        -694.33971378 eV  <-- do not rely on this value for anything but (periodic) metals
  | Electronic free energy per atom                       :        -694.33971378 eV

  Self-consistency convergence accuracy:
  | Change of charge density      : 0.5468E+00
  | Change of sum of eigenvalues  : 0.1865E+03 eV
  | Change of total energy        : 0.5847E+01 eV

  End self-consistency iteration #     2       :  max(cpu_time)    wall_clock(cpu1)
  | Time for this iteration                    :        2.820 s           2.819 s
  | Charge density update                      :        0.888 s           0.887 s
  | Density mixing                             :        0.006 s           0.007 s
  | Hartree multipole update                   :        0.006 s           0.006 s
  | Hartree multipole summation                :        0.476 s           0.477 s
  | Integration                                :        1.362 s           1.361 s
  | Solution of K.-S. eqns.                    :        0.081 s           0.081 s
  | Total energy evaluation                    :        0.000 s           0.000 s
------------------------------------------------------------

------------------------------------------------------------
          Begin self-consistency iteration #    3

  Date     :  20150727, Time     :  113705.393
------------------------------------------------------------
  Evaluating new KS density.
  Integration grid: deviation in total charge (<rho> - N_e) =  -7.105427E-15
  Pulay mixing of updated and previous charge densities.

  Evaluating partitioned Hartree potential by multipole expansion.
  | Analytical far-field extrapolation by fixed multipoles:
  | Hartree multipole sum: apparent total charge =  -0.537156E-05
  Summing up the Hartree potential.
  Time summed over all CPUs for potential: real work        3.782 s, elapsed        3.807 s
  | RMS charge density error from multipole expansion :   0.139454E-01

  Integrating Hamiltonian matrix: batch-based integration.
  Time summed over all CPUs for integration: real work       10.596 s, elapsed       10.857 s

  Updating Kohn-Sham eigenvalues, eigenvectors, occupation numbers, and Fermi level.
  Solving generalized eigenproblem
  Updating Kohn-Sham eigenvalues and eigenfunctions.
  Solving real generalised eigenvalue problem by standard LAPACK (fast)
  Determining occupation numbers for Kohn-Sham eigenstates.
  | Chemical potential (Fermi level) in eV                 : -.25921524E+01
  | Error in electron count due to remaining E_F inaccuracy: 0.00000000E+00
  | Maximum occupation number of highest empty state:  0.00E+00

  Highest occupied state (VBM) at     -4.80755428 eV
  | Occupation number:      2.00000000

  Lowest unoccupied state (CBM) at    -2.15321164 eV
  | Occupation number:      0.00000000

  Overall HOMO-LUMO gap:      2.65434264 eV.

  Total energy components:
  | Sum of eigenvalues            :        -250.60004927 Ha       -6819.17429627 eV
  | XC energy correction          :         -55.63826896 Ha       -1513.99432961 eV
  | XC potential correction       :          71.11919672 Ha        1935.25180719 eV
  | Free-atom electrostatic energy:        -214.72901460 Ha       -5843.07377952 eV
  | Hartree energy correction     :          -9.44089729 Ha        -256.89988609 eV
  | van der Waals energy corr.    :           0.00000000 Ha           0.00000000 eV
  | Entropy correction            :           0.00000000 Ha           0.00000000 eV
  | ---------------------------
  | Total energy                  :        -459.28903339 Ha      -12497.89048431 eV
  | Total energy, T -> 0          :        -459.28903339 Ha      -12497.89048431 eV  <-- do not rely on this value for anything but (periodic) metals
  | Electronic free energy        :        -459.28903339 Ha      -12497.89048431 eV

  Derived energy quantities:
  | Kinetic energy                :         457.74553969 Ha       12455.88988375 eV
  | Electrostatic energy          :        -861.39630413 Ha      -23439.78603846 eV
  | Energy correction for multipole
  | error in Hartree potential    :          -0.00645375 Ha          -0.17561550 eV
  | Sum of eigenvalues per atom                           :        -378.84301646 eV
  | Total energy (T->0) per atom                          :        -694.32724913 eV  <-- do not rely on this value for anything but (periodic) metals
  | Electronic free energy per atom                       :        -694.32724913 eV

  Self-consistency convergence accuracy:
  | Change of charge density      : 0.2740E+00
  | Change of sum of eigenvalues  : -.4739E+01 eV
  | Change of total energy        : 0.2244E+00 eV

  End self-consistency iteration #     3       :  max(cpu_time)    wall_clock(cpu1)
  | Time for this iteration                    :        2.818 s           2.817 s
  | Charge density update                      :        0.885 s           0.884 s
  | Density mixing                             :        0.009 s           0.009 s
  | Hartree multipole update                   :        0.006 s           0.006 s
  | Hartree multipole summation                :        0.477 s           0.477 s
  | Integration                                :        1.360 s           1.359 s
  | Solution of K.-S. eqns.                    :        0.080 s           0.081 s
  | Total energy evaluation                    :        0.000 s           0.001 s
------------------------------------------------------------

------------------------------------------------------------
          Begin self-consistency iteration #    4

  Date     :  20150727, Time     :  113708.210
------------------------------------------------------------
  Evaluating new KS density.
  Integration grid: deviation in total charge (<rho> - N_e) =  -7.105427E-15
  Pulay mixing of updated and previous charge densities.

  Evaluating partitioned Hartree potential by multipole expansion.
  | Analytical far-field extrapolation by fixed multipoles:
  | Hartree multipole sum: apparent total charge =  -0.636808E-05
  Summing up the Hartree potential.
  Time summed over all CPUs for potential: real work        3.782 s, elapsed        3.805 s
  | RMS charge density error from multipole expansion :   0.187933E-01

  Integrating Hamiltonian matrix: batch-based integration.
  Time summed over all CPUs for integration: real work       10.598 s, elapsed       10.857 s

  Updating Kohn-Sham eigenvalues, eigenvectors, occupation numbers, and Fermi level.
  Solving generalized eigenproblem
  Updating Kohn-Sham eigenvalues and eigenfunctions.
  Solving real generalised eigenvalue problem by standard LAPACK (fast)
  Determining occupation numbers for Kohn-Sham eigenstates.
  | Chemical potential (Fermi level) in eV                 : -.31293167E+01
  | Error in electron count due to remaining E_F inaccuracy: 0.00000000E+00
  | Maximum occupation number of highest empty state:  0.00E+00

  Highest occupied state (VBM) at     -3.18831402 eV
  | Occupation number:      2.00000000

  Lowest unoccupied state (CBM) at    -2.03670179 eV
  | Occupation number:      0.00000000

  Overall HOMO-LUMO gap:      1.15161223 eV.

  Total energy components:
  | Sum of eigenvalues            :        -248.20582526 Ha       -6754.02414640 eV
  | XC energy correction          :         -55.90483900 Ha       -1521.24806936 eV
  | XC potential correction       :          71.46631918 Ha        1944.69749013 eV
  | Free-atom electrostatic energy:        -214.72901460 Ha       -5843.07377952 eV
  | Hartree energy correction     :         -11.90078485 Ha        -323.83683240 eV
  | van der Waals energy corr.    :           0.00000000 Ha           0.00000000 eV
  | Entropy correction            :           0.00000000 Ha           0.00000000 eV
  | ---------------------------
  | Total energy                  :        -459.27414452 Ha      -12497.48533756 eV
  | Total energy, T -> 0          :        -459.27414452 Ha      -12497.48533756 eV  <-- do not rely on this value for anything but (periodic) metals
  | Electronic free energy        :        -459.27414452 Ha      -12497.48533756 eV

  Derived energy quantities:
  | Kinetic energy                :         457.93246938 Ha       12460.97649941 eV
  | Electrostatic energy          :        -861.30177491 Ha      -23437.21376761 eV
  | Energy correction for multipole
  | error in Hartree potential    :          -0.00914439 Ha          -0.24883139 eV
  | Sum of eigenvalues per atom                           :        -375.22356369 eV
  | Total energy (T->0) per atom                          :        -694.30474098 eV  <-- do not rely on this value for anything but (periodic) metals
  | Electronic free energy per atom                       :        -694.30474098 eV

  Self-consistency convergence accuracy:
  | Change of charge density      : 0.1551E+00
  | Change of sum of eigenvalues  : 0.6515E+02 eV
  | Change of total energy        : 0.4051E+00 eV

  End self-consistency iteration #     4       :  max(cpu_time)    wall_clock(cpu1)
  | Time for this iteration                    :        2.819 s           2.818 s
  | Charge density update                      :        0.884 s           0.884 s
  | Density mixing                             :        0.010 s           0.010 s
  | Hartree multipole update                   :        0.006 s           0.006 s
  | Hartree multipole summation                :        0.477 s           0.476 s
  | Integration                                :        1.360 s           1.360 s
  | Solution of K.-S. eqns.                    :        0.081 s           0.082 s
  | Total energy evaluation                    :        0.000 s           0.000 s
------------------------------------------------------------

------------------------------------------------------------
          Begin self-consistency iteration #    5

  Date     :  20150727, Time     :  113711.029
------------------------------------------------------------
  Evaluating new KS density.
  Integration grid: deviation in total charge (<rho> - N_e) =  -7.105427E-15
  Pulay mixing of updated and previous charge densities.

  Evaluating partitioned Hartree potential by multipole expansion.
  | Analytical far-field extrapolation by fixed multipoles:
  | Hartree multipole sum: apparent total charge =  -0.615273E-05
  Summing up the Hartree potential.
  Time summed over all CPUs for potential: real work        3.782 s, elapsed        3.806 s
  | RMS charge density error from multipole expansion :   0.192374E-01

  Integrating Hamiltonian matrix: batch-based integration.
  Time summed over all CPUs for integration: real work       10.597 s, elapsed       10.860 s

  Updating Kohn-Sham eigenvalues, eigenvectors, occupation numbers, and Fermi level.
  Solving generalized eigenproblem
  Updating Kohn-Sham eigenvalues and eigenfunctions.
  Solving real generalised eigenvalue problem by standard LAPACK (fast)
  Determining occupation numbers for Kohn-Sham eigenstates.
  | Chemical potential (Fermi level) in eV                 : -.31728354E+01
  | Error in electron count due to remaining E_F inaccuracy: 0.00000000E+00
  | Maximum occupation number of highest empty state:  0.00E+00

  Highest occupied state (VBM) at     -3.24999228 eV
  | Occupation number:      2.00000000

  Lowest unoccupied state (CBM) at    -2.01842430 eV
  | Occupation number:      0.00000000

  Overall HOMO-LUMO gap:      1.23156798 eV.

  Total energy components:
  | Sum of eigenvalues            :        -248.22728856 Ha       -6754.60819252 eV
  | XC energy correction          :         -55.90999734 Ha       -1521.38843489 eV
  | XC potential correction       :          71.47230738 Ha        1944.86043711 eV
  | Free-atom electrostatic energy:        -214.72901460 Ha       -5843.07377952 eV
  | Hartree energy correction     :         -11.87965874 Ha        -323.26196170 eV
  | van der Waals energy corr.    :           0.00000000 Ha           0.00000000 eV
  | Entropy correction            :           0.00000000 Ha           0.00000000 eV
  | ---------------------------
  | Total energy                  :        -459.27365186 Ha      -12497.47193152 eV
  | Total energy, T -> 0          :        -459.27365186 Ha      -12497.47193152 eV  <-- do not rely on this value for anything but (periodic) metals
  | Electronic free energy        :        -459.27365186 Ha      -12497.47193152 eV

  Derived energy quantities:
  | Kinetic energy                :         457.96701505 Ha       12461.91653474 eV
  | Electrostatic energy          :        -861.33066957 Ha      -23438.00003138 eV
  | Energy correction for multipole
  | error in Hartree potential    :          -0.00912079 Ha          -0.24818929 eV
  | Sum of eigenvalues per atom                           :        -375.25601070 eV
  | Total energy (T->0) per atom                          :        -694.30399620 eV  <-- do not rely on this value for anything but (periodic) metals
  | Electronic free energy per atom                       :        -694.30399620 eV

  Self-consistency convergence accuracy:
  | Change of charge density      : 0.3499E-01
  | Change of sum of eigenvalues  : -.5840E+00 eV
  | Change of total energy        : 0.1341E-01 eV

  End self-consistency iteration #     5       :  max(cpu_time)    wall_clock(cpu1)
  | Time for this iteration                    :        2.821 s           2.820 s
  | Charge density update                      :        0.883 s           0.883 s
  | Density mixing                             :        0.011 s           0.011 s
  | Hartree multipole update                   :        0.006 s           0.007 s
  | Hartree multipole summation                :        0.477 s           0.476 s
  | Integration                                :        1.360 s           1.360 s
  | Solution of K.-S. eqns.                    :        0.082 s           0.082 s
  | Total energy evaluation                    :        0.000 s           0.000 s
------------------------------------------------------------

------------------------------------------------------------
          Begin self-consistency iteration #    6

  Date     :  20150727, Time     :  113713.849
------------------------------------------------------------
  Evaluating new KS density.
  Integration grid: deviation in total charge (<rho> - N_e) =   2.842171E-14
  Pulay mixing of updated and previous charge densities.

  Evaluating partitioned Hartree potential by multipole expansion.
  | Analytical far-field extrapolation by fixed multipoles:
  | Hartree multipole sum: apparent total charge =  -0.608007E-05
  Summing up the Hartree potential.
  Time summed over all CPUs for potential: real work        3.782 s, elapsed        3.805 s
  | RMS charge density error from multipole expansion :   0.192885E-01

  Integrating Hamiltonian matrix: batch-based integration.
  Time summed over all CPUs for integration: real work       10.600 s, elapsed       10.859 s

  Updating Kohn-Sham eigenvalues, eigenvectors, occupation numbers, and Fermi level.
  Solving generalized eigenproblem
  Updating Kohn-Sham eigenvalues and eigenfunctions.
  Solving real generalised eigenvalue problem by standard LAPACK (fast)
  Determining occupation numbers for Kohn-Sham eigenstates.
  | Chemical potential (Fermi level) in eV                 : -.31807268E+01
  | Error in electron count due to remaining E_F inaccuracy: 0.00000000E+00
  | Maximum occupation number of highest empty state:  0.00E+00

  Highest occupied state (VBM) at     -3.28650990 eV
  | Occupation number:      2.00000000

  Lowest unoccupied state (CBM) at    -2.01923102 eV
  | Occupation number:      0.00000000

  Overall HOMO-LUMO gap:      1.26727887 eV.

  Total energy components:
  | Sum of eigenvalues            :        -248.27289605 Ha       -6755.84923532 eV
  | XC energy correction          :         -55.90645162 Ha       -1521.29195118 eV
  | XC potential correction       :          71.46748355 Ha        1944.72917410 eV
  | Free-atom electrostatic energy:        -214.72901460 Ha       -5843.07377952 eV
  | Hartree energy correction     :         -11.83270698 Ha        -321.98433920 eV
  | van der Waals energy corr.    :           0.00000000 Ha           0.00000000 eV
  | Entropy correction            :           0.00000000 Ha           0.00000000 eV
  | ---------------------------
  | Total energy                  :        -459.27358570 Ha      -12497.47013113 eV
  | Total energy, T -> 0          :        -459.27358570 Ha      -12497.47013113 eV  <-- do not rely on this value for anything but (periodic) metals
  | Electronic free energy        :        -459.27358570 Ha      -12497.47013113 eV

  Derived energy quantities:
  | Kinetic energy                :         457.96336563 Ha       12461.81722905 eV
  | Electrostatic energy          :        -861.33049970 Ha      -23437.99540900 eV
  | Energy correction for multipole
  | error in Hartree potential    :          -0.00909788 Ha          -0.24756593 eV
  | Sum of eigenvalues per atom                           :        -375.32495752 eV
  | Total energy (T->0) per atom                          :        -694.30389617 eV  <-- do not rely on this value for anything but (periodic) metals
  | Electronic free energy per atom                       :        -694.30389617 eV

  Self-consistency convergence accuracy:
  | Change of charge density      : 0.1518E-01
  | Change of sum of eigenvalues  : -.1241E+01 eV
  | Change of total energy        : 0.1800E-02 eV

  End self-consistency iteration #     6       :  max(cpu_time)    wall_clock(cpu1)
  | Time for this iteration                    :        2.821 s           2.821 s
  | Charge density update                      :        0.883 s           0.883 s
  | Density mixing                             :        0.013 s           0.013 s
  | Hartree multipole update                   :        0.006 s           0.006 s
  | Hartree multipole summation                :        0.477 s           0.477 s
  | Integration                                :        1.360 s           1.360 s
  | Solution of K.-S. eqns.                    :        0.082 s           0.081 s
  | Total energy evaluation                    :        0.000 s           0.000 s
------------------------------------------------------------

------------------------------------------------------------
          Begin self-consistency iteration #    7

  Date     :  20150727, Time     :  113716.670
------------------------------------------------------------
  Evaluating new KS density.
  Integration grid: deviation in total charge (<rho> - N_e) =   1.421085E-14
  Pulay mixing of updated and previous charge densities.

  Evaluating partitioned Hartree potential by multipole expansion.
  | Analytical far-field extrapolation by fixed multipoles:
  | Hartree multipole sum: apparent total charge =  -0.576969E-05
  Summing up the Hartree potential.
  Time summed over all CPUs for potential: real work        3.781 s, elapsed        3.805 s
  | RMS charge density error from multipole expansion :   0.193758E-01

  Integrating Hamiltonian matrix: batch-based integration.
  Time summed over all CPUs for integration: real work       10.594 s, elapsed       10.872 s

  Updating Kohn-Sham eigenvalues, eigenvectors, occupation numbers, and Fermi level.
  Solving generalized eigenproblem
  Updating Kohn-Sham eigenvalues and eigenfunctions.
  Solving real generalised eigenvalue problem by standard LAPACK (fast)
  Determining occupation numbers for Kohn-Sham eigenstates.
  | Chemical potential (Fermi level) in eV                 : -.32183610E+01
  | Error in electron count due to remaining E_F inaccuracy: 0.00000000E+00
  | Maximum occupation number of highest empty state:  0.00E+00

  Highest occupied state (VBM) at     -3.43505147 eV
  | Occupation number:      2.00000000

  Lowest unoccupied state (CBM) at    -2.02525216 eV
  | Occupation number:      0.00000000

  Overall HOMO-LUMO gap:      1.40979930 eV.

  Total energy components:
  | Sum of eigenvalues            :        -248.43452722 Ha       -6760.24744315 eV
  | XC energy correction          :         -55.89557378 Ha       -1520.99595009 eV
  | XC potential correction       :          71.45248044 Ha        1944.32091873 eV
  | Free-atom electrostatic energy:        -214.72901460 Ha       -5843.07377952 eV
  | Hartree energy correction     :         -11.66680892 Ha        -317.47002353 eV
  | van der Waals energy corr.    :           0.00000000 Ha           0.00000000 eV
  | Entropy correction            :           0.00000000 Ha           0.00000000 eV
  | ---------------------------
  | Total energy                  :        -459.27344408 Ha      -12497.46627756 eV
  | Total energy, T -> 0          :        -459.27344408 Ha      -12497.46627756 eV  <-- do not rely on this value for anything but (periodic) metals
  | Electronic free energy        :        -459.27344408 Ha      -12497.46627756 eV

  Derived energy quantities:
  | Kinetic energy                :         458.05052837 Ha       12464.18904799 eV
  | Electrostatic energy          :        -861.42839867 Ha      -23440.65937546 eV
  | Energy correction for multipole
  | error in Hartree potential    :          -0.00885059 Ha          -0.24083671 eV
  | Sum of eigenvalues per atom                           :        -375.56930240 eV
  | Total energy (T->0) per atom                          :        -694.30368209 eV  <-- do not rely on this value for anything but (periodic) metals
  | Electronic free energy per atom                       :        -694.30368209 eV

  Self-consistency convergence accuracy:
  | Change of charge density      : 0.1259E-01
  | Change of sum of eigenvalues  : -.4398E+01 eV
  | Change of total energy        : 0.3854E-02 eV

  End self-consistency iteration #     7       :  max(cpu_time)    wall_clock(cpu1)
  | Time for this iteration                    :        2.824 s           2.824 s
  | Charge density update                      :        0.884 s           0.884 s
  | Density mixing                             :        0.015 s           0.015 s
  | Hartree multipole update                   :        0.006 s           0.006 s
  | Hartree multipole summation                :        0.476 s           0.477 s
  | Integration                                :        1.362 s           1.361 s
  | Solution of K.-S. eqns.                    :        0.081 s           0.081 s
  | Total energy evaluation                    :        0.000 s           0.000 s
------------------------------------------------------------

------------------------------------------------------------
          Begin self-consistency iteration #    8

  Date     :  20150727, Time     :  113719.495
------------------------------------------------------------
  Evaluating new KS density.
  Integration grid: deviation in total charge (<rho> - N_e) =  -1.421085E-14
  Pulay mixing of updated and previous charge densities.

  Evaluating partitioned Hartree potential by multipole expansion.
  | Analytical far-field extrapolation by fixed multipoles:
  | Hartree multipole sum: apparent total charge =  -0.575437E-05
  Summing up the Hartree potential.
  Time summed over all CPUs for potential: real work        3.781 s, elapsed        3.805 s
  | RMS charge density error from multipole expansion :   0.194231E-01

  Integrating Hamiltonian matrix: batch-based integration.
  Time summed over all CPUs for integration: real work       10.597 s, elapsed       10.869 s

  Updating Kohn-Sham eigenvalues, eigenvectors, occupation numbers, and Fermi level.
  Solving generalized eigenproblem
  Updating Kohn-Sham eigenvalues and eigenfunctions.
  Solving real generalised eigenvalue problem by standard LAPACK (fast)
  Determining occupation numbers for Kohn-Sham eigenstates.
  | Chemical potential (Fermi level) in eV                 : -.32170277E+01
  | Error in electron count due to remaining E_F inaccuracy: 0.00000000E+00
  | Maximum occupation number of highest empty state:  0.00E+00

  Highest occupied state (VBM) at     -3.42455604 eV
  | Occupation number:      2.00000000

  Lowest unoccupied state (CBM) at    -2.02574242 eV
  | Occupation number:      0.00000000

  Overall HOMO-LUMO gap:      1.39881362 eV.

  Total energy components:
  | Sum of eigenvalues            :        -248.42871849 Ha       -6760.08937957 eV
  | XC energy correction          :         -55.89590709 Ha       -1521.00501977 eV
  | XC potential correction       :          71.45285828 Ha        1944.33120041 eV
  | Free-atom electrostatic energy:        -214.72901460 Ha       -5843.07377952 eV
  | Hartree energy correction     :         -11.67266166 Ha        -317.62928457 eV
  | van der Waals energy corr.    :           0.00000000 Ha           0.00000000 eV
  | Entropy correction            :           0.00000000 Ha           0.00000000 eV
  | ---------------------------
  | Total energy                  :        -459.27344355 Ha      -12497.46626303 eV
  | Total energy, T -> 0          :        -459.27344355 Ha      -12497.46626303 eV  <-- do not rely on this value for anything but (periodic) metals
  | Electronic free energy        :        -459.27344355 Ha      -12497.46626303 eV

  Derived energy quantities:
  | Kinetic energy                :         458.05328760 Ha       12464.26413034 eV
  | Electrostatic energy          :        -861.43082406 Ha      -23440.72537359 eV
  | Energy correction for multipole
  | error in Hartree potential    :          -0.00887692 Ha          -0.24155320 eV
  | Sum of eigenvalues per atom                           :        -375.56052109 eV
  | Total energy (T->0) per atom                          :        -694.30368128 eV  <-- do not rely on this value for anything but (periodic) metals
  | Electronic free energy per atom                       :        -694.30368128 eV

  Self-consistency convergence accuracy:
  | Change of charge density      : 0.1938E-02
  | Change of sum of eigenvalues  : 0.1581E+00 eV
  | Change of total energy        : 0.1453E-04 eV

  End self-consistency iteration #     8       :  max(cpu_time)    wall_clock(cpu1)
  | Time for this iteration                    :        2.825 s           2.824 s
  | Charge density update                      :        0.884 s           0.883 s
  | Density mixing                             :        0.016 s           0.016 s
  | Hartree multipole update                   :        0.006 s           0.006 s
  | Hartree multipole summation                :        0.477 s           0.477 s
  | Integration                                :        1.361 s           1.361 s
  | Solution of K.-S. eqns.                    :        0.081 s           0.080 s
  | Total energy evaluation                    :        0.000 s           0.000 s
------------------------------------------------------------

------------------------------------------------------------
          Begin self-consistency iteration #    9

  Date     :  20150727, Time     :  113722.319
------------------------------------------------------------
  Evaluating new KS density.
  Integration grid: deviation in total charge (<rho> - N_e) =   1.421085E-14
  Pulay mixing of updated and previous charge densities.

[...]
   Pulay + GGA                   : -.815759E+01 0.799299E+01 0.114960E+02
   Van der Waals               : 0.145549E-02 0.169353E-02 -.121851E-01
   ----------------------------------------------------------------
   Total forces(  13)            : -.114549E+01 0.196325E+01 0.178490E+01
  atom #   14
   Hellmann-Feynman + Multipole  : -.446186E+00 0.310414E+00 -.223653E+01
   Pulay + GGA                   : 0.298298E-01 0.172434E-01 0.128538E+00
   Van der Waals               : -.410376E-03 -.110464E-02 -.246476E-02
   ----------------------------------------------------------------
   Total forces(  14)            : -.416767E+00 0.326553E+00 -.211045E+01
  atom #   15
   Hellmann-Feynman + Multipole  : 0.183048E+01 -.192376E+01 0.551730E+00
   Pulay + GGA                   : -.764838E-01 0.104571E+00 -.100616E-01
   Van der Waals               : 0.131484E-02 0.688122E-03 -.689306E-02
   ----------------------------------------------------------------
   Total forces(  15)            : 0.175531E+01 -.181850E+01 0.534776E+00
  atom #   16
   Hellmann-Feynman + Multipole  : -.131452E+02 -.337919E+01 0.228088E+01
   Pulay + GGA                   : 0.144093E+02 0.486390E+01 -.275938E+01
   Van der Waals               : 0.276112E-02 -.108939E-01 0.457732E-02
   ----------------------------------------------------------------
   Total forces(  16)            : 0.126686E+01 0.147381E+01 -.473927E+00
  atom #   17
   Hellmann-Feynman + Multipole  : -.585334E+00 0.433561E-01 -.102449E+00
   Pulay + GGA                   : 0.122305E+00 -.488763E-01 0.417245E-01
   Van der Waals               : -.181771E-02 -.964122E-02 0.192597E-02
   ----------------------------------------------------------------
   Total forces(  17)            : -.464846E+00 -.151615E-01 -.587988E-01
  atom #   18
   Hellmann-Feynman + Multipole  : -.750398E+00 -.146637E+01 0.688966E+00
   Pulay + GGA                   : 0.430856E-01 0.111197E+00 -.498915E-01
   Van der Waals               : -.149596E-03 -.226637E-02 0.171153E-03
   ----------------------------------------------------------------
   Total forces(  18)            : -.707462E+00 -.135743E+01 0.639245E+00
  Timings for vdw_correction_hirshfeld (Tkatchenko-Scheffler 2009):
  | CPU time:        7.546 s, Wall clock time:        7.546 s.
  Removing unitary transformations (pure translations, rotations) from forces on atoms.
  Atomic forces before filtering:
  | Net force on center of mass :  0.834846E-02 -.200740E-02 0.112236E-01 eV/A
  | Net torque on center of mass:  -.547263E-02 0.599669E-02 -.116102E-01 eV
  Atomic forces after filtering:
  | Net force on center of mass :  0.446015E-15 0.892031E-15 0.713624E-15 eV/A
  | Net torque on center of mass:  0.226580E-14 -.302107E-14 -.151054E-14 eV
 
  Energy and forces in a compact form:
  | Total energy uncorrected      :         -0.124975607999355E+05 eV
  | Total energy corrected        :         -0.124975607999355E+05 eV  <-- do not rely on this value for anything but (periodic) metals
  | Electronic free energy        :         -0.124975607999355E+05 eV
  Total atomic forces (unitary forces cleaned) [eV/Ang]:
  |   1         -0.255689498789288E+00          0.258908814652837E+01         -0.178360900173039E+01
  |   2          0.186124075682311E+01         -0.321921871391460E+01          0.125203190541745E+01
  |   3         -0.229786350165141E+01         -0.716959826735666E+00         -0.229012836734046E+00
  |   4         -0.656120298063477E+00         -0.195246632610503E+01         -0.416240646872427E+00
  |   5         -0.303675371248419E+00          0.688422858090959E+00          0.966871812082067E+00
  |   6          0.611900104701986E+00          0.705299735358328E+00          0.195117198842454E+00
  |   7         -0.170920511902628E+00          0.746523537372305E+00          0.211312727816962E+01
  |   8         -0.253060910423758E+00         -0.240180952766842E+00         -0.135229023151986E+00
  |   9         -0.290611904454867E+00          0.336488724454433E+00         -0.237694491896273E+01
  |  10          0.310518861508864E+01          0.545128230748320E+00          0.145537185883148E+01
  |  11         -0.136304686421164E+00         -0.101846747876761E+01         -0.108118723708214E+01
  |  12         -0.149674261782172E+01          0.963570831593459E+00         -0.272797641633661E+00
  |  13         -0.114622850705544E+01          0.196321973175816E+01          0.178429672088236E+01
  |  14         -0.417578941151556E+00          0.326492514213715E+00         -0.211105230043268E+01
  |  15          0.175447361329075E+01         -0.181863868195391E+01          0.534144262284349E+00
  |  16          0.126603043681181E+01          0.147390867178924E+01         -0.474437877378975E+00
  |  17         -0.465643301538588E+00         -0.149477545426675E-01         -0.592577894028519E-01
  |  18         -0.708393476193985E+00         -0.135726324712096E+01          0.638808236872108E+00
 
  ------------------------------------ 
  Start decomposition of the XC Energy 
  ------------------------------------ 
  Hartree-Fock part   :          0.000000000 Ha              0.000000000 eV
  ------------------------------------ 
  X Energy            :        -53.928173523 Ha          -1467.460265122 eV
  C Energy GGA        :         -1.966272180 Ha            -53.504988321 eV
  Total XC Energy     :        -55.894445703 Ha          -1520.965253443 eV
  LDA X and C from self-consistent density 
  X Energy LDA        :        -48.606831596 Ha          -1322.659183887 eV
  C Energy LDA        :         -3.959770230 Ha           -107.750830271 eV
  ------------------------------------ 
  End decomposition of the XC Energy 
  ------------------------------------ 
  Performing Hirshfeld analysis of fragment charges and moments.
  ----------------------------------------------------------------------
  | Atom     1: O
  |   Hirshfeld charge        :     -0.40174514
  |   Free atom volume        :     23.95238533
  |   Hirshfeld volume        :     24.61210109
  |   Hirshfeld dipole vector :      0.02080223       0.06737632       0.03110895
  |   Hirshfeld dipole moment :      0.07707184
  |   Hirshfeld second moments:     -0.01090348      -0.02048607       0.01471158
  |                                 -0.02048607      -0.07633613      -0.03437298
  |                                  0.01471158      -0.03437298      -0.09619230
  ----------------------------------------------------------------------
  | Atom     2: H
  |   Hirshfeld charge        :      0.05151338
  |   Free atom volume        :     10.44207651
  |   Hirshfeld volume        :      8.84845439
  |   Hirshfeld dipole vector :     -0.02268957       0.04206612      -0.00750319
  |   Hirshfeld dipole moment :      0.04838050
  |   Hirshfeld second moments:      0.05952666       0.02785225       0.00253372
  |                                  0.02785225       0.01600889       0.00636831
  |                                  0.00253372       0.00636831       0.05403495
  ----------------------------------------------------------------------
  | Atom     3: H
  |   Hirshfeld charge        :      0.03850338
  |   Free atom volume        :     10.44207651
  |   Hirshfeld volume        :      8.94767236
  |   Hirshfeld dipole vector :      0.04927005       0.01583174       0.01825502
  |   Hirshfeld dipole moment :      0.05487647
  |   Hirshfeld second moments:      0.01987478      -0.02783347      -0.00164992
  |                                 -0.02783347       0.05853274      -0.00665138
  |                                 -0.00164992      -0.00665138       0.04455821
  ----------------------------------------------------------------------
  | Atom     4: O
  |   Hirshfeld charge        :     -0.31070696
  |   Free atom volume        :     23.95238533
  |   Hirshfeld volume        :     22.60159068
  |   Hirshfeld dipole vector :     -0.03169012       0.02357429       0.01106300
  |   Hirshfeld dipole moment :      0.04101708
  |   Hirshfeld second moments:      0.01354195       0.05496982      -0.01091345
  |                                  0.05496982       0.00650342       0.01848950
  |                                 -0.01091345       0.01848950      -0.01789828
  ----------------------------------------------------------------------
  | Atom     5: H
  |   Hirshfeld charge        :      0.06636906
  |   Free atom volume        :     10.44207651
  |   Hirshfeld volume        :      8.14816592
  |   Hirshfeld dipole vector :      0.01360364       0.04305414       0.02985541
  |   Hirshfeld dipole moment :      0.05413006
  |   Hirshfeld second moments:      0.08121405      -0.00087110      -0.01069438
  |                                 -0.00087110       0.03389420      -0.01774765
  |                                 -0.01069438      -0.01774765       0.06568148
  ----------------------------------------------------------------------
  | Atom     6: H
  |   Hirshfeld charge        :      0.11978137
  |   Free atom volume        :     10.44207651
  |   Hirshfeld volume        :      7.09454775
  |   Hirshfeld dipole vector :     -0.10166372      -0.05965613       0.01782502
  |   Hirshfeld dipole moment :      0.11921450
  |   Hirshfeld second moments:      0.08874684       0.01410570      -0.00026617
  |                                  0.01410570       0.10353839       0.01219266
  |                                 -0.00026617       0.01219266       0.09068235
  ----------------------------------------------------------------------
  | Atom     7: O
  |   Hirshfeld charge        :     -0.20408487
  |   Free atom volume        :     23.95238533
  |   Hirshfeld volume        :     20.62597542
  |   Hirshfeld dipole vector :      0.03220050      -0.01290387      -0.01531346
  |   Hirshfeld dipole moment :      0.03791944
  |   Hirshfeld second moments:      0.03094524       0.01300089       0.02687989
  |                                  0.01300089       0.07153233       0.00531205
  |                                  0.02687989       0.00531205       0.09646016
  ----------------------------------------------------------------------
  | Atom     8: H
  |   Hirshfeld charge        :      0.11221274
  |   Free atom volume        :     10.44207651
  |   Hirshfeld volume        :      7.37146801
  |   Hirshfeld dipole vector :      0.02833687       0.03899268       0.00933047
  |   Hirshfeld dipole moment :      0.04909648
  |   Hirshfeld second moments:      0.07886508      -0.02007636      -0.00611135
  |                                 -0.02007636       0.06933592      -0.02780680
  |                                 -0.00611135      -0.02780680       0.10144861
  ----------------------------------------------------------------------
  | Atom     9: H
  |   Hirshfeld charge        :      0.15735428
  |   Free atom volume        :     10.44207651
  |   Hirshfeld volume        :      6.13091106
  |   Hirshfeld dipole vector :     -0.01735150       0.00850843      -0.11841424
  |   Hirshfeld dipole moment :      0.11998083
  |   Hirshfeld second moments:      0.11530958       0.00990862       0.00851583
  |                                  0.00990862       0.12893555       0.00212072
  |                                  0.00851583       0.00212072       0.12096624
  ----------------------------------------------------------------------
  | Atom    10: O
  |   Hirshfeld charge        :     -0.18511190
  |   Free atom volume        :     23.95238533
  |   Hirshfeld volume        :     20.70675737
  |   Hirshfeld dipole vector :     -0.02168003      -0.03364108       0.03158035
  |   Hirshfeld dipole moment :      0.05098102
  |   Hirshfeld second moments:      0.06624025      -0.02932141       0.00654772
  |                                 -0.02932141       0.07510842       0.03823490
  |                                  0.00654772       0.03823490       0.04382523
  ----------------------------------------------------------------------
  | Atom    11: H
  |   Hirshfeld charge        :      0.15683699
  |   Free atom volume        :     10.44207651
  |   Hirshfeld volume        :      6.44199319
  |   Hirshfeld dipole vector :      0.00182543       0.06599970       0.08827484
  |   Hirshfeld dipole moment :      0.11023493
  |   Hirshfeld second moments:      0.12189404      -0.00895469       0.00943366
  |                                 -0.00895469       0.12109276      -0.00077421
  |                                  0.00943366      -0.00077421       0.09967941
  ----------------------------------------------------------------------
  | Atom    12: H
  |   Hirshfeld charge        :      0.16861076
  |   Free atom volume        :     10.44207651
  |   Hirshfeld volume        :      5.95359186
  |   Hirshfeld dipole vector :      0.08772654      -0.08049624       0.01297729
  |   Hirshfeld dipole moment :      0.11976644
  |   Hirshfeld second moments:      0.12107875      -0.00007074       0.00031085
  |                                 -0.00007074       0.12573676       0.01576221
  |                                  0.00031085       0.01576221       0.12827658
  ----------------------------------------------------------------------
  | Atom    13: O
  |   Hirshfeld charge        :     -0.21551533
  |   Free atom volume        :     23.95238533
  |   Hirshfeld volume        :     20.75184944
  |   Hirshfeld dipole vector :     -0.03795032      -0.02349074       0.00913881
  |   Hirshfeld dipole moment :      0.04555831
  |   Hirshfeld second moments:      0.02893818      -0.03791573       0.02523256
  |                                 -0.03791573       0.05098296      -0.00687545
  |                                  0.02523256      -0.00687545       0.07991097
  ----------------------------------------------------------------------
  | Atom    14: H
  |   Hirshfeld charge        :      0.16292285
  |   Free atom volume        :     10.44207651
  |   Hirshfeld volume        :      5.95171786
  |   Hirshfeld dipole vector :      0.01677356      -0.01956316       0.11805582
  |   Hirshfeld dipole moment :      0.12083562
  |   Hirshfeld second moments:      0.12476492      -0.01456321       0.00595612
  |                                 -0.01456321       0.12493706       0.00164276
  |                                  0.00595612       0.00164276       0.11902584
  ----------------------------------------------------------------------
  | Atom    15: H
  |   Hirshfeld charge        :      0.16509474
  |   Free atom volume        :     10.44207651
  |   Hirshfeld volume        :      6.29953924
  |   Hirshfeld dipole vector :     -0.08690986       0.07241633      -0.01955888
  |   Hirshfeld dipole moment :      0.11480418
  |   Hirshfeld second moments:      0.11046196      -0.00257060      -0.00055386
  |                                 -0.00257060       0.11016819       0.00656711
  |                                 -0.00055386       0.00656711       0.12873352
  ----------------------------------------------------------------------
  | Atom    16: O
  |   Hirshfeld charge        :     -0.21259588
  |   Free atom volume        :     23.95238533
  |   Hirshfeld volume        :     20.36824413
  |   Hirshfeld dipole vector :      0.02009079      -0.01570580      -0.02474481
  |   Hirshfeld dipole moment :      0.03553333
  |   Hirshfeld second moments:      0.06222417      -0.00013508       0.02486127
  |                                 -0.00013508       0.09144191      -0.03383689
  |                                  0.02486127      -0.03383689       0.03903043
  ----------------------------------------------------------------------
  | Atom    17: H
  |   Hirshfeld charge        :      0.16107546
  |   Free atom volume        :     10.44207651
  |   Hirshfeld volume        :      6.27746835
  |   Hirshfeld dipole vector :      0.09515279      -0.04562989       0.03322592
  |   Hirshfeld dipole moment :      0.11063499
  |   Hirshfeld second moments:      0.11891937       0.01297254      -0.00036070
  |                                  0.01297254       0.12509665      -0.00440978
  |                                 -0.00036070      -0.00440978       0.11021229
  ----------------------------------------------------------------------
  | Atom    18: H
  |   Hirshfeld charge        :      0.16950306
  |   Free atom volume        :     10.44207651
  |   Hirshfeld volume        :      5.61349240
  |   Hirshfeld dipole vector :      0.03461753       0.10253948      -0.05529911
  |   Hirshfeld dipole moment :      0.12153481
  |   Hirshfeld second moments:      0.13934873      -0.00663815       0.01180101
  |                                 -0.00663815       0.13024981      -0.00327713
  |                                  0.01180101      -0.00327713       0.12270876
  ----------------------------------------------------------------------


------------------------------------------------------------------------------
  Final output of selected total energy values:

  The following output summarizes some interesting total energy values
  at the end of a run (AFTER all relaxation, molecular dynamics, etc.).

  | Total energy of the DFT / Hartree-Fock s.c.f. calculation      :         -12497.560799935 eV
  | Final zero-broadening corrected energy (caution - metals only) :         -12497.560799935 eV
  | For reference only, the value of 1 Hartree used in FHI-aims is :             27.211384500 eV

  Before relying on these values, please be sure to understand exactly which
  total energy value is referred to by a given number. Different objects may
  all carry the same name 'total energy'. Definitions:

  Total energy of the DFT / Hartree-Fock s.c.f. calculation:
  | Note that this energy does not include ANY quantities calculated after the
  | s.c.f. cycle, in particular not ANY RPA, MP2, etc. many-body perturbation terms.

  Final zero-broadening corrected energy:
  | For metallic systems only, a broadening of the occupation numbers at the Fermi
  | level can be extrapolated back to zero broadening by an electron-gas inspired
  | formula. For all systems that are not real metals, this value can be
  | meaningless and should be avoided.

------------------------------------------------------------------------------

------------------------------------------------------------
          Leaving FHI-aims.
          Date     :  20150727, Time     :  113750.658

          Computational steps:
          | Number of self-consistency cycles          :           16

          Detailed time accounting                     :  max(cpu_time)    wall_clock(cpu1)
          | Total time                                 :       54.408 s          54.454 s
          | Preparation time                           :        0.172 s           0.571 s
          | Grid partitioning                          :        0.192 s           0.192 s
          | Preloading free-atom quantities on grid    :        0.014 s           0.014 s
          | Free-atom superposition energy             :        0.088 s           0.088 s
          | Total time for integrations                :       23.901 s          23.901 s
          | Total time for solution of K.-S. equations :        1.593 s           1.592 s
          | Total time for density & force components  :       18.104 s          18.100 s
          | Total time for mixing                      :        0.248 s           0.248 s
          | Total time for Hartree multipole update    :        0.096 s           0.100 s
          | Total time for Hartree multipole sum       :        9.189 s           9.188 s
          | Total time for total energy evaluation     :        0.002 s           0.005 s
          | Total time for scaled ZORA corrections     :        0.000 s           0.000 s
          | Total time for TS (2009) vdW correction    :        0.073 s           0.073 s

          Have a nice day.
------------------------------------------------------------
