  MPI-parallelism will be employed.
------------------------------------------------------------
          Invoking FHI-aims ...
          Version 081213
          Compiled on 2013/08/29 at 17:41:06 on host generoso.

          When using FHI-aims, please cite the following reference:

          Volker Blum, Ralf Gehrke, Felix Hanke, Paula Havu,
          Ville Havu, Xinguo Ren, Karsten Reuter, and Matthias Scheffler,
          'Ab Initio Molecular Simulations with Numeric Atom-Centered Orbitals: FHI-aims',
          Computer Physics Communications 180, 2175-2196 (2009)

          For any questions about FHI-aims, please visit the aimsclub website
          with its forums and wiki. Contributions to both the forums and the
          wiki are warmly encouraged - they are for you, and everyone is welcome there.

------------------------------------------------------------

  Date     :  20150727, Time     :  120934.503
  Time zero on CPU 1             :   0.469910000000000E-01  s.
  Internal wall clock time zero  :           207230974.503  s.

  Using        8 parallel tasks.
  Task        0 on host gen60 reporting.
  Task        1 on host gen60 reporting.
  Task        2 on host gen60 reporting.
  Task        3 on host gen60 reporting.
  Task        4 on host gen60 reporting.
  Task        5 on host gen60 reporting.
  Task        6 on host gen60 reporting.
  Task        7 on host gen60 reporting.

  Performing system and environment tests:
  | Environment variable OMP_NUM_THREADS correctly set to 1.
  | Checking for scalapack...
  | No scalapack compiled in.

  Obtaining array dimensions for all initial allocations:
  
  -----------------------------------------------------------------------
  Parsing control.in (first pass over file, find array dimensions only).
  The contents of control.in will be repeated verbatim below
  unless switched off by setting 'verbatim_writeout .false.' .
  in the first line of control.in .
  -----------------------------------------------------------------------
  
  #########################################################################################
  #
  #  Volker Blum, FHI 2008 : Test run input file control.in
  #
  #########################################################################################
  #
  #  Physical model
  #
    xc                 rpbe
    spin               none
    relativistic       atomic_zora scalar
    charge             0.
   vdw_correction_hirshfeld
  #
  #  SCF convergence
  #
    occupation_type    gaussian 0.01
    mixer              pulay
      n_max_pulay        10
      charge_mix_param   0.1
    sc_accuracy_rho    5E-5
    sc_accuracy_eev    5E-3
    sc_accuracy_etot   5E-6
    sc_iter_limit      3000
  #
  #  Eigenvalue solver
  #
    KS_method          lapack
      empty_states       8
      basis_threshold    0.e-5
  #
  #  Efficiency
  #
  #   all previous settings are now default, except stratmann still
  #   undecided. Continue to handle stratmann with care, if at all.
  #
  #  partition_type stratmann
    partition_type rho_r2
  #  hartree_partition_type stratmann
  #
  #  Oprions for large clusters (100's of atoms: memory saving / better scaling)
  #
  # for periodic systems:
  #
    density_update_method orbital
    packed_matrix_format none
  #  k_grid 6 6 6
  #  output k_eigenvalue 1
  #  distributed_spline_storage .true.
  #
  #  Relaxation
  #
  #  relax_geometry   bfgs 5.e-3
    sc_accuracy_forces 5.E-4
    final_forces_cleaned .true.
  #
  #  Output options
  #
  #  output mulliken
    output Hirshfeld
  #  output dipole
  
  #harmonic_length_scale 0.001
  
  ################################################################################
  #
  #  FHI-aims code project
  #  VB, Fritz-Haber Institut, 2007
  #
  #  Suggested "safe" defaults for H atom (to be pasted into control.in file)
  #  Basis constructed for a non-relativistic H2 molecule using the
  #  PW-LDA functional.
  #
  ################################################################################
    species        H
  #     global species definitions
      nucleus             1
      cut_pot             4.0  2.0  1.0
      cut_free_atom       finite 8.0
      logarithmic         0.00010000 100.00  1.0123
      basis_dep_cutoff    1d-4  # 1d-4 is safe default - please check 5d-4 if you wish!
      radial_base         24 7.0
      radial_multiplier   2
      angular_grids       specified
        division   0.2783  110
        division   0.3822  194
        division   0.5626  302
  #      division   0.5922  434
  #      division   0.6227  590
  #      division   0.7206  770
        outer_grid  302
      l_hartree           4
  ################################################################################
  #
  #  Definition of "minimal" basis
  #
  ################################################################################
  #     valence basis states
      valence      1  s   1.
  #     ion occupancy
      ion_occ      1  s   0.5
  ################################################################################
  #
  #  Suggested additional basis functions. For production calculations,
  #  uncomment them one after another (the most important basis functions are
  #  listed first).
  #
  ################################################################################
  #  "First tier" - improvements: -1014.90 meV to -62.69 meV
       hydro 2 s 2.1
       hydro 2 p 3.5
  #  "Second tier" - improvements: -12.89 meV to -1.83 meV
       hydro 1 s 0.85
       hydro 2 p 3.7
       hydro 2 s 1.2
       hydro 3 d 7
  #  "Third tier" - improvements: -0.25 meV to -0.12 meV
  #     hydro 4 f 11.2
  #     hydro 3 p 4.8
  #     hydro 4 d 9
  #     hydro 3 s 3.2
  
  ################################################################################
  #
  #  FHI-aims code project
  #  VB, Fritz-Haber Institut, 2007
  #
  #  Suggested "safe" defaults for O atom (to be pasted into control.in file)
  #  All values have been tested for a non-relativistic, non-spinpolarized O2
  #  molecule using the PW-LDA functional. Validity for PBE is expected.
  #
  #  Constructed for dimers: 1.0 A, 1.208 A, 1.5 A, 2.0 A, 3.0 A
  #
  ################################################################################
    species        O
  #     global species definitions
      nucleus             8
      mass                15.9994
      l_hartree           4
      cut_pot             4.0  2.0  1.0
      cut_free_atom       finite 8.0
      basis_dep_cutoff    1d-4  # 1d-4 is safe default - please check 5d-4 if you wish!
      logarithmic         0.00010000 100.00  1.0123
      radial_base         36 7.0
      radial_multiplier   2
       angular_grids specified
        division   0.4087  110
        division   0.5181  194
        division   0.6184  302
  #      division   0.7315  434
  #      division   0.7934  590
  #      division   0.9656  770
  #      division   1.4041  974
  #      outer_grid 974
        outer_grid 302
  ################################################################################
  #
  #  Definition of "minimal" basis
  #
  ################################################################################
  #     valence basis states
      valence      2  s   2.
      valence      2  p   4.
  #     ion occupancy
      ion_occ      2  s   1.
      ion_occ      2  p   3.
  ################################################################################
  #
  #  Suggested additional basis functions. For production calculations,
  #  uncomment them one after another (the most important basis functions are
  #  listed first).
  #
  ################################################################################
  #  "First tier" - improvements: -699.05 meV to -159.38 meV
       hydro 2 p 1.8
       hydro 3 d 7.6
       hydro 3 s 6.4
  #  "Second tier" - improvements: -49.91 meV to -5.39 meV
       hydro 4 f 11.6
       hydro 3 p 6.2
       hydro 3 d 5.6
       hydro 5 g 17.6
       hydro 1 s 0.75
  #  "Third tier" - improvements: -2.83 meV to -0.50 meV
  #     ionic 2 p auto
  #     hydro 4 f 10.8
  #     hydro 4 d 4.7
  #     hydro 2 s 6.8
  #  "Fourth tier" - improvements: -0.40 meV to -0.12 meV
  #     hydro 3 p 5
  #     hydro 3 s 3.3
  #     hydro 5 g 15.6
  #     hydro 4 f 17.6
  #     hydro 4 d 14
  # Further basis functions - -0.08 meV and below
  #     hydro 3 s 2.1
  #     hydro 4 d 11.6
  #     hydro 3 p 16
  #     hydro 2 s 17.2
  
  
  -----------------------------------------------------------------------
  Completed first pass over input file control.in .
  -----------------------------------------------------------------------
  
  
  -----------------------------------------------------------------------
  Parsing geometry.in (first pass over file, find array dimensions only).
  The contents of geometry.in will be repeated verbatim below
  unless switched off by setting 'verbatim_writeout .false.' .
  in the first line of geometry.in .
  -----------------------------------------------------------------------
  
  atom      -4.053030000      0.065001000     -1.525160000  O
  atom      -4.566710000      0.974813000     -1.912820000  H
  atom      -3.067820000      0.330172000     -1.477310000  H
  atom      -4.581760000     -0.256435000      0.939478000  O
  atom      -4.349860000      0.471090000      1.504340000  H
  atom      -5.393870000     -0.726611000      1.228070000  H
  atom      -3.818880000      2.024990000      2.187990000  O
  atom      -3.690880000      1.961360000      3.202150000  H
  atom      -4.546490000      2.751300000      2.045370000  H
  atom      -4.066610000      4.258280000     -0.900064000  O
  atom      -3.224110000      3.876870000     -0.569443000  H
  atom      -3.737450000      5.116530000     -1.322720000  H
  atom      -5.628340000      3.730740000      1.385610000  O
  atom      -6.090650000      4.418470000      1.860350000  H
  atom      -5.158540000      4.200260000      0.615875000  H
  
  -----------------------------------------------------------------------
  Completed first pass over input file geometry.in .
  -----------------------------------------------------------------------
  
 
  Basic array size parameters: 
  | Number of species                 :        2
  | Number of atoms                   :       15
  | Max. basis fn. angular momentum   :        4
  | Max. atomic/ionic basis occupied n:        2
  | Max. number of basis fn. types    :        2
  | Max. radial fns per species/type  :        8
  | Max. logarithmic grid size        :     1301
  | Max. radial integration grid size :       73
  | Max. angular integration grid size:      302
  | Max. angular grid division number :        8
  | Radial grid for Hartree potential :     1301
  | Number of spin channels           :        1

------------------------------------------------------------
          Reading file control.in.
------------------------------------------------------------
  XC: Using RPBE gradient-corrected functionals.
  Spin treatment: No spin polarisation.
  Scalar relativistic treatment of kinetic energy: on-site free-atom approximation to ZORA.
  Charge =   0.000000E+00: Neutral system requested explicitly.
  Using non-empirical van der Waals correction (Hirshfeld partitioning):
  Occupation type: Gaussian broadening, width =   0.100000E-01 eV.
  Using pulay charge density mixing.
  Pulay mixing - number of memorized iterations:   10
  Charge density mixing - mixing parameter:     0.1000
  Convergence accuracy of self-consistent charge density: 0.5000E-04
  Convergence accuracy of sum of eigenvalues: 0.5000E-02
  Convergence accuracy of total energy: 0.5000E-05
  Maximum number of s.-c. iterations  :  3000
  Kohn-Sham eigenvalues and eigenfunctions calculated by lapack diagonalisation (D&C).
  Number of empty states per atom:        8
  Threshold for basis singularities: 0.0000E+00
  Partition function in integrals calculations: rho / r^2
 Using packed matrix format           0
  Convergence accuracy of forces: 0.5000E-03
  Cleaning forces before final output.
  Hirshfeld charge analysis will be performed.
 
  Reading configuration options for species H                   .
  | Found nuclear charge :   1.0000
  | Found cutoff potl. onset [A], width [A], scale factor :    4.00000    2.00000    1.00000
  | Found cutoff specification for free atom: Cutoff potential begins at    8.00000 A.
  | Found logarithmic grid data [bohr] : 0.1000E-03 0.1000E+03 0.1012E+01
  | Threshold for basis-dependent cutoff potential is   0.100000E-03
  | Found data for basic radial integration grid :    24 points, outermost radius =    7.000 A
  | Found multiplier for basic radial grid :   2
  | Found angular grid specification: user-specified.
  | Specified grid contains     4 separate shells.
  | Check grid settings after all constraints further below.
  | Found l_max for Hartree potential  :   4
  | Found free-atom valence shell :  1 s   1.000
  | No ionic wave fns used. Skipping ion_occ.
  | Found hydrogenic basis function :  2 s   2.100
  | Found hydrogenic basis function :  2 p   3.500
  | Found hydrogenic basis function :  1 s   0.850
  | Found hydrogenic basis function :  2 p   3.700
  | Found hydrogenic basis function :  2 s   1.200
  | Found hydrogenic basis function :  3 d   7.000
  Species H                   : Missing cutoff potential type.
  Defaulting to exp(1/x)/(1-x)^2 type cutoff potential.
  Species H : On-site basis accuracy parameter (for Gram-Schmidt orthonormalisation) not specified.
  Using default value basis_acc =  0.1000000E-03.
  Species H                   : Using default innermost maximum threshold i_radial=  2 for radial functions.
  Species H                   : Basic radial grid will be enhanced according to radial_multiplier =   2, to contain    49 grid points.
 
  Reading configuration options for species O                   .
  | Found nuclear charge :   8.0000
  | Found atomic mass :    15.9994000000000      amu
  | Found l_max for Hartree potential  :   4
  | Found cutoff potl. onset [A], width [A], scale factor :    4.00000    2.00000    1.00000
  | Found cutoff specification for free atom: Cutoff potential begins at    8.00000 A.
  | Threshold for basis-dependent cutoff potential is   0.100000E-03
  | Found logarithmic grid data [bohr] : 0.1000E-03 0.1000E+03 0.1012E+01
  | Found data for basic radial integration grid :    36 points, outermost radius =    7.000 A
  | Found multiplier for basic radial grid :   2
  | Found angular grid specification: user-specified.
  | Specified grid contains     4 separate shells.
  | Check grid settings after all constraints further below.
  | Found free-atom valence shell :  2 s   2.000
  | Found free-atom valence shell :  2 p   4.000
  | No ionic wave fns used. Skipping ion_occ.
  | No ionic wave fns used. Skipping ion_occ.
  | Found hydrogenic basis function :  2 p   1.800
  | Found hydrogenic basis function :  3 d   7.600
  | Found hydrogenic basis function :  3 s   6.400
  | Found hydrogenic basis function :  4 f  11.600
  | Found hydrogenic basis function :  3 p   6.200
  | Found hydrogenic basis function :  3 d   5.600
  | Found hydrogenic basis function :  5 g  17.600
  | Found hydrogenic basis function :  1 s   0.750
  Species O                   : Missing cutoff potential type.
  Defaulting to exp(1/x)/(1-x)^2 type cutoff potential.
  Species O : On-site basis accuracy parameter (for Gram-Schmidt orthonormalisation) not specified.
  Using default value basis_acc =  0.1000000E-03.
  Species O                   : Using default innermost maximum threshold i_radial=  2 for radial functions.
  Species O                   : Basic radial grid will be enhanced according to radial_multiplier =   2, to contain    73 grid points.
 
  Finished reading input file 'control.in'. Consistency checks are next.
 
  Target number of points in a grid batch is not set. Defaulting to  100
  Method for grid partitioning is not set. Defaulting to parallel hash+maxmin partitioning.
  Batch size limit is not set. Defaulting to    200
  By default, will store active basis functions for each batch.
  If in need of memory, prune_basis_once .false. can be used to disable this option.
  communication_type for Hartree potential was not specified.
  Defaulting to calc_hartree .
  Pulay mixer: Number of initial linear mixing iterations not set.
  Defaulting to    0 iterations.
  Work space size for distributed Hartree potential not set.
  Defaulting to   0.200000E+03 MB.
  Algorithm-dependent basis array size parameters:
  | n_max_pulay                         :       10
  Geometry relaxation not requested: no relaxation will be performed.
  Handling of forces: Unphysical translation and rotation will be removed from forces.
  No accuracy limit for integral partition fn. given. Defaulting to 0.1000E-14.
  No threshold value for u(r) in integrations given. Defaulting to 0.1000E-05.
  No accuracy for occupation numbers given. Defaulting to 0.1000E-07.
  No threshold value for occupation numbers given. Defaulting to 0.0000E+00.
  No accuracy for fermi level given. Defaulting to 0.1000E-19.
  Maximum # of iterations to find E_F not set. Defaulting to  200.
  Will not use alltoall communication since running on < 1024 CPUs.
  Partitioning for Hartree potential was not defined. Using partition_type for integrals.
  | Reporting present value of keyword multip_moments_threshold  :       0.10000000E-09
  | This value may affect high angular momentum components of the Hartree potential in periodic systems.
  No q(lm)/r^(l+1) cutoff set for long-range Hartree potential.
  | Using default value of  0.100000E-09 .
  | Verify using the multipole_threshold keyword.
  Defaulting to new monopole extrapolation.
  Density update method: Loop over occupied states selected for charge density update.
------------------------------------------------------------


------------------------------------------------------------
          Reading geometry description geometry.in.
------------------------------------------------------------
  Input structure read successfully.
  The structure contains       15 atoms,  and a total of         50.000 electrons.

  Input geometry:
  | No unit cell requested.
  | Atomic structure:
  |       Atom                x [A]            y [A]            z [A]
  |    1: Species O             -4.053030         0.065001        -1.525160
  |    2: Species H             -4.566710         0.974813        -1.912820
  |    3: Species H             -3.067820         0.330172        -1.477310
  |    4: Species O             -4.581760        -0.256435         0.939478
  |    5: Species H             -4.349860         0.471090         1.504340
  |    6: Species H             -5.393870        -0.726611         1.228070
  |    7: Species O             -3.818880         2.024990         2.187990
  |    8: Species H             -3.690880         1.961360         3.202150
  |    9: Species H             -4.546490         2.751300         2.045370
  |   10: Species O             -4.066610         4.258280        -0.900064
  |   11: Species H             -3.224110         3.876870        -0.569443
  |   12: Species H             -3.737450         5.116530        -1.322720
  |   13: Species O             -5.628340         3.730740         1.385610
  |   14: Species H             -6.090650         4.418470         1.860350
  |   15: Species H             -5.158540         4.200260         0.615875
  |

  | The smallest distance between any two atoms is         0.94981015 AA.
  |
  | The first atom of this pair is atom number                      4 .
  | The second atom of this pair is atom number                     5 .

  Structure-dependent array size parameters: 
  | Maximum number of distinct radial functions  :       18
  | Maximum number of basis functions            :      345
  | Number of Kohn-Sham states (occupied + empty):       85
------------------------------------------------------------

------------------------------------------------------------
          Preparing all fixed parts of the calculation.
------------------------------------------------------------
  Determining machine precision:
    2.225073858507201E-308
  Setting up grids for atomic and cluster calculations.

  Creating wave function, potential, and density for free atoms.

  Species: H

  List of occupied orbitals and eigenvalues:
    n    l              occ      energy [Ha]    energy [eV]
    1    0           1.0000        -0.241408        -6.5691


  Species: O

  List of occupied orbitals and eigenvalues:
    n    l              occ      energy [Ha]    energy [eV]
    1    0           2.0000       -18.944147      -515.4965
    2    0           2.0000        -0.883529       -24.0421
    2    1           4.0000        -0.330176        -8.9845

  Creating fixed part of basis set: Ionic, confined, hydrogenic.
 
  H                    hydrogenic:
 
  List of hydrogenic basis orbitals: 
    n    l      effective z      eigenvalue [eV]  inner max. [A]     outer max. [A]     outer radius [A]   
    2    0         2.100000       -14.9965           0.193241           1.317192           5.372934
    2    1         3.500000       -41.6672           0.602363           0.602363           4.056010
    1    0         0.850000        -9.8292           0.624864           0.624864           5.372934
    2    1         3.700000       -46.5653           0.573616           0.573616           3.909951
    2    0         1.200000        -4.5995           0.334977           2.228160           5.505921
    3    2         7.000000       -74.0753           0.680692           0.680692           3.769152
 
 
  O                    hydrogenic:
 
  List of hydrogenic basis orbitals: 
    n    l      effective z      eigenvalue [eV]  inner max. [A]     outer max. [A]     outer radius [A]   
    2    1         1.800000       -11.0118           1.178546           1.178546           5.432516
    3    2         7.600000       -87.3182           0.624117           0.624117           3.541422
    3    0         6.400000       -61.9209           0.061166           1.081887           4.306510
    4    3        11.600000      -114.4238           0.731621           0.731621           3.584982
    3    1         6.200000       -58.1113           0.255677           1.030255           4.306510
    3    2         5.600000       -47.4081           0.847222           0.847222           4.413102
    5    4        17.600000      -168.5799           0.749730           0.749730           3.372413
    1    0         0.750000        -7.6499           0.705275           0.705275           5.366508
 

  Adding cutoff potential to free-atom effective potential.
  Creating atomic-like basis functions for current effective potential.

  Species H                   :

  List of atomic basis orbitals and eigenvalues:
    n    l      energy [Ha]    energy [eV]    outer radius [A]
    1    0        -0.241374        -6.5681       5.372934


  Species O                   :

  List of atomic basis orbitals and eigenvalues:
    n    l      energy [Ha]    energy [eV]    outer radius [A]
    1    0       -18.944147      -515.4965       1.415745
    2    0        -0.883529       -24.0421       5.048305
    2    1        -0.330173        -8.9845       5.301302

  Assembling full basis from fixed parts.
  | Species H :   atomic orbital   1 s accepted.
  | Species H :    hydro orbital   2 s accepted.
  | Species H :    hydro orbital   1 s accepted.
  | Species H :    hydro orbital   2 s accepted.
  | Species H :    hydro orbital   2 p accepted.
  | Species H :    hydro orbital   2 p accepted.
  | Species H :    hydro orbital   3 d accepted.
  | Species O :   atomic orbital   1 s accepted.
  | Species O :    hydro orbital   3 s accepted.
  | Species O :   atomic orbital   2 s accepted.
  | Species O :    hydro orbital   1 s accepted.
  | Species O :    hydro orbital   3 p accepted.
  | Species O :   atomic orbital   2 p accepted.
  | Species O :    hydro orbital   2 p accepted.
  | Species O :    hydro orbital   3 d accepted.
  | Species O :    hydro orbital   3 d accepted.
  | Species O :    hydro orbital   4 f accepted.
  | Species O :    hydro orbital   5 g accepted.
 
  Basis size parameters after reduction:
  | Total number of radial functions:       18
  | Total number of basis functions :      345
 
  Testing on-site integration grid accuracy.
  |  Species  Function  <phi|h_atom|phi> (log., in eV)  <phi|h_atom|phi> (rad., in eV)
           1        1                 -6.5683835025                 -6.5684759159
           1        2                 13.3711789951                 13.3708738703
           1        3                 23.6590910787                 23.6532055418
           1        4                 16.2963827186                 16.1870710655 ***
           1        5                 28.7627214838                 28.7627215090
           1        6                 59.5965249172                 59.5965950857
           1        7                 60.2220506392                 60.2220503827
           2        8               -515.4964576505               -515.4964530710
           2        9                 15.3030791347                 15.3030722972
           2       10                -21.7296094581                -21.7296135470
           2       11                 14.2969371730                 14.2969701621
           2       12                 21.0679693190                 21.0679697493
           2       13                 -2.3833606469                 -2.3833613176
           2       14                 13.7067136422                 13.7066766629
           2       15                 45.8013116808                 45.8013116965
           2       16                 52.2309815402                 52.2309831494
           2       17                 85.4120732416                 85.4120732763
           2       18                142.1019167745                142.1019167817
 * Note: Onsite integrals marked "***" above are less accurate than
 * onsite_accuracy_threshold =    0.03000 eV. Usually, this is harmless.
 * When in doubt, tighten the "radial" and/or "radial_multiplier" flags to check.

  Preparing densities etc. for the partition functions (integrals / Hartree potential).

  Preparations completed.
  max(cpu_time)          :      0.171 s.
  Wall clock time (cpu1) :      0.577 s.
------------------------------------------------------------

------------------------------------------------------------
          Begin self-consistency loop: Initialization.

          Date     :  20150727, Time     :  120935.096
------------------------------------------------------------

  Initializing index lists of integration centers etc. from given atomic structure:
  | Number of centers in hartree potential         :        15
  | Number of centers in hartree multipole         :        15
  | Number of centers in electron density summation:        15
  | Number of centers in basis integrals           :        15
  | Number of centers in integrals                 :        15
  Partitioning the integration grid into batches with parallel hashing+maxmin method.
  | Number of batches:     2008
  | Maximal batch size:     172
  | Minimal batch size:      57
  | Average batch size:      97.963
  | Standard deviation of batch sizes:      30.085

  Integration load balanced across     8 MPI tasks.
  Work distribution over tasks is as follows:
  Task     0 has      24545 integration points.
  Task     1 has      24550 integration points.
  Task     2 has      24549 integration points.
  Task     3 has      24656 integration points.
  Task     4 has      24682 integration points.
  Task     5 has      24588 integration points.
  Task     6 has      24570 integration points.
  Task     7 has      24570 integration points.
  Initializing partition tables, free-atom densities, potentials, etc. across the integration grid (initialize_grid_storage).
  | Net number of integration points:   196710
  | of which are non-zero points    :   196159
  Obtaining max. number of non-zero basis functions in each batch (get_n_compute_maxes).
  | Maximal number of non-zero basis functions:      342 in task     0
  | Maximal number of non-zero basis functions:      342 in task     1
  | Maximal number of non-zero basis functions:      342 in task     2
  | Maximal number of non-zero basis functions:      342 in task     3
  | Maximal number of non-zero basis functions:      342 in task     4
  | Maximal number of non-zero basis functions:      342 in task     5
  | Maximal number of non-zero basis functions:      342 in task     6
  | Maximal number of non-zero basis functions:      342 in task     7
  Integrating Hamiltonian matrix: batch-based integration.
  Time summed over all CPUs for integration: real work        7.161 s, elapsed        7.356 s
  Integrating overlap matrix.
  Time summed over all CPUs for integration: real work        3.792 s, elapsed        3.871 s

  Updating Kohn-Sham eigenvalues, eigenvectors, occupation numbers, and Fermi level.
  Solving generalized eigenproblem
  Updating Kohn-Sham eigenvalues and eigenfunctions.
  Transforming overlap matrix and checking for singularities.
  Overlap matrix is nonsingular:
  | Lowest eigenvalue:  0.291956E-03
  Solving real generalised eigenvalue problem by standard LAPACK (fast)
  Determining occupation numbers for Kohn-Sham eigenstates.
  | Chemical potential (Fermi level) in eV                 : -.38843649E+01
  | Error in electron count due to remaining E_F inaccuracy: 0.00000000E+00
  | Maximum occupation number of highest empty state:  0.00E+00

  Writing Kohn-Sham eigenvalues.

  State    Occupation    Eigenvalue [Ha]    Eigenvalue [eV]
      1       2.00000         -19.052080         -518.43347
      2       2.00000         -19.050631         -518.39403
      3       2.00000         -19.042515         -518.17320
      4       2.00000         -19.032255         -517.89400
      5       2.00000         -19.019440         -517.54529
      6       2.00000          -1.101582          -29.97557
      7       2.00000          -1.099210          -29.91103
      8       2.00000          -1.085686          -29.54303
      9       2.00000          -1.063672          -28.94399
     10       2.00000          -1.043113          -28.38456
     11       2.00000          -0.648468          -17.64572
     12       2.00000          -0.632066          -17.19938
     13       2.00000          -0.605431          -16.47461
     14       2.00000          -0.603366          -16.41842
     15       2.00000          -0.569969          -15.50966
     16       2.00000          -0.524318          -14.26741
     17       2.00000          -0.509794          -13.87221
     18       2.00000          -0.505983          -13.76849
     19       2.00000          -0.487016          -13.25238
     20       2.00000          -0.474651          -12.91591
     21       2.00000          -0.440205          -11.97860
     22       2.00000          -0.438696          -11.93752
     23       2.00000          -0.432233          -11.76167
     24       2.00000          -0.424377          -11.54789
     25       2.00000          -0.402206          -10.94458
     26       0.00000          -0.098576           -2.68239
     27       0.00000          -0.073385           -1.99690
     28       0.00000          -0.064336           -1.75066
     29       0.00000          -0.041616           -1.13242
     30       0.00000          -0.037067           -1.00864
     31       0.00000          -0.023624           -0.64285
     32       0.00000          -0.000354           -0.00963
     33       0.00000           0.033051            0.89938
     34       0.00000           0.046039            1.25278
     35       0.00000           0.051908            1.41250
     36       0.00000           0.069373            1.88773
     37       0.00000           0.076272            2.07546
     38       0.00000           0.086213            2.34599
     39       0.00000           0.091467            2.48894
     40       0.00000           0.099323            2.70271
     41       0.00000           0.101129            2.75185
     42       0.00000           0.112337            3.05685
     43       0.00000           0.116976            3.18309
     44       0.00000           0.123777            3.36816
     45       0.00000           0.134517            3.66040
     46       0.00000           0.137058            3.72954
     47       0.00000           0.145613            3.96234
     48       0.00000           0.153819            4.18564
     49       0.00000           0.171877            4.67702
     50       0.00000           0.189990            5.16990
     51       0.00000           0.201002            5.46955
     52       0.00000           0.215011            5.85075
     53       0.00000           0.235290            6.40256
     54       0.00000           0.244952            6.66549
     55       0.00000           0.260532            7.08945
     56       0.00000           0.273335            7.43782
     57       0.00000           0.274001            7.45595
     58       0.00000           0.297682            8.10034
     59       0.00000           0.307628            8.37099
     60       0.00000           0.311625            8.47975
     61       0.00000           0.327286            8.90590
     62       0.00000           0.348615            9.48630
     63       0.00000           0.362041            9.85164
     64       0.00000           0.369356           10.05068
     65       0.00000           0.393847           10.71711
     66       0.00000           0.396753           10.79621
     67       0.00000           0.399692           10.87617
     68       0.00000           0.412137           11.21481
     69       0.00000           0.426874           11.61582
     70       0.00000           0.443410           12.06581
     71       0.00000           0.448142           12.19456
     72       0.00000           0.456988           12.43528
     73       0.00000           0.466889           12.70470
     74       0.00000           0.495021           13.47022
     75       0.00000           0.517617           14.08507
     76       0.00000           0.541610           14.73796
     77       0.00000           0.553466           15.06056
     78       0.00000           0.570668           15.52866
     79       0.00000           0.580467           15.79532
     80       0.00000           0.587895           15.99744
     81       0.00000           0.618808           16.83862
     82       0.00000           0.634061           17.25367
     83       0.00000           0.672784           18.30738
     84       0.00000           0.702081           19.10459
     85       0.00000           0.733161           19.95033

  Highest occupied state (VBM) at    -10.94458370 eV
  | Occupation number:      2.00000000

  Lowest unoccupied state (CBM) at    -2.68238878 eV
  | Occupation number:      0.00000000

  Overall HOMO-LUMO gap:      8.26219492 eV.
  Calculating total energy contributions from superposition of free atom densities.

  Total energy components:
  | Sum of eigenvalues            :        -216.57792491 Ha       -5893.38518905 eV
  | XC energy correction          :         -45.52745364 Ha       -1238.86504629 eV
  | XC potential correction       :          58.17048173 Ha        1582.89934495 eV
  | Free-atom electrostatic energy:        -179.13698858 Ha       -4874.56547438 eV
  | Hartree energy correction     :           0.00000000 Ha           0.00000000 eV
  | van der Waals energy corr.    :           0.00000000 Ha           0.00000000 eV
  | Entropy correction            :           0.00000000 Ha           0.00000000 eV
  | ---------------------------
  | Total energy                  :        -383.07188540 Ha      -10423.91636477 eV
  | Total energy, T -> 0          :        -383.07188540 Ha      -10423.91636477 eV  <-- do not rely on this value for anything but (periodic) metals
  | Electronic free energy        :        -383.07188540 Ha      -10423.91636477 eV

  Derived energy quantities:
  | Kinetic energy                :         379.08389012 Ha       10315.39749189 eV
  | Electrostatic energy          :        -716.62832188 Ha      -19500.44881037 eV
  | Energy correction for multipole
  | error in Hartree potential    :           0.00000000 Ha           0.00000000 eV
  | Sum of eigenvalues per atom                           :        -392.89234594 eV
  | Total energy (T->0) per atom                          :        -694.92775765 eV  <-- do not rely on this value for anything but (periodic) metals
  | Electronic free energy per atom                       :        -694.92775765 eV
  Initialize hartree_potential_storage
  Max. number of atoms included in rho_multipole:           15

  End scf initialization - timings             :  max(cpu_time)    wall_clock(cpu1)
  | Time for scf. initialization               :        1.951 s           1.950 s
  | Boundary condition initialization          :        0.000 s           0.000 s
  | Integration                                :        1.408 s           1.408 s
  | Solution of K.-S. eqns.                    :        0.198 s           0.198 s
  | Grid partitioning                          :        0.130 s           0.130 s
  | Preloading free-atom quantities on grid    :        0.014 s           0.013 s
  | Free-atom superposition energy             :        0.065 s           0.065 s
  | Total energy evaluation                    :        0.000 s           0.001 s
------------------------------------------------------------

------------------------------------------------------------
          Begin self-consistency iteration #    1

  Date     :  20150727, Time     :  120937.046
------------------------------------------------------------
  Evaluating new KS density.
  Integration grid: deviation in total charge (<rho> - N_e) =  -2.131628E-14
  Pulay mixing of updated and previous charge densities.

  Evaluating partitioned Hartree potential by multipole expansion.
  | Analytical far-field extrapolation by fixed multipoles:
  | Hartree multipole sum: apparent total charge =  -0.176879E-05
  Summing up the Hartree potential.
  Time summed over all CPUs for potential: real work        2.566 s, elapsed        2.576 s
  | RMS charge density error from multipole expansion :   0.158756E-02

  Integrating Hamiltonian matrix: batch-based integration.
  Time summed over all CPUs for integration: real work        7.135 s, elapsed        7.326 s

  Updating Kohn-Sham eigenvalues, eigenvectors, occupation numbers, and Fermi level.
  Solving generalized eigenproblem
  Updating Kohn-Sham eigenvalues and eigenfunctions.
  Solving real generalised eigenvalue problem by standard LAPACK (fast)
  Determining occupation numbers for Kohn-Sham eigenstates.
  | Chemical potential (Fermi level) in eV                 : -.34563831E+01
  | Error in electron count due to remaining E_F inaccuracy: 0.00000000E+00
  | Maximum occupation number of highest empty state:  0.00E+00

  Writing Kohn-Sham eigenvalues.

  State    Occupation    Eigenvalue [Ha]    Eigenvalue [eV]
      1       2.00000         -18.979716         -516.46434
      2       2.00000         -18.975228         -516.34221
      3       2.00000         -18.959068         -515.90250
      4       2.00000         -18.956038         -515.82003
      5       2.00000         -18.939145         -515.36036
      6       2.00000          -1.066498          -29.02090
      7       2.00000          -1.054149          -28.68486
      8       2.00000          -1.049880          -28.56869
      9       2.00000          -1.023711          -27.85659
     10       2.00000          -0.999601          -27.20053
     11       2.00000          -0.604022          -16.43628
     12       2.00000          -0.602394          -16.39197
     13       2.00000          -0.578660          -15.74615
     14       2.00000          -0.570953          -15.53642
     15       2.00000          -0.533649          -14.52134
     16       2.00000          -0.489875          -13.33016
     17       2.00000          -0.475238          -12.93189
     18       2.00000          -0.460427          -12.52887
     19       2.00000          -0.447182          -12.16845
     20       2.00000          -0.430141          -11.70473
     21       2.00000          -0.402875          -10.96279
     22       2.00000          -0.398562          -10.84542
     23       2.00000          -0.388951          -10.58389
     24       2.00000          -0.381801          -10.38934
     25       2.00000          -0.354388           -9.64338
     26       0.00000          -0.089216           -2.42770
     27       0.00000          -0.062889           -1.71130
     28       0.00000          -0.055813           -1.51874
     29       0.00000          -0.034186           -0.93025
     30       0.00000          -0.026163           -0.71194
     31       0.00000          -0.013242           -0.36034
     32       0.00000           0.007366            0.20044
     33       0.00000           0.041625            1.13266
     34       0.00000           0.056265            1.53105
     35       0.00000           0.061345            1.66928
     36       0.00000           0.080032            2.17778
     37       0.00000           0.086327            2.34909
     38       0.00000           0.096347            2.62175
     39       0.00000           0.101082            2.75059
     40       0.00000           0.108358            2.94856
     41       0.00000           0.110847            3.01630
     42       0.00000           0.121418            3.30396
     43       0.00000           0.129964            3.53650
     44       0.00000           0.131272            3.57208
     45       0.00000           0.147174            4.00480
     46       0.00000           0.148183            4.03227
     47       0.00000           0.161322            4.38979
     48       0.00000           0.164690            4.48143
     49       0.00000           0.183083            4.98193
     50       0.00000           0.203508            5.53774
     51       0.00000           0.212212            5.77457
     52       0.00000           0.226236            6.15620
     53       0.00000           0.244115            6.64270
     54       0.00000           0.256242            6.97270
     55       0.00000           0.270106            7.34995
     56       0.00000           0.283730            7.72069
     57       0.00000           0.285558            7.77043
     58       0.00000           0.307586            8.36984
     59       0.00000           0.318313            8.66175
     60       0.00000           0.319960            8.70656
     61       0.00000           0.337600            9.18656
     62       0.00000           0.359644            9.78640
     63       0.00000           0.372266           10.12986
     64       0.00000           0.377733           10.27863
     65       0.00000           0.402649           10.95663
     66       0.00000           0.407617           11.09183
     67       0.00000           0.408647           11.11986
     68       0.00000           0.423434           11.52223
     69       0.00000           0.438980           11.94527
     70       0.00000           0.453689           12.34551
     71       0.00000           0.457079           12.43777
     72       0.00000           0.468450           12.74718
     73       0.00000           0.477284           12.98755
     74       0.00000           0.507501           13.80981
     75       0.00000           0.529093           14.39736
     76       0.00000           0.555827           15.12481
     77       0.00000           0.565149           15.37850
     78       0.00000           0.583379           15.87455
     79       0.00000           0.594004           16.16367
     80       0.00000           0.601197           16.35941
     81       0.00000           0.637478           17.34666
     82       0.00000           0.646095           17.58114
     83       0.00000           0.684536           18.62717
     84       0.00000           0.715154           19.46032
     85       0.00000           0.746266           20.30693

  Highest occupied state (VBM) at     -9.64337957 eV
  | Occupation number:      2.00000000

  Lowest unoccupied state (CBM) at    -2.42769787 eV
  | Occupation number:      0.00000000

  Overall HOMO-LUMO gap:      7.21568170 eV.

  Total energy components:
  | Sum of eigenvalues            :        -214.24430742 Ha       -5829.88422623 eV
  | XC energy correction          :         -45.76753212 Ha       -1245.39791412 eV
  | XC potential correction       :          58.48479370 Ha        1591.45220866 eV
  | Free-atom electrostatic energy:        -179.13698858 Ha       -4874.56547438 eV
  | Hartree energy correction     :          -2.26253005 Ha         -61.56657505 eV
  | van der Waals energy corr.    :           0.00000000 Ha           0.00000000 eV
  | Entropy correction            :           0.00000000 Ha           0.00000000 eV
  | ---------------------------
  | Total energy                  :        -382.92656447 Ha      -10419.96198112 eV
  | Total energy, T -> 0          :        -382.92656447 Ha      -10419.96198112 eV  <-- do not rely on this value for anything but (periodic) metals
  | Electronic free energy        :        -382.92656447 Ha      -10419.96198112 eV

  Derived energy quantities:
  | Kinetic energy                :         380.50281282 Ha       10354.00834287 eV
  | Electrostatic energy          :        -717.66184517 Ha      -19528.57240987 eV
  | Energy correction for multipole
  | error in Hartree potential    :          -0.00001138 Ha          -0.00030969 eV
  | Sum of eigenvalues per atom                           :        -388.65894842 eV
  | Total energy (T->0) per atom                          :        -694.66413207 eV  <-- do not rely on this value for anything but (periodic) metals
  | Electronic free energy per atom                       :        -694.66413207 eV

  Self-consistency convergence accuracy:
  | Change of charge density      : 0.6597E+00
  | Change of sum of eigenvalues  : 0.6350E+02 eV
  | Change of total energy        : 0.3954E+01 eV

  End self-consistency iteration #     1       :  max(cpu_time)    wall_clock(cpu1)
  | Time for this iteration                    :        1.943 s           1.943 s
  | Charge density update                      :        0.639 s           0.639 s
  | Density mixing                             :        0.003 s           0.003 s
  | Hartree multipole update                   :        0.005 s           0.005 s
  | Hartree multipole summation                :        0.323 s           0.323 s
  | Integration                                :        0.918 s           0.918 s
  | Solution of K.-S. eqns.                    :        0.054 s           0.054 s
  | Total energy evaluation                    :        0.001 s           0.001 s
------------------------------------------------------------

------------------------------------------------------------
          Begin self-consistency iteration #    2

  Date     :  20150727, Time     :  120938.989
------------------------------------------------------------
  Evaluating new KS density.
  Integration grid: deviation in total charge (<rho> - N_e) =  -2.131628E-14
  Pulay mixing of updated and previous charge densities.

  Evaluating partitioned Hartree potential by multipole expansion.
  | Analytical far-field extrapolation by fixed multipoles:
  | Hartree multipole sum: apparent total charge =  -0.484247E-05
  Summing up the Hartree potential.
  Time summed over all CPUs for potential: real work        2.566 s, elapsed        2.575 s
  | RMS charge density error from multipole expansion :   0.627921E-02

  Integrating Hamiltonian matrix: batch-based integration.
  Time summed over all CPUs for integration: real work        7.119 s, elapsed        7.287 s

  Updating Kohn-Sham eigenvalues, eigenvectors, occupation numbers, and Fermi level.
  Solving generalized eigenproblem
  Updating Kohn-Sham eigenvalues and eigenfunctions.
  Solving real generalised eigenvalue problem by standard LAPACK (fast)
  Determining occupation numbers for Kohn-Sham eigenstates.
  | Chemical potential (Fermi level) in eV                 : -.24147322E+01
  | Error in electron count due to remaining E_F inaccuracy: 0.00000000E+00
  | Maximum occupation number of highest empty state:  0.00E+00

  Highest occupied state (VBM) at     -6.56255430 eV
  | Occupation number:      2.00000000

  Lowest unoccupied state (CBM) at    -1.93093544 eV
  | Occupation number:      0.00000000

  Overall HOMO-LUMO gap:      4.63161887 eV.

  Total energy components:
  | Sum of eigenvalues            :        -208.84305591 Ha       -5682.90869446 eV
  | XC energy correction          :         -46.34610270 Ha       -1261.14162067 eV
  | XC potential correction       :          59.24162755 Ha        1612.04670579 eV
  | Free-atom electrostatic energy:        -179.13698858 Ha       -4874.56547438 eV
  | Hartree energy correction     :          -7.67763600 Ha        -208.91910514 eV
  | van der Waals energy corr.    :           0.00000000 Ha           0.00000000 eV
  | Entropy correction            :           0.00000000 Ha           0.00000000 eV
  | ---------------------------
  | Total energy                  :        -382.76215563 Ha      -10415.48818885 eV
  | Total energy, T -> 0          :        -382.76215563 Ha      -10415.48818885 eV  <-- do not rely on this value for anything but (periodic) metals
  | Electronic free energy        :        -382.76215563 Ha      -10415.48818885 eV

  Derived energy quantities:
  | Kinetic energy                :         383.27998589 Ha       10429.57906725 eV
  | Electrostatic energy          :        -719.69603882 Ha      -19583.92563543 eV
  | Energy correction for multipole
  | error in Hartree potential    :          -0.00085172 Ha          -0.02317646 eV
  | Sum of eigenvalues per atom                           :        -378.86057963 eV
  | Total energy (T->0) per atom                          :        -694.36587926 eV  <-- do not rely on this value for anything but (periodic) metals
  | Electronic free energy per atom                       :        -694.36587926 eV

  Self-consistency convergence accuracy:
  | Change of charge density      : 0.4978E+00
  | Change of sum of eigenvalues  : 0.1470E+03 eV
  | Change of total energy        : 0.4474E+01 eV

  End self-consistency iteration #     2       :  max(cpu_time)    wall_clock(cpu1)
  | Time for this iteration                    :        1.930 s           1.930 s
  | Charge density update                      :        0.630 s           0.629 s
  | Density mixing                             :        0.005 s           0.005 s
  | Hartree multipole update                   :        0.005 s           0.005 s
  | Hartree multipole summation                :        0.323 s           0.323 s
  | Integration                                :        0.913 s           0.913 s
  | Solution of K.-S. eqns.                    :        0.054 s           0.053 s
  | Total energy evaluation                    :        0.000 s           0.000 s
------------------------------------------------------------

------------------------------------------------------------
          Begin self-consistency iteration #    3

  Date     :  20150727, Time     :  120940.919
------------------------------------------------------------
  Evaluating new KS density.
  Integration grid: deviation in total charge (<rho> - N_e) =   1.421085E-14
  Pulay mixing of updated and previous charge densities.

  Evaluating partitioned Hartree potential by multipole expansion.
  | Analytical far-field extrapolation by fixed multipoles:
  | Hartree multipole sum: apparent total charge =  -0.397792E-05
  Summing up the Hartree potential.
  Time summed over all CPUs for potential: real work        2.566 s, elapsed        2.575 s
  | RMS charge density error from multipole expansion :   0.129431E-01

  Integrating Hamiltonian matrix: batch-based integration.
  Time summed over all CPUs for integration: real work        7.127 s, elapsed        7.323 s

  Updating Kohn-Sham eigenvalues, eigenvectors, occupation numbers, and Fermi level.
  Solving generalized eigenproblem
  Updating Kohn-Sham eigenvalues and eigenfunctions.
  Solving real generalised eigenvalue problem by standard LAPACK (fast)
  Determining occupation numbers for Kohn-Sham eigenstates.
  | Chemical potential (Fermi level) in eV                 : -.21745756E+01
  | Error in electron count due to remaining E_F inaccuracy: 0.00000000E+00
  | Maximum occupation number of highest empty state:  0.00E+00

  Highest occupied state (VBM) at     -6.24161527 eV
  | Occupation number:      2.00000000

  Lowest unoccupied state (CBM) at    -1.88563145 eV
  | Occupation number:      0.00000000

  Overall HOMO-LUMO gap:      4.35598383 eV.

  Total energy components:
  | Sum of eigenvalues            :        -208.94534941 Ha       -5685.69224234 eV
  | XC energy correction          :         -46.32816058 Ha       -1260.65339068 eV
  | XC potential correction       :          59.21332336 Ha        1611.27650954 eV
  | Free-atom electrostatic energy:        -179.13698858 Ha       -4874.56547438 eV
  | Hartree energy correction     :          -7.55934789 Ha        -205.70032190 eV
  | van der Waals energy corr.    :           0.00000000 Ha           0.00000000 eV
  | Entropy correction            :           0.00000000 Ha           0.00000000 eV
  | ---------------------------
  | Total energy                  :        -382.75652309 Ha      -10415.33491977 eV
  | Total energy, T -> 0          :        -382.75652309 Ha      -10415.33491977 eV  <-- do not rely on this value for anything but (periodic) metals
  | Electronic free energy        :        -382.75652309 Ha      -10415.33491977 eV

  Derived energy quantities:
  | Kinetic energy                :         381.26695055 Ha       10374.80158863 eV
  | Electrostatic energy          :        -717.69531307 Ha      -19529.48311772 eV
  | Energy correction for multipole
  | error in Hartree potential    :          -0.00546631 Ha          -0.14874594 eV
  | Sum of eigenvalues per atom                           :        -379.04614949 eV
  | Total energy (T->0) per atom                          :        -694.35566132 eV  <-- do not rely on this value for anything but (periodic) metals
  | Electronic free energy per atom                       :        -694.35566132 eV

  Self-consistency convergence accuracy:
  | Change of charge density      : 0.2540E+00
  | Change of sum of eigenvalues  : -.2784E+01 eV
  | Change of total energy        : 0.1533E+00 eV

  End self-consistency iteration #     3       :  max(cpu_time)    wall_clock(cpu1)
  | Time for this iteration                    :        1.936 s           1.936 s
  | Charge density update                      :        0.629 s           0.629 s
  | Density mixing                             :        0.007 s           0.007 s
  | Hartree multipole update                   :        0.005 s           0.005 s
  | Hartree multipole summation                :        0.322 s           0.323 s
  | Integration                                :        0.917 s           0.917 s
  | Solution of K.-S. eqns.                    :        0.054 s           0.054 s
  | Total energy evaluation                    :        0.001 s           0.000 s
------------------------------------------------------------

------------------------------------------------------------
          Begin self-consistency iteration #    4

  Date     :  20150727, Time     :  120942.855
------------------------------------------------------------
  Evaluating new KS density.
  Integration grid: deviation in total charge (<rho> - N_e) =   4.263256E-14
  Pulay mixing of updated and previous charge densities.

  Evaluating partitioned Hartree potential by multipole expansion.
  | Analytical far-field extrapolation by fixed multipoles:
  | Hartree multipole sum: apparent total charge =  -0.460972E-05
  Summing up the Hartree potential.
  Time summed over all CPUs for potential: real work        2.565 s, elapsed        2.574 s
  | RMS charge density error from multipole expansion :   0.164129E-01

  Integrating Hamiltonian matrix: batch-based integration.
  Time summed over all CPUs for integration: real work        7.115 s, elapsed        7.314 s

  Updating Kohn-Sham eigenvalues, eigenvectors, occupation numbers, and Fermi level.
  Solving generalized eigenproblem
  Updating Kohn-Sham eigenvalues and eigenfunctions.
  Solving real generalised eigenvalue problem by standard LAPACK (fast)
  Determining occupation numbers for Kohn-Sham eigenstates.
  | Chemical potential (Fermi level) in eV                 : -.47510715E+01
  | Error in electron count due to remaining E_F inaccuracy: 0.00000000E+00
  | Maximum occupation number of highest empty state:  0.00E+00

  Highest occupied state (VBM) at     -5.11684206 eV
  | Occupation number:      2.00000000

  Lowest unoccupied state (CBM) at    -1.75607040 eV
  | Occupation number:      0.00000000

  Overall HOMO-LUMO gap:      3.36077166 eV.

  Total energy components:
  | Sum of eigenvalues            :        -207.33275595 Ha       -5641.81134157 eV
  | XC energy correction          :         -46.51678414 Ha       -1265.78609888 eV
  | XC potential correction       :          59.45915872 Ha        1617.96602990 eV
  | Free-atom electrostatic energy:        -179.13698858 Ha       -4874.56547438 eV
  | Hartree energy correction     :          -9.21798847 Ha        -250.83422847 eV
  | van der Waals energy corr.    :           0.00000000 Ha           0.00000000 eV
  | Entropy correction            :           0.00000000 Ha           0.00000000 eV
  | ---------------------------
  | Total energy                  :        -382.74535841 Ha      -10415.03111339 eV
  | Total energy, T -> 0          :        -382.74535841 Ha      -10415.03111339 eV  <-- do not rely on this value for anything but (periodic) metals
  | Electronic free energy        :        -382.74535841 Ha      -10415.03111339 eV

  Derived energy quantities:
  | Kinetic energy                :         381.47694131 Ha       10380.51572790 eV
  | Electrostatic energy          :        -717.70551559 Ha      -19529.76074241 eV
  | Energy correction for multipole
  | error in Hartree potential    :          -0.00719697 Ha          -0.19583943 eV
  | Sum of eigenvalues per atom                           :        -376.12075610 eV
  | Total energy (T->0) per atom                          :        -694.33540756 eV  <-- do not rely on this value for anything but (periodic) metals
  | Electronic free energy per atom                       :        -694.33540756 eV

  Self-consistency convergence accuracy:
  | Change of charge density      : 0.1365E+00
  | Change of sum of eigenvalues  : 0.4388E+02 eV
  | Change of total energy        : 0.3038E+00 eV

  End self-consistency iteration #     4       :  max(cpu_time)    wall_clock(cpu1)
  | Time for this iteration                    :        1.937 s           1.937 s
  | Charge density update                      :        0.630 s           0.630 s
  | Density mixing                             :        0.009 s           0.008 s
  | Hartree multipole update                   :        0.005 s           0.005 s
  | Hartree multipole summation                :        0.322 s           0.322 s
  | Integration                                :        0.917 s           0.917 s
  | Solution of K.-S. eqns.                    :        0.054 s           0.054 s
  | Total energy evaluation                    :        0.000 s           0.000 s
------------------------------------------------------------

------------------------------------------------------------
          Begin self-consistency iteration #    5

  Date     :  20150727, Time     :  120944.792
------------------------------------------------------------
  Evaluating new KS density.
  Integration grid: deviation in total charge (<rho> - N_e) =   0.000000E+00
  Pulay mixing of updated and previous charge densities.

  Evaluating partitioned Hartree potential by multipole expansion.
  | Analytical far-field extrapolation by fixed multipoles:
  | Hartree multipole sum: apparent total charge =  -0.453193E-05
  Summing up the Hartree potential.
  Time summed over all CPUs for potential: real work        2.565 s, elapsed        2.574 s
  | RMS charge density error from multipole expansion :   0.172436E-01

  Integrating Hamiltonian matrix: batch-based integration.
  Time summed over all CPUs for integration: real work        7.110 s, elapsed        7.294 s

  Updating Kohn-Sham eigenvalues, eigenvectors, occupation numbers, and Fermi level.
  Solving generalized eigenproblem
  Updating Kohn-Sham eigenvalues and eigenfunctions.
  Solving real generalised eigenvalue problem by standard LAPACK (fast)
  Determining occupation numbers for Kohn-Sham eigenstates.
  | Chemical potential (Fermi level) in eV                 : -.47285118E+01
  | Error in electron count due to remaining E_F inaccuracy: 0.00000000E+00
  | Maximum occupation number of highest empty state:  0.00E+00

  Highest occupied state (VBM) at     -5.02606462 eV
  | Occupation number:      2.00000000

  Lowest unoccupied state (CBM) at    -1.74160404 eV
  | Occupation number:      0.00000000

  Overall HOMO-LUMO gap:      3.28446058 eV.

  Total energy components:
  | Sum of eigenvalues            :        -207.17878958 Ha       -5637.62170359 eV
  | XC energy correction          :         -46.53878275 Ha       -1266.38471167 eV
  | XC potential correction       :          59.48737054 Ha        1618.73371254 eV
  | Free-atom electrostatic energy:        -179.13698858 Ha       -4874.56547438 eV
  | Hartree energy correction     :          -9.37776174 Ha        -255.18188035 eV
  | van der Waals energy corr.    :           0.00000000 Ha           0.00000000 eV
  | Entropy correction            :           0.00000000 Ha           0.00000000 eV
  | ---------------------------
  | Total energy                  :        -382.74495212 Ha      -10415.02005744 eV
  | Total energy, T -> 0          :        -382.74495212 Ha      -10415.02005744 eV  <-- do not rely on this value for anything but (periodic) metals
  | Electronic free energy        :        -382.74495212 Ha      -10415.02005744 eV

  Derived energy quantities:
  | Kinetic energy                :         381.47481843 Ha       10380.45796123 eV
  | Electrostatic energy          :        -717.68098779 Ha      -19529.09330700 eV
  | Energy correction for multipole
  | error in Hartree potential    :          -0.00761080 Ha          -0.20710045 eV
  | Sum of eigenvalues per atom                           :        -375.84144691 eV
  | Total energy (T->0) per atom                          :        -694.33467050 eV  <-- do not rely on this value for anything but (periodic) metals
  | Electronic free energy per atom                       :        -694.33467050 eV

  Self-consistency convergence accuracy:
  | Change of charge density      : 0.3852E-01
  | Change of sum of eigenvalues  : 0.4190E+01 eV
  | Change of total energy        : 0.1106E-01 eV

  End self-consistency iteration #     5       :  max(cpu_time)    wall_clock(cpu1)
  | Time for this iteration                    :        1.936 s           1.936 s
  | Charge density update                      :        0.630 s           0.630 s
  | Density mixing                             :        0.010 s           0.010 s
  | Hartree multipole update                   :        0.005 s           0.005 s
  | Hartree multipole summation                :        0.323 s           0.322 s
  | Integration                                :        0.913 s           0.914 s
  | Solution of K.-S. eqns.                    :        0.054 s           0.054 s
  | Total energy evaluation                    :        0.000 s           0.000 s
------------------------------------------------------------

------------------------------------------------------------
          Begin self-consistency iteration #    6

  Date     :  20150727, Time     :  120946.728
------------------------------------------------------------
  Evaluating new KS density.
  Integration grid: deviation in total charge (<rho> - N_e) =  -1.421085E-14
  Pulay mixing of updated and previous charge densities.

  Evaluating partitioned Hartree potential by multipole expansion.
  | Analytical far-field extrapolation by fixed multipoles:
  | Hartree multipole sum: apparent total charge =  -0.452751E-05
  Summing up the Hartree potential.
  Time summed over all CPUs for potential: real work        2.565 s, elapsed        2.575 s
  | RMS charge density error from multipole expansion :   0.174330E-01

  Integrating Hamiltonian matrix: batch-based integration.
  Time summed over all CPUs for integration: real work        7.109 s, elapsed        7.296 s

  Updating Kohn-Sham eigenvalues, eigenvectors, occupation numbers, and Fermi level.
  Solving generalized eigenproblem
  Updating Kohn-Sham eigenvalues and eigenfunctions.
  Solving real generalised eigenvalue problem by standard LAPACK (fast)
  Determining occupation numbers for Kohn-Sham eigenstates.
  | Chemical potential (Fermi level) in eV                 : -.17961028E+01
  | Error in electron count due to remaining E_F inaccuracy: 0.00000000E+00
  | Maximum occupation number of highest empty state:  0.00E+00

  Highest occupied state (VBM) at     -4.99384504 eV
  | Occupation number:      2.00000000

  Lowest unoccupied state (CBM) at    -1.73576378 eV
  | Occupation number:      0.00000000

  Overall HOMO-LUMO gap:      3.25808126 eV.

  Total energy components:
  | Sum of eigenvalues            :        -207.13375233 Ha       -5636.39617767 eV
  | XC energy correction          :         -46.54466798 Ha       -1266.54485689 eV
  | XC potential correction       :          59.49495138 Ha        1618.93999780 eV
  | Free-atom electrostatic energy:        -179.13698858 Ha       -4874.56547438 eV
  | Hartree energy correction     :          -9.42454371 Ha        -256.45488268 eV
  | van der Waals energy corr.    :           0.00000000 Ha           0.00000000 eV
  | Entropy correction            :           0.00000000 Ha           0.00000000 eV
  | ---------------------------
  | Total energy                  :        -382.74500123 Ha      -10415.02139381 eV
  | Total energy, T -> 0          :        -382.74500123 Ha      -10415.02139381 eV  <-- do not rely on this value for anything but (periodic) metals
  | Electronic free energy        :        -382.74500123 Ha      -10415.02139381 eV

  Derived energy quantities:
  | Kinetic energy                :         381.47333108 Ha       10380.41748852 eV
  | Electrostatic energy          :        -717.67366432 Ha      -19528.89402544 eV
  | Energy correction for multipole
  | error in Hartree potential    :          -0.00770695 Ha          -0.20971672 eV
  | Sum of eigenvalues per atom                           :        -375.75974518 eV
  | Total energy (T->0) per atom                          :        -694.33475959 eV  <-- do not rely on this value for anything but (periodic) metals
  | Electronic free energy per atom                       :        -694.33475959 eV

  Self-consistency convergence accuracy:
  | Change of charge density      : 0.1063E-01
  | Change of sum of eigenvalues  : 0.1226E+01 eV
  | Change of total energy        : -.1336E-02 eV

  End self-consistency iteration #     6       :  max(cpu_time)    wall_clock(cpu1)
  | Time for this iteration                    :        1.936 s           1.935 s
  | Charge density update                      :        0.628 s           0.628 s
  | Density mixing                             :        0.011 s           0.011 s
  | Hartree multipole update                   :        0.005 s           0.005 s
  | Hartree multipole summation                :        0.323 s           0.322 s
  | Integration                                :        0.914 s           0.914 s
  | Solution of K.-S. eqns.                    :        0.054 s           0.054 s
  | Total energy evaluation                    :        0.000 s           0.000 s
------------------------------------------------------------

------------------------------------------------------------
          Begin self-consistency iteration #    7

  Date     :  20150727, Time     :  120948.663
------------------------------------------------------------
  Evaluating new KS density.
  Integration grid: deviation in total charge (<rho> - N_e) =   0.000000E+00
  Pulay mixing of updated and previous charge densities.

  Evaluating partitioned Hartree potential by multipole expansion.
  | Analytical far-field extrapolation by fixed multipoles:
  | Hartree multipole sum: apparent total charge =  -0.428781E-05
  Summing up the Hartree potential.
  Time summed over all CPUs for potential: real work        2.565 s, elapsed        2.574 s
  | RMS charge density error from multipole expansion :   0.174430E-01

  Integrating Hamiltonian matrix: batch-based integration.
  Time summed over all CPUs for integration: real work        7.113 s, elapsed        7.304 s

  Updating Kohn-Sham eigenvalues, eigenvectors, occupation numbers, and Fermi level.
  Solving generalized eigenproblem
  Updating Kohn-Sham eigenvalues and eigenfunctions.
  Solving real generalised eigenvalue problem by standard LAPACK (fast)
  Determining occupation numbers for Kohn-Sham eigenstates.
  | Chemical potential (Fermi level) in eV                 : -.17948688E+01
  | Error in electron count due to remaining E_F inaccuracy: 0.36764192E-09
  | Maximum occupation number of highest empty state:  0.00E+00

  Highest occupied state (VBM) at     -5.11604115 eV
  | Occupation number:      2.00000000

  Lowest unoccupied state (CBM) at    -1.75055317 eV
  | Occupation number:      0.00000000

  Overall HOMO-LUMO gap:      3.36548799 eV.

  Total energy components:
  | Sum of eigenvalues            :        -207.29432965 Ha       -5640.76570891 eV
  | XC energy correction          :         -46.52857653 Ha       -1266.10698627 eV
  | XC potential correction       :          59.47334379 Ha        1618.35202529 eV
  | Free-atom electrostatic energy:        -179.13698858 Ha       -4874.56547438 eV
  | Hartree energy correction     :          -9.25834687 Ha        -251.93243648 eV
  | van der Waals energy corr.    :           0.00000000 Ha           0.00000000 eV
  | Entropy correction            :           0.00000000 Ha           0.00000000 eV
  | ---------------------------
  | Total energy                  :        -382.74489785 Ha      -10415.01858075 eV
  | Total energy, T -> 0          :        -382.74489785 Ha      -10415.01858075 eV  <-- do not rely on this value for anything but (periodic) metals
  | Electronic free energy        :        -382.74489785 Ha      -10415.01858075 eV

  Derived energy quantities:
  | Kinetic energy                :         381.53002208 Ha       10381.96012921 eV
  | Electrostatic energy          :        -717.74634340 Ha      -19530.87172370 eV
  | Energy correction for multipole
  | error in Hartree potential    :          -0.00762337 Ha          -0.20744255 eV
  | Sum of eigenvalues per atom                           :        -376.05104726 eV
  | Total energy (T->0) per atom                          :        -694.33457205 eV  <-- do not rely on this value for anything but (periodic) metals
  | Electronic free energy per atom                       :        -694.33457205 eV

  Self-consistency convergence accuracy:
  | Change of charge density      : 0.1049E-01
  | Change of sum of eigenvalues  : -.4370E+01 eV
  | Change of total energy        : 0.2813E-02 eV

  End self-consistency iteration #     7       :  max(cpu_time)    wall_clock(cpu1)
  | Time for this iteration                    :        1.937 s           1.937 s
  | Charge density update                      :        0.628 s           0.628 s
  | Density mixing                             :        0.012 s           0.012 s
  | Hartree multipole update                   :        0.005 s           0.005 s
  | Hartree multipole summation                :        0.323 s           0.323 s
  | Integration                                :        0.915 s           0.915 s
  | Solution of K.-S. eqns.                    :        0.054 s           0.054 s
  | Total energy evaluation                    :        0.000 s           0.000 s
------------------------------------------------------------

------------------------------------------------------------
          Begin self-consistency iteration #    8

  Date     :  20150727, Time     :  120950.601
------------------------------------------------------------
  Evaluating new KS density.
  Integration grid: deviation in total charge (<rho> - N_e) =   3.676490E-10
  Pulay mixing of updated and previous charge densities.

  Evaluating partitioned Hartree potential by multipole expansion.
  | Analytical far-field extrapolation by fixed multipoles:
  | Hartree multipole sum: apparent total charge =  -0.428012E-05
  Summing up the Hartree potential.
  Time summed over all CPUs for potential: real work        2.565 s, elapsed        2.575 s
  | RMS charge density error from multipole expansion :   0.174930E-01

  Integrating Hamiltonian matrix: batch-based integration.
  Time summed over all CPUs for integration: real work        7.103 s, elapsed        7.287 s

  Updating Kohn-Sham eigenvalues, eigenvectors, occupation numbers, and Fermi level.
  Solving generalized eigenproblem
  Updating Kohn-Sham eigenvalues and eigenfunctions.
  Solving real generalised eigenvalue problem by standard LAPACK (fast)
  Determining occupation numbers for Kohn-Sham eigenstates.
  | Chemical potential (Fermi level) in eV                 : -.17912709E+01
  | Error in electron count due to remaining E_F inaccuracy: 0.51329110E-08
  | Maximum occupation number of highest empty state:  0.00E+00

  Highest occupied state (VBM) at     -5.09941695 eV
  | Occupation number:      2.00000000

  Lowest unoccupied state (CBM) at    -1.74995601 eV
  | Occupation number:      0.00000001

  Overall HOMO-LUMO gap:      3.34946094 eV.

  Total energy components:
  | Sum of eigenvalues            :        -207.27708719 Ha       -5640.29651763 eV
  | XC energy correction          :         -46.53053468 Ha       -1266.16027015 eV
  | XC potential correction       :          59.47588794 Ha        1618.42125518 eV
  | Free-atom electrostatic energy:        -179.13698858 Ha       -4874.56547438 eV
  | Hartree energy correction     :          -9.27617583 Ha        -252.41758708 eV
  | van der Waals energy corr.    :           0.00000000 Ha           0.00000000 eV
  | Entropy correction            :           0.00000000 Ha           0.00000000 eV
  | ---------------------------
  | Total energy                  :        -382.74489834 Ha      -10415.01859406 eV
  | Total energy, T -> 0          :        -382.74489834 Ha      -10415.01859406 eV  <-- do not rely on this value for anything but (periodic) metals
  | Electronic free energy        :        -382.74489834 Ha      -10415.01859406 eV

  Derived energy quantities:
  | Kinetic energy                :         381.53064957 Ha       10381.97720401 eV
  | Electrostatic energy          :        -717.74501323 Ha      -19530.83552792 eV
  | Energy correction for multipole
  | error in Hartree potential    :          -0.00765328 Ha          -0.20825639 eV
  | Sum of eigenvalues per atom                           :        -376.01976784 eV
  | Total energy (T->0) per atom                          :        -694.33457294 eV  <-- do not rely on this value for anything but (periodic) metals
  | Electronic free energy per atom                       :        -694.33457294 eV

  Self-consistency convergence accuracy:
  | Change of charge density      : 0.1920E-02
  | Change of sum of eigenvalues  : 0.4692E+00 eV
  | Change of total energy        : -.1331E-04 eV

  End self-consistency iteration #     8       :  max(cpu_time)    wall_clock(cpu1)
  | Time for this iteration                    :        1.910 s           1.910 s
  | Charge density update                      :        0.601 s           0.601 s
  | Density mixing                             :        0.014 s           0.014 s
  | Hartree multipole update                   :        0.005 s           0.005 s
  | Hartree multipole summation                :        0.323 s           0.323 s
  | Integration                                :        0.913 s           0.913 s
  | Solution of K.-S. eqns.                    :        0.053 s           0.053 s
  | Total energy evaluation                    :        0.000 s           0.000 s
------------------------------------------------------------

------------------------------------------------------------
          Begin self-consistency iteration #    9

  Date     :  20150727, Time     :  120952.511
------------------------------------------------------------
  Evaluating new KS density.
  Integration grid: deviation in total charge (<rho> - N_e) =   5.132932E-09
  Pulay mixing of updated and previous charge densities.

  Evaluating partitioned Hartree potential by multipole expansion.
  | Analytical far-field extrapolation by fixed multipoles:
  | Hartree multipole sum: apparent total charge =  -0.427762E-05
  Summing up the Hartree potential.
  Time summed over all CPUs for potential: real work        2.565 s, elapsed        2.575 s
  | RMS charge density error from multipole expansion :   0.174906E-01

  Integrating Hamiltonian matrix: batch-based integration.
  Time summed over all CPUs for integration: real work        7.105 s, elapsed        7.294 s

  Updating Kohn-Sham eigenvalues, eigenvectors, occupation numbers, and Fermi level.
  Solving generalized eigenproblem
  Updating Kohn-Sham eigenvalues and eigenfunctions.
  Solving real generalised eigenvalue problem by standard LAPACK (fast)
  Determining occupation numbers for Kohn-Sham eigenstates.
  | Chemical potential (Fermi level) in eV                 : -.17913632E+01
  | Error in electron count due to remaining E_F inaccuracy: 0.63408407E-08
  | Maximum occupation number of highest empty state:  0.00E+00

  Highest occupied state (VBM) at     -5.09915775 eV
  | Occupation number:      2.00000000

  Lowest unoccupied state (CBM) at    -1.75029794 eV
  | Occupation number:      0.00000001

  Overall HOMO-LUMO gap:      3.34885981 eV.

  Total energy components:
  | Sum of eigenvalues            :        -207.27705638 Ha       -5640.29567906 eV
  | XC energy correction          :         -46.53045644 Ha       -1266.15814108 eV
  | XC potential correction       :          59.47578068 Ha        1618.41833648 eV
  | Free-atom electrostatic energy:        -179.13698858 Ha       -4874.56547438 eV
  | Hartree energy correction     :          -9.27617676 Ha        -252.41761256 eV
  | van der Waals energy corr.    :           0.00000000 Ha           0.00000000 eV
  | Entropy correction            :           0.00000000 Ha           0.00000000 eV
  | ---------------------------
  | Total energy                  :        -382.74489747 Ha      -10415.01857059 eV
  | Total energy, T -> 0          :        -382.74489747 Ha      -10415.01857059 eV  <-- do not rely on this value for anything but (periodic) metals
  | Electronic free energy        :        -382.74489747 Ha      -10415.01857059 eV

  Derived energy quantities:
  | Kinetic energy                :         381.53348987 Ha       10382.05449260 eV
  | Electrostatic energy          :        -717.74793091 Ha      -19530.91492212 eV
  | Energy correction for multipole
[...]
   ----------------------------------------------------------------
   Total forces(   4)            : -.777066E+00 -.214750E+01 -.679607E+00
  atom #    5
   Hellmann-Feynman + Multipole  : -.179232E+00 0.981012E+00 0.106023E+01
   Pulay + GGA                   : 0.107913E-01 0.359169E-01 0.842961E-01
   Van der Waals               : -.105689E-02 0.373391E-02 -.123018E-02
   ----------------------------------------------------------------
   Total forces(   5)            : -.169498E+00 0.102066E+01 0.114330E+01
  atom #    6
   Hellmann-Feynman + Multipole  : 0.773824E+00 0.783055E+00 0.140857E+00
   Pulay + GGA                   : -.107519E+00 -.523142E-01 0.610584E-01
   Van der Waals               : 0.190558E-02 0.467307E-02 0.451670E-03
   ----------------------------------------------------------------
   Total forces(   6)            : 0.668211E+00 0.735414E+00 0.202367E+00
  atom #    7
   Hellmann-Feynman + Multipole  : 0.648740E+01 -.502767E+01 -.905679E+01
   Pulay + GGA                   : -.679133E+01 0.595182E+01 0.113474E+02
   Van der Waals               : 0.134295E-02 0.309250E-04 -.540732E-02
   ----------------------------------------------------------------
   Total forces(   7)            : -.302595E+00 0.924180E+00 0.228518E+01
  atom #    8
   Hellmann-Feynman + Multipole  : -.322042E+00 0.209417E+00 -.235053E+01
   Pulay + GGA                   : 0.238332E-01 0.174500E-01 0.126626E+00
   Van der Waals               : -.208840E-02 0.785582E-03 -.342649E-02
   ----------------------------------------------------------------
   Total forces(   8)            : -.300298E+00 0.227653E+00 -.222733E+01
  atom #    9
   Hellmann-Feynman + Multipole  : 0.108229E+01 -.124948E+01 0.290800E+00
   Pulay + GGA                   : -.398802E-01 0.750954E-01 0.831688E-02
   Van der Waals               : 0.159255E-02 0.799401E-03 -.364488E-02
   ----------------------------------------------------------------
   Total forces(   9)            : 0.104400E+01 -.117358E+01 0.295472E+00
  atom #   10
   Hellmann-Feynman + Multipole  : -.126529E+02 -.537687E+01 -.156926E+01
   Pulay + GGA                   : 0.138405E+02 0.683677E+01 0.100272E+01
   Van der Waals               : 0.588671E-03 -.827825E-02 0.251788E-02
   ----------------------------------------------------------------
   Total forces(  10)            : 0.118816E+01 0.145162E+01 -.564026E+00
  atom #   11
   Hellmann-Feynman + Multipole  : -.545444E+00 -.237241E-01 -.820140E-01
   Pulay + GGA                   : 0.121521E+00 -.532412E-01 0.208422E-01
   Van der Waals               : -.156012E-02 -.632684E-02 0.264637E-02
   ----------------------------------------------------------------
   Total forces(  11)            : -.425483E+00 -.832921E-01 -.585254E-01
  atom #   12
   Hellmann-Feynman + Multipole  : -.762267E+00 -.146884E+01 0.706581E+00
   Pulay + GGA                   : 0.449082E-01 0.100703E+00 -.701705E-01
   Van der Waals               : 0.294383E-03 -.928199E-03 0.196303E-04
   ----------------------------------------------------------------
   Total forces(  12)            : -.717064E+00 -.136907E+01 0.636430E+00
  atom #   13
   Hellmann-Feynman + Multipole  : -.159368E+01 -.127428E+02 -.567683E+00
   Pulay + GGA                   : 0.220431E+01 0.132751E+02 -.870858E+00
   Van der Waals               : -.187859E-03 -.514968E-02 0.838991E-03
   ----------------------------------------------------------------
   Total forces(  13)            : 0.610443E+00 0.527113E+00 -.143770E+01
  atom #   14
   Hellmann-Feynman + Multipole  : -.279766E+00 0.422891E+00 0.345877E+00
   Pulay + GGA                   : -.790247E-01 0.883925E-01 0.707324E-01
   Van der Waals               : 0.394398E-02 -.241807E-02 -.241689E-02
   ----------------------------------------------------------------
   Total forces(  14)            : -.354846E+00 0.508866E+00 0.414193E+00
  atom #   15
   Hellmann-Feynman + Multipole  : -.648983E+00 -.813769E+00 0.937048E+00
   Pulay + GGA                   : 0.286073E-01 0.701291E-01 -.661658E-01
   Van der Waals               : -.362263E-02 -.102454E-02 0.111469E-02
   ----------------------------------------------------------------
   Total forces(  15)            : -.623999E+00 -.744665E+00 0.871997E+00
  Timings for vdw_correction_hirshfeld (Tkatchenko-Scheffler 2009):
  | CPU time:        5.078 s, Wall clock time:        5.081 s.
  Removing unitary transformations (pure translations, rotations) from forces on atoms.
  Atomic forces before filtering:
  | Net force on center of mass :  0.111405E-01 0.254052E-02 0.842972E-02 eV/A
  | Net torque on center of mass:  -.117993E-01 -.899875E-02 -.757697E-02 eV
  Atomic forces after filtering:
  | Net force on center of mass :  -.446015E-15 0.624421E-15 -.356812E-15 eV/A
  | Net torque on center of mass:  -.236021E-15 0.472042E-15 0.000000E+00 eV
 
  Energy and forces in a compact form:
  | Total energy uncorrected      :         -0.104150854496581E+05 eV
  | Total energy corrected        :         -0.104150854496582E+05 eV  <-- do not rely on this value for anything but (periodic) metals
  | Electronic free energy        :         -0.104150854496583E+05 eV
  Total atomic forces (unitary forces cleaned) [eV/Ang]:
  |   1         -0.470482577971680E-01          0.380429886132192E+01         -0.222443179893693E+01
  |   2          0.226557780573749E+01         -0.339980132124733E+01          0.149742262804838E+01
  |   3         -0.205019252937049E+01         -0.278971652636624E+00         -0.148871970494963E+00
  |   4         -0.777466176176471E+00         -0.214774094476331E+01         -0.680419230823125E+00
  |   5         -0.169870948257183E+00          0.102038098831616E+01          0.114252484835232E+01
  |   6          0.667912396516987E+00          0.735054605311861E+00          0.201648642531008E+00
  |   7         -0.303006055662781E+00          0.923875778551707E+00          0.228448739461958E+01
  |   8         -0.300516815294260E+00          0.227244763669559E+00         -0.222805081397798E+01
  |   9          0.104348621726561E+01         -0.117394774097921E+01          0.294999209072801E+00
  |  10          0.118694766033182E+01          0.145164020669630E+01         -0.564413020339144E+00
  |  11         -0.426592920668833E+00         -0.832170436885981E-01         -0.591106715254722E-01
  |  12         -0.718441769768337E+00         -0.136895911765384E+01          0.636081560699938E+00
  |  13          0.609705938960579E+00          0.526711022866901E+00         -0.143786359936949E+01
  |  14         -0.355568797462026E+00          0.508360438175125E+00          0.414194179362986E+00
  |  15         -0.624925748354937E+00         -0.744928843940617E+00          0.871802642780090E+00
 
  ------------------------------------ 
  Start decomposition of the XC Energy 
  ------------------------------------ 
  Hartree-Fock part   :          0.000000000 Ha              0.000000000 eV
  ------------------------------------ 
  X Energy            :        -44.898481278 Ha          -1221.749837519 eV
  C Energy GGA        :         -1.631726354 Ha            -44.401533212 eV
  Total XC Energy     :        -46.530207632 Ha          -1266.151370730 eV
  LDA X and C from self-consistent density 
  X Energy LDA        :        -40.453551737 Ha          -1100.797150700 eV
  C Energy LDA        :         -3.296256274 Ha            -89.695696885 eV
  ------------------------------------ 
  End decomposition of the XC Energy 
  ------------------------------------ 
  Performing Hirshfeld analysis of fragment charges and moments.
  ----------------------------------------------------------------------
  | Atom     1: O
  |   Hirshfeld charge        :     -0.27295908
  |   Free atom volume        :     23.95238533
  |   Hirshfeld volume        :     22.61462829
  |   Hirshfeld dipole vector :      0.01697521       0.03750806       0.02969806
  |   Hirshfeld dipole moment :      0.05076403
  |   Hirshfeld second moments:      0.05440979      -0.01932749       0.02069269
  |                                 -0.01932749      -0.00472412      -0.03285852
  |                                  0.02069269      -0.03285852      -0.05420884
  ----------------------------------------------------------------------
  | Atom     2: H
  |   Hirshfeld charge        :      0.13229493
  |   Free atom volume        :     10.44207651
  |   Hirshfeld volume        :      7.15879647
  |   Hirshfeld dipole vector :     -0.06499126       0.08478021      -0.02955822
  |   Hirshfeld dipole moment :      0.11083879
  |   Hirshfeld second moments:      0.11925589       0.00656662       0.00717667
  |                                  0.00656662       0.07588256      -0.00635756
  |                                  0.00717667      -0.00635756       0.08423656
  ----------------------------------------------------------------------
  | Atom     3: H
  |   Hirshfeld charge        :      0.12711195
  |   Free atom volume        :     10.44207651
  |   Hirshfeld volume        :      6.97290855
  |   Hirshfeld dipole vector :      0.11615750       0.02252634       0.02035956
  |   Hirshfeld dipole moment :      0.12006045
  |   Hirshfeld second moments:      0.10692882      -0.00994204       0.00169319
  |                                 -0.00994204       0.10499697      -0.00895315
  |                                  0.00169319      -0.00895315       0.08198053
  ----------------------------------------------------------------------
  | Atom     4: O
  |   Hirshfeld charge        :     -0.31849113
  |   Free atom volume        :     23.95238533
  |   Hirshfeld volume        :     22.44334042
  |   Hirshfeld dipole vector :     -0.03080328       0.02697815       0.02077068
  |   Hirshfeld dipole moment :      0.04591387
  |   Hirshfeld second moments:      0.01405487       0.05460349      -0.01223848
  |                                  0.05460349       0.00568895       0.01686158
  |                                 -0.01223848       0.01686158      -0.01036148
  ----------------------------------------------------------------------
  | Atom     5: H
  |   Hirshfeld charge        :      0.07156867
  |   Free atom volume        :     10.44207651
  |   Hirshfeld volume        :      8.20073132
  |   Hirshfeld dipole vector :      0.01067409       0.03734874       0.03084302
  |   Hirshfeld dipole moment :      0.04959996
  |   Hirshfeld second moments:      0.07850126      -0.00138719      -0.01252573
  |                                 -0.00138719       0.03148663      -0.02044165
  |                                 -0.01252573      -0.02044165       0.06835382
  ----------------------------------------------------------------------
  | Atom     6: H
  |   Hirshfeld charge        :      0.12331265
  |   Free atom volume        :     10.44207651
  |   Hirshfeld volume        :      6.85362075
  |   Hirshfeld dipole vector :     -0.10249163      -0.05985207       0.02275715
  |   Hirshfeld dipole moment :      0.12084987
  |   Hirshfeld second moments:      0.09249050       0.01397940      -0.00020052
  |                                  0.01397940       0.10597442       0.01225292
  |                                 -0.00020052       0.01225292       0.09947971
  ----------------------------------------------------------------------
  | Atom     7: O
  |   Hirshfeld charge        :     -0.26729472
  |   Free atom volume        :     23.95238533
  |   Hirshfeld volume        :     21.62869082
  |   Hirshfeld dipole vector :     -0.04705078      -0.01984573       0.01103403
  |   Hirshfeld dipole moment :      0.05224345
  |   Hirshfeld second moments:     -0.00748691      -0.02552892       0.02541375
  |                                 -0.02552892       0.02670902      -0.00402871
  |                                  0.02541375      -0.00402871       0.06315642
  ----------------------------------------------------------------------
  | Atom     8: H
  |   Hirshfeld charge        :      0.14008423
  |   Free atom volume        :     10.44207651
  |   Hirshfeld volume        :      6.38214433
  |   Hirshfeld dipole vector :      0.01246845      -0.01796591       0.11728642
  |   Hirshfeld dipole moment :      0.11930775
  |   Hirshfeld second moments:      0.11024891      -0.01247609       0.00714704
  |                                 -0.01247609       0.11418383       0.00223711
  |                                  0.00714704       0.00223711       0.10915108
  ----------------------------------------------------------------------
  | Atom     9: H
  |   Hirshfeld charge        :      0.08727351
  |   Free atom volume        :     10.44207651
  |   Hirshfeld volume        :      7.73273477
  |   Hirshfeld dipole vector :     -0.03216488       0.02349817       0.00314636
  |   Hirshfeld dipole moment :      0.03995802
  |   Hirshfeld second moments:      0.04876251       0.02228026      -0.01684991
  |                                  0.02228026       0.05995198       0.01268013
  |                                 -0.01684991       0.01268013       0.10150730
  ----------------------------------------------------------------------
  | Atom    10: O
  |   Hirshfeld charge        :     -0.21790132
  |   Free atom volume        :     23.95238533
  |   Hirshfeld volume        :     20.38671910
  |   Hirshfeld dipole vector :      0.01807812       0.00855912       0.02337303
  |   Hirshfeld dipole moment :      0.03076322
  |   Hirshfeld second moments:      0.06936590      -0.01393744      -0.00248856
  |                                 -0.01393744       0.07889516      -0.04204151
  |                                 -0.00248856      -0.04204151       0.03923500
  ----------------------------------------------------------------------
  | Atom    11: H
  |   Hirshfeld charge        :      0.16661271
  |   Free atom volume        :     10.44207651
  |   Hirshfeld volume        :      6.16563273
  |   Hirshfeld dipole vector :      0.09882953      -0.04468121       0.03606856
  |   Hirshfeld dipole moment :      0.11430061
  |   Hirshfeld second moments:      0.12504655       0.00659999      -0.00891627
  |                                  0.00659999       0.12800805      -0.00193443
  |                                 -0.00891627      -0.00193443       0.10884600
  ----------------------------------------------------------------------
  | Atom    12: H
  |   Hirshfeld charge        :      0.16831363
  |   Free atom volume        :     10.44207651
  |   Hirshfeld volume        :      5.56252300
  |   Hirshfeld dipole vector :      0.03544575       0.10444160      -0.05122467
  |   Hirshfeld dipole moment :      0.12160762
  |   Hirshfeld second moments:      0.14247274      -0.01066335       0.00398241
  |                                 -0.01066335       0.12564733      -0.00702113
  |                                  0.00398241      -0.00702113       0.12528327
  ----------------------------------------------------------------------
  | Atom    13: O
  |   Hirshfeld charge        :     -0.21777415
  |   Free atom volume        :     23.95238533
  |   Hirshfeld volume        :     20.64069346
  |   Hirshfeld dipole vector :      0.02268162       0.01369970       0.01208885
  |   Hirshfeld dipole moment :      0.02912521
  |   Hirshfeld second moments:      0.04524342      -0.02778888      -0.03364560
  |                                 -0.02778888       0.06289061      -0.00283085
  |                                 -0.03364560      -0.00283085       0.07347639
  ----------------------------------------------------------------------
  | Atom    14: H
  |   Hirshfeld charge        :      0.15768620
  |   Free atom volume        :     10.44207651
  |   Hirshfeld volume        :      5.80644934
  |   Hirshfeld dipole vector :     -0.05995655       0.08310357       0.06580939
  |   Hirshfeld dipole moment :      0.12178615
  |   Hirshfeld second moments:      0.12205474      -0.00157651      -0.00842590
  |                                 -0.00157651       0.12528951      -0.01122834
  |                                 -0.00842590      -0.01122834       0.13170138
  ----------------------------------------------------------------------
  | Atom    15: H
  |   Hirshfeld charge        :      0.12005328
  |   Free atom volume        :     10.44207651
  |   Hirshfeld volume        :      7.23749968
  |   Hirshfeld dipole vector :      0.01822365       0.03832743      -0.03490205
  |   Hirshfeld dipole moment :      0.05494767
  |   Hirshfeld second moments:      0.08236559      -0.01896128       0.02062797
  |                                 -0.01896128       0.11038951       0.01213893
  |                                  0.02062797       0.01213893       0.06458163
  ----------------------------------------------------------------------


------------------------------------------------------------------------------
  Final output of selected total energy values:

  The following output summarizes some interesting total energy values
  at the end of a run (AFTER all relaxation, molecular dynamics, etc.).

  | Total energy of the DFT / Hartree-Fock s.c.f. calculation      :         -10415.085449658 eV
  | Final zero-broadening corrected energy (caution - metals only) :         -10415.085449658 eV
  | For reference only, the value of 1 Hartree used in FHI-aims is :             27.211384500 eV

  Before relying on these values, please be sure to understand exactly which
  total energy value is referred to by a given number. Different objects may
  all carry the same name 'total energy'. Definitions:

  Total energy of the DFT / Hartree-Fock s.c.f. calculation:
  | Note that this energy does not include ANY quantities calculated after the
  | s.c.f. cycle, in particular not ANY RPA, MP2, etc. many-body perturbation terms.

  Final zero-broadening corrected energy:
  | For metallic systems only, a broadening of the occupation numbers at the Fermi
  | level can be extrapolated back to zero broadening by an electron-gas inspired
  | formula. For all systems that are not real metals, this value can be
  | meaningless and should be avoided.

------------------------------------------------------------------------------

------------------------------------------------------------
          Leaving FHI-aims.
          Date     :  20150727, Time     :  121011.687

          Computational steps:
          | Number of self-consistency cycles          :           16

          Detailed time accounting                     :  max(cpu_time)    wall_clock(cpu1)
          | Total time                                 :       37.150 s          37.184 s
          | Preparation time                           :        0.171 s           0.577 s
          | Grid partitioning                          :        0.130 s           0.130 s
          | Preloading free-atom quantities on grid    :        0.014 s           0.013 s
          | Free-atom superposition energy             :        0.065 s           0.065 s
          | Total time for integrations                :       16.023 s          16.029 s
          | Total time for solution of K.-S. equations :        1.061 s           1.060 s
          | Total time for density & force components  :       12.456 s          12.456 s
          | Total time for mixing                      :        0.209 s           0.207 s
          | Total time for Hartree multipole update    :        0.080 s           0.079 s
          | Total time for Hartree multipole sum       :        6.237 s           6.233 s
          | Total time for total energy evaluation     :        0.008 s           0.012 s
          | Total time for scaled ZORA corrections     :        0.000 s           0.000 s
          | Total time for TS (2009) vdW correction    :        0.056 s           0.059 s

          Have a nice day.
------------------------------------------------------------
