  MPI-parallelism will be employed.
------------------------------------------------------------
          Invoking FHI-aims ...
          Version 081213
          Compiled on 2013/08/29 at 17:41:06 on host generoso.

          When using FHI-aims, please cite the following reference:

          Volker Blum, Ralf Gehrke, Felix Hanke, Paula Havu,
          Ville Havu, Xinguo Ren, Karsten Reuter, and Matthias Scheffler,
          'Ab Initio Molecular Simulations with Numeric Atom-Centered Orbitals: FHI-aims',
          Computer Physics Communications 180, 2175-2196 (2009)

          For any questions about FHI-aims, please visit the aimsclub website
          with its forums and wiki. Contributions to both the forums and the
          wiki are warmly encouraged - they are for you, and everyone is welcome there.

------------------------------------------------------------

  Date     :  20150727, Time     :  124132.236
  Time zero on CPU 1             :   0.459920000000000E-01  s.
  Internal wall clock time zero  :           207232892.236  s.

  Using        8 parallel tasks.
  Task        0 on host gen60 reporting.
  Task        1 on host gen60 reporting.
  Task        2 on host gen60 reporting.
  Task        3 on host gen60 reporting.
  Task        4 on host gen60 reporting.
  Task        5 on host gen60 reporting.
  Task        6 on host gen60 reporting.
  Task        7 on host gen60 reporting.

  Performing system and environment tests:
  | Environment variable OMP_NUM_THREADS correctly set to 1.
  | Checking for scalapack...
  | No scalapack compiled in.

  Obtaining array dimensions for all initial allocations:
  
  -----------------------------------------------------------------------
  Parsing control.in (first pass over file, find array dimensions only).
  The contents of control.in will be repeated verbatim below
  unless switched off by setting 'verbatim_writeout .false.' .
  in the first line of control.in .
  -----------------------------------------------------------------------
  
  #########################################################################################
  #
  #  Volker Blum, FHI 2008 : Test run input file control.in
  #
  #########################################################################################
  #
  #  Physical model
  #
    xc                 rpbe
    spin               none
    relativistic       atomic_zora scalar
    charge             0.
   vdw_correction_hirshfeld
  #
  #  SCF convergence
  #
    occupation_type    gaussian 0.01
    mixer              pulay
      n_max_pulay        10
      charge_mix_param   0.1
    sc_accuracy_rho    5E-5
    sc_accuracy_eev    5E-3
    sc_accuracy_etot   5E-6
    sc_iter_limit      3000
  #
  #  Eigenvalue solver
  #
    KS_method          lapack
      empty_states       8
      basis_threshold    0.e-5
  #
  #  Efficiency
  #
  #   all previous settings are now default, except stratmann still
  #   undecided. Continue to handle stratmann with care, if at all.
  #
  #  partition_type stratmann
    partition_type rho_r2
  #  hartree_partition_type stratmann
  #
  #  Oprions for large clusters (100's of atoms: memory saving / better scaling)
  #
  # for periodic systems:
  #
    density_update_method orbital
    packed_matrix_format none
  #  k_grid 6 6 6
  #  output k_eigenvalue 1
  #  distributed_spline_storage .true.
  #
  #  Relaxation
  #
  #  relax_geometry   bfgs 5.e-3
    sc_accuracy_forces 5.E-4
    final_forces_cleaned .true.
  #
  #  Output options
  #
  #  output mulliken
    output Hirshfeld
  #  output dipole
  
  #harmonic_length_scale 0.001
  
  ################################################################################
  #
  #  FHI-aims code project
  #  VB, Fritz-Haber Institut, 2007
  #
  #  Suggested "safe" defaults for H atom (to be pasted into control.in file)
  #  Basis constructed for a non-relativistic H2 molecule using the
  #  PW-LDA functional.
  #
  ################################################################################
    species        H
  #     global species definitions
      nucleus             1
      cut_pot             4.0  2.0  1.0
      cut_free_atom       finite 8.0
      logarithmic         0.00010000 100.00  1.0123
      basis_dep_cutoff    1d-4  # 1d-4 is safe default - please check 5d-4 if you wish!
      radial_base         24 7.0
      radial_multiplier   2
      angular_grids       specified
        division   0.2783  110
        division   0.3822  194
        division   0.5626  302
  #      division   0.5922  434
  #      division   0.6227  590
  #      division   0.7206  770
        outer_grid  302
      l_hartree           4
  ################################################################################
  #
  #  Definition of "minimal" basis
  #
  ################################################################################
  #     valence basis states
      valence      1  s   1.
  #     ion occupancy
      ion_occ      1  s   0.5
  ################################################################################
  #
  #  Suggested additional basis functions. For production calculations,
  #  uncomment them one after another (the most important basis functions are
  #  listed first).
  #
  ################################################################################
  #  "First tier" - improvements: -1014.90 meV to -62.69 meV
       hydro 2 s 2.1
       hydro 2 p 3.5
  #  "Second tier" - improvements: -12.89 meV to -1.83 meV
       hydro 1 s 0.85
       hydro 2 p 3.7
       hydro 2 s 1.2
       hydro 3 d 7
  #  "Third tier" - improvements: -0.25 meV to -0.12 meV
  #     hydro 4 f 11.2
  #     hydro 3 p 4.8
  #     hydro 4 d 9
  #     hydro 3 s 3.2
  
  ################################################################################
  #
  #  FHI-aims code project
  #  VB, Fritz-Haber Institut, 2007
  #
  #  Suggested "safe" defaults for O atom (to be pasted into control.in file)
  #  All values have been tested for a non-relativistic, non-spinpolarized O2
  #  molecule using the PW-LDA functional. Validity for PBE is expected.
  #
  #  Constructed for dimers: 1.0 A, 1.208 A, 1.5 A, 2.0 A, 3.0 A
  #
  ################################################################################
    species        O
  #     global species definitions
      nucleus             8
      mass                15.9994
      l_hartree           4
      cut_pot             4.0  2.0  1.0
      cut_free_atom       finite 8.0
      basis_dep_cutoff    1d-4  # 1d-4 is safe default - please check 5d-4 if you wish!
      logarithmic         0.00010000 100.00  1.0123
      radial_base         36 7.0
      radial_multiplier   2
       angular_grids specified
        division   0.4087  110
        division   0.5181  194
        division   0.6184  302
  #      division   0.7315  434
  #      division   0.7934  590
  #      division   0.9656  770
  #      division   1.4041  974
  #      outer_grid 974
        outer_grid 302
  ################################################################################
  #
  #  Definition of "minimal" basis
  #
  ################################################################################
  #     valence basis states
      valence      2  s   2.
      valence      2  p   4.
  #     ion occupancy
      ion_occ      2  s   1.
      ion_occ      2  p   3.
  ################################################################################
  #
  #  Suggested additional basis functions. For production calculations,
  #  uncomment them one after another (the most important basis functions are
  #  listed first).
  #
  ################################################################################
  #  "First tier" - improvements: -699.05 meV to -159.38 meV
       hydro 2 p 1.8
       hydro 3 d 7.6
       hydro 3 s 6.4
  #  "Second tier" - improvements: -49.91 meV to -5.39 meV
       hydro 4 f 11.6
       hydro 3 p 6.2
       hydro 3 d 5.6
       hydro 5 g 17.6
       hydro 1 s 0.75
  #  "Third tier" - improvements: -2.83 meV to -0.50 meV
  #     ionic 2 p auto
  #     hydro 4 f 10.8
  #     hydro 4 d 4.7
  #     hydro 2 s 6.8
  #  "Fourth tier" - improvements: -0.40 meV to -0.12 meV
  #     hydro 3 p 5
  #     hydro 3 s 3.3
  #     hydro 5 g 15.6
  #     hydro 4 f 17.6
  #     hydro 4 d 14
  # Further basis functions - -0.08 meV and below
  #     hydro 3 s 2.1
  #     hydro 4 d 11.6
  #     hydro 3 p 16
  #     hydro 2 s 17.2
  
  
  -----------------------------------------------------------------------
  Completed first pass over input file control.in .
  -----------------------------------------------------------------------
  
  
  -----------------------------------------------------------------------
  Parsing geometry.in (first pass over file, find array dimensions only).
  The contents of geometry.in will be repeated verbatim below
  unless switched off by setting 'verbatim_writeout .false.' .
  in the first line of geometry.in .
  -----------------------------------------------------------------------
  
  atom      -4.053030000      0.065001000     -1.525160000  O
  atom      -4.566710000      0.974813000     -1.912820000  H
  atom      -3.067820000      0.330172000     -1.477310000  H
  atom      -1.975360000      2.858040000      0.453140000  O
  atom      -1.223550000      3.375850000      0.786238000  H
  atom      -2.537520000      2.567960000      1.156120000  H
  
  -----------------------------------------------------------------------
  Completed first pass over input file geometry.in .
  -----------------------------------------------------------------------
  
 
  Basic array size parameters: 
  | Number of species                 :        2
  | Number of atoms                   :        6
  | Max. basis fn. angular momentum   :        4
  | Max. atomic/ionic basis occupied n:        2
  | Max. number of basis fn. types    :        2
  | Max. radial fns per species/type  :        8
  | Max. logarithmic grid size        :     1301
  | Max. radial integration grid size :       73
  | Max. angular integration grid size:      302
  | Max. angular grid division number :        8
  | Radial grid for Hartree potential :     1301
  | Number of spin channels           :        1

------------------------------------------------------------
          Reading file control.in.
------------------------------------------------------------
  XC: Using RPBE gradient-corrected functionals.
  Spin treatment: No spin polarisation.
  Scalar relativistic treatment of kinetic energy: on-site free-atom approximation to ZORA.
  Charge =   0.000000E+00: Neutral system requested explicitly.
  Using non-empirical van der Waals correction (Hirshfeld partitioning):
  Occupation type: Gaussian broadening, width =   0.100000E-01 eV.
  Using pulay charge density mixing.
  Pulay mixing - number of memorized iterations:   10
  Charge density mixing - mixing parameter:     0.1000
  Convergence accuracy of self-consistent charge density: 0.5000E-04
  Convergence accuracy of sum of eigenvalues: 0.5000E-02
  Convergence accuracy of total energy: 0.5000E-05
  Maximum number of s.-c. iterations  :  3000
  Kohn-Sham eigenvalues and eigenfunctions calculated by lapack diagonalisation (D&C).
  Number of empty states per atom:        8
  Threshold for basis singularities: 0.0000E+00
  Partition function in integrals calculations: rho / r^2
 Using packed matrix format           0
  Convergence accuracy of forces: 0.5000E-03
  Cleaning forces before final output.
  Hirshfeld charge analysis will be performed.
 
  Reading configuration options for species H                   .
  | Found nuclear charge :   1.0000
  | Found cutoff potl. onset [A], width [A], scale factor :    4.00000    2.00000    1.00000
  | Found cutoff specification for free atom: Cutoff potential begins at    8.00000 A.
  | Found logarithmic grid data [bohr] : 0.1000E-03 0.1000E+03 0.1012E+01
  | Threshold for basis-dependent cutoff potential is   0.100000E-03
  | Found data for basic radial integration grid :    24 points, outermost radius =    7.000 A
  | Found multiplier for basic radial grid :   2
  | Found angular grid specification: user-specified.
  | Specified grid contains     4 separate shells.
  | Check grid settings after all constraints further below.
  | Found l_max for Hartree potential  :   4
  | Found free-atom valence shell :  1 s   1.000
  | No ionic wave fns used. Skipping ion_occ.
  | Found hydrogenic basis function :  2 s   2.100
  | Found hydrogenic basis function :  2 p   3.500
  | Found hydrogenic basis function :  1 s   0.850
  | Found hydrogenic basis function :  2 p   3.700
  | Found hydrogenic basis function :  2 s   1.200
  | Found hydrogenic basis function :  3 d   7.000
  Species H                   : Missing cutoff potential type.
  Defaulting to exp(1/x)/(1-x)^2 type cutoff potential.
  Species H : On-site basis accuracy parameter (for Gram-Schmidt orthonormalisation) not specified.
  Using default value basis_acc =  0.1000000E-03.
  Species H                   : Using default innermost maximum threshold i_radial=  2 for radial functions.
  Species H                   : Basic radial grid will be enhanced according to radial_multiplier =   2, to contain    49 grid points.
 
  Reading configuration options for species O                   .
  | Found nuclear charge :   8.0000
  | Found atomic mass :    15.9994000000000      amu
  | Found l_max for Hartree potential  :   4
  | Found cutoff potl. onset [A], width [A], scale factor :    4.00000    2.00000    1.00000
  | Found cutoff specification for free atom: Cutoff potential begins at    8.00000 A.
  | Threshold for basis-dependent cutoff potential is   0.100000E-03
  | Found logarithmic grid data [bohr] : 0.1000E-03 0.1000E+03 0.1012E+01
  | Found data for basic radial integration grid :    36 points, outermost radius =    7.000 A
  | Found multiplier for basic radial grid :   2
  | Found angular grid specification: user-specified.
  | Specified grid contains     4 separate shells.
  | Check grid settings after all constraints further below.
  | Found free-atom valence shell :  2 s   2.000
  | Found free-atom valence shell :  2 p   4.000
  | No ionic wave fns used. Skipping ion_occ.
  | No ionic wave fns used. Skipping ion_occ.
  | Found hydrogenic basis function :  2 p   1.800
  | Found hydrogenic basis function :  3 d   7.600
  | Found hydrogenic basis function :  3 s   6.400
  | Found hydrogenic basis function :  4 f  11.600
  | Found hydrogenic basis function :  3 p   6.200
  | Found hydrogenic basis function :  3 d   5.600
  | Found hydrogenic basis function :  5 g  17.600
  | Found hydrogenic basis function :  1 s   0.750
  Species O                   : Missing cutoff potential type.
  Defaulting to exp(1/x)/(1-x)^2 type cutoff potential.
  Species O : On-site basis accuracy parameter (for Gram-Schmidt orthonormalisation) not specified.
  Using default value basis_acc =  0.1000000E-03.
  Species O                   : Using default innermost maximum threshold i_radial=  2 for radial functions.
  Species O                   : Basic radial grid will be enhanced according to radial_multiplier =   2, to contain    73 grid points.
 
  Finished reading input file 'control.in'. Consistency checks are next.
 
  Target number of points in a grid batch is not set. Defaulting to  100
  Method for grid partitioning is not set. Defaulting to parallel hash+maxmin partitioning.
  Batch size limit is not set. Defaulting to    200
  By default, will store active basis functions for each batch.
  If in need of memory, prune_basis_once .false. can be used to disable this option.
  communication_type for Hartree potential was not specified.
  Defaulting to calc_hartree .
  Pulay mixer: Number of initial linear mixing iterations not set.
  Defaulting to    0 iterations.
  Work space size for distributed Hartree potential not set.
  Defaulting to   0.200000E+03 MB.
  Algorithm-dependent basis array size parameters:
  | n_max_pulay                         :       10
  Geometry relaxation not requested: no relaxation will be performed.
  Handling of forces: Unphysical translation and rotation will be removed from forces.
  No accuracy limit for integral partition fn. given. Defaulting to 0.1000E-14.
  No threshold value for u(r) in integrations given. Defaulting to 0.1000E-05.
  No accuracy for occupation numbers given. Defaulting to 0.1000E-07.
  No threshold value for occupation numbers given. Defaulting to 0.0000E+00.
  No accuracy for fermi level given. Defaulting to 0.1000E-19.
  Maximum # of iterations to find E_F not set. Defaulting to  200.
  Will not use alltoall communication since running on < 1024 CPUs.
  Partitioning for Hartree potential was not defined. Using partition_type for integrals.
  | Reporting present value of keyword multip_moments_threshold  :       0.10000000E-09
  | This value may affect high angular momentum components of the Hartree potential in periodic systems.
  No q(lm)/r^(l+1) cutoff set for long-range Hartree potential.
  | Using default value of  0.100000E-09 .
  | Verify using the multipole_threshold keyword.
  Defaulting to new monopole extrapolation.
  Density update method: Loop over occupied states selected for charge density update.
------------------------------------------------------------


------------------------------------------------------------
          Reading geometry description geometry.in.
------------------------------------------------------------
  Input structure read successfully.
  The structure contains        6 atoms,  and a total of         20.000 electrons.

  Input geometry:
  | No unit cell requested.
  | Atomic structure:
  |       Atom                x [A]            y [A]            z [A]
  |    1: Species O             -4.053030         0.065001        -1.525160
  |    2: Species H             -4.566710         0.974813        -1.912820
  |    3: Species H             -3.067820         0.330172        -1.477310
  |    4: Species O             -1.975360         2.858040         0.453140
  |    5: Species H             -1.223550         3.375850         0.786238
  |    6: Species H             -2.537520         2.567960         1.156120
  |

  | The smallest distance between any two atoms is         0.94570141 AA.
  |
  | The first atom of this pair is atom number                      4 .
  | The second atom of this pair is atom number                     6 .

  Structure-dependent array size parameters: 
  | Maximum number of distinct radial functions  :       18
  | Maximum number of basis functions            :      138
  | Number of Kohn-Sham states (occupied + empty):       34
------------------------------------------------------------

------------------------------------------------------------
          Preparing all fixed parts of the calculation.
------------------------------------------------------------
  Determining machine precision:
    2.225073858507201E-308
  Setting up grids for atomic and cluster calculations.

  Creating wave function, potential, and density for free atoms.

  Species: H

  List of occupied orbitals and eigenvalues:
    n    l              occ      energy [Ha]    energy [eV]
    1    0           1.0000        -0.241408        -6.5691


  Species: O

  List of occupied orbitals and eigenvalues:
    n    l              occ      energy [Ha]    energy [eV]
    1    0           2.0000       -18.944147      -515.4965
    2    0           2.0000        -0.883529       -24.0421
    2    1           4.0000        -0.330176        -8.9845

  Creating fixed part of basis set: Ionic, confined, hydrogenic.
 
  H                    hydrogenic:
 
  List of hydrogenic basis orbitals: 
    n    l      effective z      eigenvalue [eV]  inner max. [A]     outer max. [A]     outer radius [A]   
    2    0         2.100000       -14.9965           0.193241           1.317192           5.372934
    2    1         3.500000       -41.6672           0.602363           0.602363           4.056010
    1    0         0.850000        -9.8292           0.624864           0.624864           5.372934
    2    1         3.700000       -46.5653           0.573616           0.573616           3.909951
    2    0         1.200000        -4.5995           0.334977           2.228160           5.505921
    3    2         7.000000       -74.0753           0.680692           0.680692           3.769152
 
 
  O                    hydrogenic:
 
  List of hydrogenic basis orbitals: 
    n    l      effective z      eigenvalue [eV]  inner max. [A]     outer max. [A]     outer radius [A]   
    2    1         1.800000       -11.0118           1.178546           1.178546           5.432516
    3    2         7.600000       -87.3182           0.624117           0.624117           3.541422
    3    0         6.400000       -61.9209           0.061166           1.081887           4.306510
    4    3        11.600000      -114.4238           0.731621           0.731621           3.584982
    3    1         6.200000       -58.1113           0.255677           1.030255           4.306510
    3    2         5.600000       -47.4081           0.847222           0.847222           4.413102
    5    4        17.600000      -168.5799           0.749730           0.749730           3.372413
    1    0         0.750000        -7.6499           0.705275           0.705275           5.366508
 

  Adding cutoff potential to free-atom effective potential.
  Creating atomic-like basis functions for current effective potential.

  Species H                   :

  List of atomic basis orbitals and eigenvalues:
    n    l      energy [Ha]    energy [eV]    outer radius [A]
    1    0        -0.241374        -6.5681       5.372934


  Species O                   :

  List of atomic basis orbitals and eigenvalues:
    n    l      energy [Ha]    energy [eV]    outer radius [A]
    1    0       -18.944147      -515.4965       1.415745
    2    0        -0.883529       -24.0421       5.048305
    2    1        -0.330173        -8.9845       5.301302

  Assembling full basis from fixed parts.
  | Species H :   atomic orbital   1 s accepted.
  | Species H :    hydro orbital   2 s accepted.
  | Species H :    hydro orbital   1 s accepted.
  | Species H :    hydro orbital   2 s accepted.
  | Species H :    hydro orbital   2 p accepted.
  | Species H :    hydro orbital   2 p accepted.
  | Species H :    hydro orbital   3 d accepted.
  | Species O :   atomic orbital   1 s accepted.
  | Species O :    hydro orbital   3 s accepted.
  | Species O :   atomic orbital   2 s accepted.
  | Species O :    hydro orbital   1 s accepted.
  | Species O :    hydro orbital   3 p accepted.
  | Species O :   atomic orbital   2 p accepted.
  | Species O :    hydro orbital   2 p accepted.
  | Species O :    hydro orbital   3 d accepted.
  | Species O :    hydro orbital   3 d accepted.
  | Species O :    hydro orbital   4 f accepted.
  | Species O :    hydro orbital   5 g accepted.
 
  Basis size parameters after reduction:
  | Total number of radial functions:       18
  | Total number of basis functions :      138
 
  Testing on-site integration grid accuracy.
  |  Species  Function  <phi|h_atom|phi> (log., in eV)  <phi|h_atom|phi> (rad., in eV)
           1        1                 -6.5683835025                 -6.5684759159
           1        2                 13.3711789951                 13.3708738703
           1        3                 23.6590910787                 23.6532055418
           1        4                 16.2963827186                 16.1870710655 ***
           1        5                 28.7627214838                 28.7627215090
           1        6                 59.5965249172                 59.5965950857
           1        7                 60.2220506392                 60.2220503827
           2        8               -515.4964576505               -515.4964530710
           2        9                 15.3030791347                 15.3030722972
           2       10                -21.7296094581                -21.7296135470
           2       11                 14.2969371730                 14.2969701621
           2       12                 21.0679693190                 21.0679697493
           2       13                 -2.3833606469                 -2.3833613176
           2       14                 13.7067136422                 13.7066766629
           2       15                 45.8013116808                 45.8013116965
           2       16                 52.2309815402                 52.2309831494
           2       17                 85.4120732416                 85.4120732763
           2       18                142.1019167745                142.1019167817
 * Note: Onsite integrals marked "***" above are less accurate than
 * onsite_accuracy_threshold =    0.03000 eV. Usually, this is harmless.
 * When in doubt, tighten the "radial" and/or "radial_multiplier" flags to check.

  Preparing densities etc. for the partition functions (integrals / Hartree potential).

  Preparations completed.
  max(cpu_time)          :      0.169 s.
  Wall clock time (cpu1) :      0.763 s.
------------------------------------------------------------

------------------------------------------------------------
          Begin self-consistency loop: Initialization.

          Date     :  20150727, Time     :  124133.047
------------------------------------------------------------

  Initializing index lists of integration centers etc. from given atomic structure:
  | Number of centers in hartree potential         :         6
  | Number of centers in hartree multipole         :         6
  | Number of centers in electron density summation:         6
  | Number of centers in basis integrals           :         6
  | Number of centers in integrals                 :         6
  Partitioning the integration grid into batches with parallel hashing+maxmin method.
  | Number of batches:      866
  | Maximal batch size:     200
  | Minimal batch size:      49
  | Average batch size:      90.859
  | Standard deviation of batch sizes:      23.647

  Integration load balanced across     8 MPI tasks.
  Work distribution over tasks is as follows:
  Task     0 has       9833 integration points.
  Task     1 has       9834 integration points.
  Task     2 has       9790 integration points.
  Task     3 has       9854 integration points.
  Task     4 has       9814 integration points.
  Task     5 has       9815 integration points.
  Task     6 has       9891 integration points.
  Task     7 has       9853 integration points.
  Initializing partition tables, free-atom densities, potentials, etc. across the integration grid (initialize_grid_storage).
  | Net number of integration points:    78684
  | of which are non-zero points    :    78229
  Obtaining max. number of non-zero basis functions in each batch (get_n_compute_maxes).
  | Maximal number of non-zero basis functions:      137 in task     0
  | Maximal number of non-zero basis functions:      137 in task     1
  | Maximal number of non-zero basis functions:      137 in task     2
  | Maximal number of non-zero basis functions:      138 in task     3
  | Maximal number of non-zero basis functions:      137 in task     4
  | Maximal number of non-zero basis functions:      137 in task     5
  | Maximal number of non-zero basis functions:      137 in task     6
  | Maximal number of non-zero basis functions:      137 in task     7
  Integrating Hamiltonian matrix: batch-based integration.
  Time summed over all CPUs for integration: real work        0.990 s, elapsed        1.012 s
  Integrating overlap matrix.
  Time summed over all CPUs for integration: real work        0.491 s, elapsed        0.500 s

  Updating Kohn-Sham eigenvalues, eigenvectors, occupation numbers, and Fermi level.
  Solving generalized eigenproblem
  Updating Kohn-Sham eigenvalues and eigenfunctions.
  Transforming overlap matrix and checking for singularities.
  Overlap matrix is nonsingular:
  | Lowest eigenvalue:  0.487545E-03
  Solving real generalised eigenvalue problem by standard LAPACK (fast)
  Determining occupation numbers for Kohn-Sham eigenstates.
  | Chemical potential (Fermi level) in eV                 : -.86766752E+01
  | Error in electron count due to remaining E_F inaccuracy: 0.00000000E+00
  | Maximum occupation number of highest empty state:  0.00E+00

  Writing Kohn-Sham eigenvalues.

  State    Occupation    Eigenvalue [Ha]    Eigenvalue [eV]
      1       2.00000         -19.054439         -518.49768
      2       2.00000         -19.019186         -517.53839
      3       2.00000          -1.103321          -30.02290
      4       2.00000          -1.042748          -28.37463
      5       2.00000          -0.646462          -17.59113
      6       2.00000          -0.569537          -15.49789
      7       2.00000          -0.501098          -13.63558
      8       2.00000          -0.478834          -13.02973
      9       2.00000          -0.437867          -11.91496
     10       2.00000          -0.409172          -11.13412
     11       0.00000          -0.088816           -2.41680
     12       0.00000          -0.060399           -1.64354
     13       0.00000          -0.019023           -0.51764
     14       0.00000          -0.002357           -0.06415
     15       0.00000           0.079172            2.15439
     16       0.00000           0.085223            2.31903
     17       0.00000           0.096687            2.63098
     18       0.00000           0.113535            3.08946
     19       0.00000           0.119820            3.26047
     20       0.00000           0.127201            3.46131
     21       0.00000           0.141930            3.86211
     22       0.00000           0.197357            5.37036
     23       0.00000           0.241431            6.56968
     24       0.00000           0.251171            6.83472
     25       0.00000           0.315095            8.57416
     26       0.00000           0.339281            9.23232
     27       0.00000           0.374298           10.18516
     28       0.00000           0.402474           10.95188
     29       0.00000           0.415672           11.31101
     30       0.00000           0.427764           11.64004
     31       0.00000           0.445455           12.12145
     32       0.00000           0.461349           12.55395
     33       0.00000           0.499426           13.59007
     34       0.00000           0.553856           15.07118

  Highest occupied state (VBM) at    -11.13412457 eV
  | Occupation number:      2.00000000

  Lowest unoccupied state (CBM) at    -2.41680227 eV
  | Occupation number:      0.00000000

  Overall HOMO-LUMO gap:      8.71732230 eV.
  Calculating total energy contributions from superposition of free atom densities.

  Total energy components:
  | Sum of eigenvalues            :         -86.52533033 Ha       -2354.47403254 eV
  | XC energy correction          :         -18.17593487 Ha        -494.59235241 eV
  | XC potential correction       :          23.21569212 Ha         631.73112478 eV
  | Free-atom electrostatic energy:         -71.74156938 Ha       -1952.18742913 eV
  | Hartree energy correction     :           0.00000000 Ha           0.00000000 eV
  | van der Waals energy corr.    :           0.00000000 Ha           0.00000000 eV
  | Entropy correction            :           0.00000000 Ha           0.00000000 eV
  | ---------------------------
  | Total energy                  :        -153.22714246 Ha       -4169.52268930 eV
  | Total energy, T -> 0          :        -153.22714246 Ha       -4169.52268930 eV  <-- do not rely on this value for anything but (periodic) metals
  | Electronic free energy        :        -153.22714246 Ha       -4169.52268930 eV

  Derived energy quantities:
  | Kinetic energy                :         151.56098826 Ha        4124.18432681 eV
  | Electrostatic energy          :        -286.61219585 Ha       -7799.11466370 eV
  | Energy correction for multipole
  | error in Hartree potential    :           0.00000000 Ha           0.00000000 eV
  | Sum of eigenvalues per atom                           :        -392.41233876 eV
  | Total energy (T->0) per atom                          :        -694.92044822 eV  <-- do not rely on this value for anything but (periodic) metals
  | Electronic free energy per atom                       :        -694.92044822 eV
  Initialize hartree_potential_storage
  Max. number of atoms included in rho_multipole:            6

  End scf initialization - timings             :  max(cpu_time)    wall_clock(cpu1)
  | Time for scf. initialization               :        0.340 s           0.340 s
  | Boundary condition initialization          :        0.000 s           0.000 s
  | Integration                                :        0.190 s           0.190 s
  | Solution of K.-S. eqns.                    :        0.028 s           0.028 s
  | Grid partitioning                          :        0.068 s           0.068 s
  | Preloading free-atom quantities on grid    :        0.013 s           0.013 s
  | Free-atom superposition energy             :        0.017 s           0.017 s
  | Total energy evaluation                    :        0.000 s           0.000 s
------------------------------------------------------------

------------------------------------------------------------
          Begin self-consistency iteration #    1

  Date     :  20150727, Time     :  124133.387
------------------------------------------------------------
  Evaluating new KS density.
  Integration grid: deviation in total charge (<rho> - N_e) =  -3.552714E-15
  Pulay mixing of updated and previous charge densities.

  Evaluating partitioned Hartree potential by multipole expansion.
  | Analytical far-field extrapolation by fixed multipoles:
  | Hartree multipole sum: apparent total charge =  -0.844359E-06
  Summing up the Hartree potential.
  Time summed over all CPUs for potential: real work        0.430 s, elapsed        0.432 s
  | RMS charge density error from multipole expansion :   0.989374E-03

  Integrating Hamiltonian matrix: batch-based integration.
  Time summed over all CPUs for integration: real work        0.984 s, elapsed        1.005 s

  Updating Kohn-Sham eigenvalues, eigenvectors, occupation numbers, and Fermi level.
  Solving generalized eigenproblem
  Updating Kohn-Sham eigenvalues and eigenfunctions.
  Solving real generalised eigenvalue problem by standard LAPACK (fast)
  Determining occupation numbers for Kohn-Sham eigenstates.
  | Chemical potential (Fermi level) in eV                 : -.82770064E+01
  | Error in electron count due to remaining E_F inaccuracy: 0.00000000E+00
  | Maximum occupation number of highest empty state:  0.00E+00

  Writing Kohn-Sham eigenvalues.

  State    Occupation    Eigenvalue [Ha]    Eigenvalue [eV]
      1       2.00000         -18.975378         -516.34632
      2       2.00000         -18.945617         -515.53646
      3       2.00000          -1.065026          -28.98083
      4       2.00000          -1.005138          -27.35120
      5       2.00000          -0.613698          -16.69956
      6       2.00000          -0.538694          -14.65861
      7       2.00000          -0.462327          -12.58057
      8       2.00000          -0.442176          -12.03221
      9       2.00000          -0.397747          -10.82324
     10       2.00000          -0.369710          -10.06031
     11       0.00000          -0.080491           -2.19029
     12       0.00000          -0.053488           -1.45548
     13       0.00000          -0.009539           -0.25956
     14       0.00000           0.003166            0.08616
     15       0.00000           0.085559            2.32818
     16       0.00000           0.094403            2.56884
     17       0.00000           0.104552            2.84501
     18       0.00000           0.122218            3.32572
     19       0.00000           0.126751            3.44908
     20       0.00000           0.134638            3.66369
     21       0.00000           0.149437            4.06640
     22       0.00000           0.204464            5.56374
     23       0.00000           0.249118            6.77883
     24       0.00000           0.259321            7.05649
     25       0.00000           0.321581            8.75065
     26       0.00000           0.346929            9.44042
     27       0.00000           0.380068           10.34217
     28       0.00000           0.411722           11.20352
     29       0.00000           0.423211           11.51617
     30       0.00000           0.436745           11.88442
     31       0.00000           0.454839           12.37681
     32       0.00000           0.471436           12.82842
     33       0.00000           0.510235           13.88420
     34       0.00000           0.565545           15.38925

  Highest occupied state (VBM) at    -10.06031237 eV
  | Occupation number:      2.00000000

  Lowest unoccupied state (CBM) at    -2.19028511 eV
  | Occupation number:      0.00000000

  Overall HOMO-LUMO gap:      7.87002727 eV.

  Total energy components:
  | Sum of eigenvalues            :         -85.63102199 Ha       -2330.13866455 eV
  | XC energy correction          :         -18.27530695 Ha        -497.29640415 eV
  | XC potential correction       :          23.34626757 Ha         635.28426345 eV
  | Free-atom electrostatic energy:         -71.74156938 Ha       -1952.18742913 eV
  | Hartree energy correction     :          -0.86442349 Ha         -23.52215999 eV
  | van der Waals energy corr.    :           0.00000000 Ha           0.00000000 eV
  | Entropy correction            :           0.00000000 Ha           0.00000000 eV
  | ---------------------------
  | Total energy                  :        -153.16605424 Ha       -4167.86039437 eV
  | Total energy, T -> 0          :        -153.16605424 Ha       -4167.86039437 eV  <-- do not rely on this value for anything but (periodic) metals
  | Electronic free energy        :        -153.16605424 Ha       -4167.86039437 eV

  Derived energy quantities:
  | Kinetic energy                :         152.14409327 Ha        4140.05142134 eV
  | Electrostatic energy          :        -287.03484057 Ha       -7810.61541156 eV
  | Energy correction for multipole
  | error in Hartree potential    :          -0.00008429 Ha          -0.00229372 eV
  | Sum of eigenvalues per atom                           :        -388.35644409 eV
  | Total energy (T->0) per atom                          :        -694.64339906 eV  <-- do not rely on this value for anything but (periodic) metals
  | Electronic free energy per atom                       :        -694.64339906 eV

  Self-consistency convergence accuracy:
  | Change of charge density      : 0.4279E+00
  | Change of sum of eigenvalues  : 0.2434E+02 eV
  | Change of total energy        : 0.1662E+01 eV

  End self-consistency iteration #     1       :  max(cpu_time)    wall_clock(cpu1)
  | Time for this iteration                    :        0.279 s           0.279 s
  | Charge density update                      :        0.088 s           0.088 s
  | Density mixing                             :        0.001 s           0.001 s
  | Hartree multipole update                   :        0.002 s           0.002 s
  | Hartree multipole summation                :        0.055 s           0.055 s
  | Integration                                :        0.126 s           0.126 s
  | Solution of K.-S. eqns.                    :        0.007 s           0.007 s
  | Total energy evaluation                    :        0.000 s           0.000 s
------------------------------------------------------------

------------------------------------------------------------
          Begin self-consistency iteration #    2

  Date     :  20150727, Time     :  124133.666
------------------------------------------------------------
  Evaluating new KS density.
  Integration grid: deviation in total charge (<rho> - N_e) =   3.552714E-15
  Pulay mixing of updated and previous charge densities.

  Evaluating partitioned Hartree potential by multipole expansion.
  | Analytical far-field extrapolation by fixed multipoles:
  | Hartree multipole sum: apparent total charge =  -0.243044E-05
  Summing up the Hartree potential.
  Time summed over all CPUs for potential: real work        0.430 s, elapsed        0.432 s
  | RMS charge density error from multipole expansion :   0.386073E-02

  Integrating Hamiltonian matrix: batch-based integration.
  Time summed over all CPUs for integration: real work        0.987 s, elapsed        1.014 s

  Updating Kohn-Sham eigenvalues, eigenvectors, occupation numbers, and Fermi level.
  Solving generalized eigenproblem
  Updating Kohn-Sham eigenvalues and eigenfunctions.
  Solving real generalised eigenvalue problem by standard LAPACK (fast)
  Determining occupation numbers for Kohn-Sham eigenstates.
  | Chemical potential (Fermi level) in eV                 : -.73094919E+01
  | Error in electron count due to remaining E_F inaccuracy: 0.00000000E+00
  | Maximum occupation number of highest empty state:  0.00E+00

  Highest occupied state (VBM) at     -7.68107753 eV
  | Occupation number:      2.00000000

  Lowest unoccupied state (CBM) at    -1.66537844 eV
  | Occupation number:      0.00000000

  Overall HOMO-LUMO gap:      6.01569909 eV.

  Total energy components:
  | Sum of eigenvalues            :         -83.63812531 Ha       -2275.90918669 eV
  | XC energy correction          :         -18.50739621 Ha        -503.61187449 eV
  | XC potential correction       :          23.65106555 Ha         643.57823861 eV
  | Free-atom electrostatic energy:         -71.74156938 Ha       -1952.18742913 eV
  | Hartree energy correction     :          -2.86318530 Ha         -77.91123612 eV
  | van der Waals energy corr.    :           0.00000000 Ha           0.00000000 eV
  | Entropy correction            :           0.00000000 Ha           0.00000000 eV
  | ---------------------------
  | Total energy                  :        -153.09921066 Ha       -4166.04148782 eV
  | Total energy, T -> 0          :        -153.09921066 Ha       -4166.04148782 eV  <-- do not rely on this value for anything but (periodic) metals
  | Electronic free energy        :        -153.09921066 Ha       -4166.04148782 eV

  Derived energy quantities:
  | Kinetic energy                :         153.24660171 Ha        4170.05220252 eV
  | Electrostatic energy          :        -287.83841615 Ha       -7832.48181584 eV
  | Energy correction for multipole
  | error in Hartree potential    :          -0.00057571 Ha          -0.01566582 eV
  | Sum of eigenvalues per atom                           :        -379.31819778 eV
  | Total energy (T->0) per atom                          :        -694.34024797 eV  <-- do not rely on this value for anything but (periodic) metals
  | Electronic free energy per atom                       :        -694.34024797 eV

  Self-consistency convergence accuracy:
  | Change of charge density      : 0.3218E+00
  | Change of sum of eigenvalues  : 0.5423E+02 eV
  | Change of total energy        : 0.1819E+01 eV

  End self-consistency iteration #     2       :  max(cpu_time)    wall_clock(cpu1)
  | Time for this iteration                    :        0.281 s           0.281 s
  | Charge density update                      :        0.086 s           0.087 s
  | Density mixing                             :        0.002 s           0.002 s
  | Hartree multipole update                   :        0.002 s           0.002 s
  | Hartree multipole summation                :        0.055 s           0.055 s
  | Integration                                :        0.127 s           0.127 s
  | Solution of K.-S. eqns.                    :        0.007 s           0.007 s
  | Total energy evaluation                    :        0.000 s           0.001 s
------------------------------------------------------------

------------------------------------------------------------
          Begin self-consistency iteration #    3

  Date     :  20150727, Time     :  124133.948
------------------------------------------------------------
  Evaluating new KS density.
  Integration grid: deviation in total charge (<rho> - N_e) =   1.065814E-14
  Pulay mixing of updated and previous charge densities.

  Evaluating partitioned Hartree potential by multipole expansion.
  | Analytical far-field extrapolation by fixed multipoles:
  | Hartree multipole sum: apparent total charge =  -0.246264E-05
  Summing up the Hartree potential.
  Time summed over all CPUs for potential: real work        0.430 s, elapsed        0.432 s
  | RMS charge density error from multipole expansion :   0.809310E-02

  Integrating Hamiltonian matrix: batch-based integration.
  Time summed over all CPUs for integration: real work        0.985 s, elapsed        1.006 s

  Updating Kohn-Sham eigenvalues, eigenvectors, occupation numbers, and Fermi level.
  Solving generalized eigenproblem
  Updating Kohn-Sham eigenvalues and eigenfunctions.
  Solving real generalised eigenvalue problem by standard LAPACK (fast)
  Determining occupation numbers for Kohn-Sham eigenstates.
  | Chemical potential (Fermi level) in eV                 : -.71027528E+01
  | Error in electron count due to remaining E_F inaccuracy: 0.00000000E+00
  | Maximum occupation number of highest empty state:  0.00E+00

  Highest occupied state (VBM) at     -7.76851602 eV
  | Occupation number:      2.00000000

  Lowest unoccupied state (CBM) at    -1.53084291 eV
  | Occupation number:      0.00000000

  Overall HOMO-LUMO gap:      6.23767311 eV.

  Total energy components:
  | Sum of eigenvalues            :         -83.78111067 Ha       -2279.80001623 eV
  | XC energy correction          :         -18.49290911 Ha        -503.21766021 eV
  | XC potential correction       :          23.63067518 Ha         643.02338819 eV
  | Free-atom electrostatic energy:         -71.74156938 Ha       -1952.18742913 eV
  | Hartree energy correction     :          -2.71256997 Ha         -73.81278456 eV
  | van der Waals energy corr.    :           0.00000000 Ha           0.00000000 eV
  | Entropy correction            :           0.00000000 Ha           0.00000000 eV
  | ---------------------------
  | Total energy                  :        -153.09748396 Ha       -4165.99450193 eV
  | Total energy, T -> 0          :        -153.09748396 Ha       -4165.99450193 eV  <-- do not rely on this value for anything but (periodic) metals
  | Electronic free energy        :        -153.09748396 Ha       -4165.99450193 eV

  Derived energy quantities:
  | Kinetic energy                :         152.38336109 Ha        4146.56223000 eV
  | Electrostatic energy          :        -286.98793594 Ha       -7809.33907173 eV
  | Energy correction for multipole
  | error in Hartree potential    :          -0.00231877 Ha          -0.06309686 eV
  | Sum of eigenvalues per atom                           :        -379.96666937 eV
  | Total energy (T->0) per atom                          :        -694.33241699 eV  <-- do not rely on this value for anything but (periodic) metals
  | Electronic free energy per atom                       :        -694.33241699 eV

  Self-consistency convergence accuracy:
  | Change of charge density      : 0.1674E+00
  | Change of sum of eigenvalues  : -.3891E+01 eV
  | Change of total energy        : 0.4699E-01 eV

  End self-consistency iteration #     3       :  max(cpu_time)    wall_clock(cpu1)
  | Time for this iteration                    :        0.280 s           0.280 s
  | Charge density update                      :        0.086 s           0.085 s
  | Density mixing                             :        0.002 s           0.002 s
  | Hartree multipole update                   :        0.003 s           0.003 s
  | Hartree multipole summation                :        0.054 s           0.054 s
  | Integration                                :        0.127 s           0.126 s
  | Solution of K.-S. eqns.                    :        0.006 s           0.007 s
  | Total energy evaluation                    :        0.000 s           0.000 s
------------------------------------------------------------

------------------------------------------------------------
          Begin self-consistency iteration #    4

  Date     :  20150727, Time     :  124134.228
------------------------------------------------------------
  Evaluating new KS density.
  Integration grid: deviation in total charge (<rho> - N_e) =   0.000000E+00
  Pulay mixing of updated and previous charge densities.

  Evaluating partitioned Hartree potential by multipole expansion.
  | Analytical far-field extrapolation by fixed multipoles:
  | Hartree multipole sum: apparent total charge =  -0.298569E-05
  Summing up the Hartree potential.
  Time summed over all CPUs for potential: real work        0.430 s, elapsed        0.432 s
  | RMS charge density error from multipole expansion :   0.103185E-01

  Integrating Hamiltonian matrix: batch-based integration.
  Time summed over all CPUs for integration: real work        0.989 s, elapsed        1.035 s

  Updating Kohn-Sham eigenvalues, eigenvectors, occupation numbers, and Fermi level.
  Solving generalized eigenproblem
  Updating Kohn-Sham eigenvalues and eigenfunctions.
  Solving real generalised eigenvalue problem by standard LAPACK (fast)
  Determining occupation numbers for Kohn-Sham eigenstates.
  | Chemical potential (Fermi level) in eV                 : -.67128512E+01
  | Error in electron count due to remaining E_F inaccuracy: 0.00000000E+00
  | Maximum occupation number of highest empty state:  0.00E+00

  Highest occupied state (VBM) at     -6.92483876 eV
  | Occupation number:      2.00000000

  Lowest unoccupied state (CBM) at    -1.30699059 eV
  | Occupation number:      0.00000000

  Overall HOMO-LUMO gap:      5.61784818 eV.

  Total energy components:
  | Sum of eigenvalues            :         -83.13988541 Ha       -2262.35138916 eV
  | XC energy correction          :         -18.57606703 Ha        -505.48050242 eV
  | XC potential correction       :          23.73973725 Ha         645.99111815 eV
  | Free-atom electrostatic energy:         -71.74156938 Ha       -1952.18742913 eV
  | Hartree energy correction     :          -3.37443560 Ha         -91.82306453 eV
  | van der Waals energy corr.    :           0.00000000 Ha           0.00000000 eV
  | Entropy correction            :           0.00000000 Ha           0.00000000 eV
  | ---------------------------
  | Total energy                  :        -153.09222017 Ha       -4165.85126709 eV
  | Total energy, T -> 0          :        -153.09222017 Ha       -4165.85126709 eV  <-- do not rely on this value for anything but (periodic) metals
  | Electronic free energy        :        -153.09222017 Ha       -4165.85126709 eV

  Derived energy quantities:
  | Kinetic energy                :         152.49676921 Ha        4149.64822187 eV
  | Electrostatic energy          :        -287.01292235 Ha       -7810.01898654 eV
  | Energy correction for multipole
  | error in Hartree potential    :          -0.00299983 Ha          -0.08162958 eV
  | Sum of eigenvalues per atom                           :        -377.05856486 eV
  | Total energy (T->0) per atom                          :        -694.30854451 eV  <-- do not rely on this value for anything but (periodic) metals
  | Electronic free energy per atom                       :        -694.30854451 eV

  Self-consistency convergence accuracy:
  | Change of charge density      : 0.9308E-01
  | Change of sum of eigenvalues  : 0.1745E+02 eV
  | Change of total energy        : 0.1432E+00 eV

  End self-consistency iteration #     4       :  max(cpu_time)    wall_clock(cpu1)
  | Time for this iteration                    :        0.284 s           0.284 s
  | Charge density update                      :        0.086 s           0.086 s
  | Density mixing                             :        0.003 s           0.003 s
  | Hartree multipole update                   :        0.003 s           0.003 s
  | Hartree multipole summation                :        0.054 s           0.054 s
  | Integration                                :        0.130 s           0.130 s
  | Solution of K.-S. eqns.                    :        0.007 s           0.007 s
  | Total energy evaluation                    :        0.001 s           0.001 s
------------------------------------------------------------

------------------------------------------------------------
          Begin self-consistency iteration #    5

  Date     :  20150727, Time     :  124134.513
------------------------------------------------------------
  Evaluating new KS density.
  Integration grid: deviation in total charge (<rho> - N_e) =  -7.105427E-15
  Pulay mixing of updated and previous charge densities.

  Evaluating partitioned Hartree potential by multipole expansion.
  | Analytical far-field extrapolation by fixed multipoles:
  | Hartree multipole sum: apparent total charge =  -0.300634E-05
  Summing up the Hartree potential.
  Time summed over all CPUs for potential: real work        0.430 s, elapsed        0.433 s
  | RMS charge density error from multipole expansion :   0.107616E-01

  Integrating Hamiltonian matrix: batch-based integration.
  Time summed over all CPUs for integration: real work        0.986 s, elapsed        1.008 s

  Updating Kohn-Sham eigenvalues, eigenvectors, occupation numbers, and Fermi level.
  Solving generalized eigenproblem
  Updating Kohn-Sham eigenvalues and eigenfunctions.
  Solving real generalised eigenvalue problem by standard LAPACK (fast)
  Determining occupation numbers for Kohn-Sham eigenstates.
  | Chemical potential (Fermi level) in eV                 : -.37438295E+01
  | Error in electron count due to remaining E_F inaccuracy: 0.00000000E+00
  | Maximum occupation number of highest empty state:  0.00E+00

  Highest occupied state (VBM) at     -6.71806898 eV
  | Occupation number:      2.00000000

  Lowest unoccupied state (CBM) at    -1.27939038 eV
  | Occupation number:      0.00000000

  Overall HOMO-LUMO gap:      5.43867860 eV.

  Total energy components:
  | Sum of eigenvalues            :         -83.11470043 Ha       -2261.66607091 eV
  | XC energy correction          :         -18.57992729 Ha        -505.58554549 eV
  | XC potential correction       :          23.74464833 Ha         646.12475540 eV
  | Free-atom electrostatic energy:         -71.74156938 Ha       -1952.18742913 eV
  | Hartree energy correction     :          -3.40044316 Ha         -92.53076643 eV
  | van der Waals energy corr.    :           0.00000000 Ha           0.00000000 eV
  | Entropy correction            :           0.00000000 Ha           0.00000000 eV
  | ---------------------------
  | Total energy                  :        -153.09199194 Ha       -4165.84505656 eV
  | Total energy, T -> 0          :        -153.09199194 Ha       -4165.84505656 eV  <-- do not rely on this value for anything but (periodic) metals
  | Electronic free energy        :        -153.09199194 Ha       -4165.84505656 eV

  Derived energy quantities:
  | Kinetic energy                :         152.47759284 Ha        4149.12640653 eV
  | Electrostatic energy          :        -286.98965749 Ha       -7809.38591759 eV
  | Energy correction for multipole
  | error in Hartree potential    :          -0.00307885 Ha          -0.08377966 eV
  | Sum of eigenvalues per atom                           :        -376.94434515 eV
  | Total energy (T->0) per atom                          :        -694.30750943 eV  <-- do not rely on this value for anything but (periodic) metals
  | Electronic free energy per atom                       :        -694.30750943 eV

  Self-consistency convergence accuracy:
  | Change of charge density      : 0.2525E-01
  | Change of sum of eigenvalues  : 0.6853E+00 eV
  | Change of total energy        : 0.6211E-02 eV

  End self-consistency iteration #     5       :  max(cpu_time)    wall_clock(cpu1)
  | Time for this iteration                    :        0.282 s           0.281 s
  | Charge density update                      :        0.086 s           0.085 s
  | Density mixing                             :        0.003 s           0.004 s
  | Hartree multipole update                   :        0.003 s           0.002 s
  | Hartree multipole summation                :        0.054 s           0.055 s
  | Integration                                :        0.127 s           0.127 s
  | Solution of K.-S. eqns.                    :        0.007 s           0.007 s
  | Total energy evaluation                    :        0.000 s           0.001 s
------------------------------------------------------------

------------------------------------------------------------
          Begin self-consistency iteration #    6

  Date     :  20150727, Time     :  124134.794
------------------------------------------------------------
  Evaluating new KS density.
  Integration grid: deviation in total charge (<rho> - N_e) =   1.421085E-14
  Pulay mixing of updated and previous charge densities.

  Evaluating partitioned Hartree potential by multipole expansion.
  | Analytical far-field extrapolation by fixed multipoles:
  | Hartree multipole sum: apparent total charge =  -0.304188E-05
  Summing up the Hartree potential.
  Time summed over all CPUs for potential: real work        0.430 s, elapsed        0.432 s
  | RMS charge density error from multipole expansion :   0.109613E-01

  Integrating Hamiltonian matrix: batch-based integration.
  Time summed over all CPUs for integration: real work        0.986 s, elapsed        1.008 s

  Updating Kohn-Sham eigenvalues, eigenvectors, occupation numbers, and Fermi level.
  Solving generalized eigenproblem
  Updating Kohn-Sham eigenvalues and eigenfunctions.
  Solving real generalised eigenvalue problem by standard LAPACK (fast)
  Determining occupation numbers for Kohn-Sham eigenstates.
  | Chemical potential (Fermi level) in eV                 : -.37033106E+01
  | Error in electron count due to remaining E_F inaccuracy: 0.00000000E+00
  | Maximum occupation number of highest empty state:  0.00E+00

  Highest occupied state (VBM) at     -6.68119649 eV
  | Occupation number:      2.00000000

  Lowest unoccupied state (CBM) at    -1.26181150 eV
  | Occupation number:      0.00000000

  Overall HOMO-LUMO gap:      5.41938499 eV.

  Total energy components:
  | Sum of eigenvalues            :         -83.07401636 Ha       -2260.55900120 eV
  | XC energy correction          :         -18.58547340 Ha        -505.73646271 eV
  | XC potential correction       :          23.75190441 Ha         646.32220364 eV
  | Free-atom electrostatic energy:         -71.74156938 Ha       -1952.18742913 eV
  | Hartree energy correction     :          -3.44288036 Ha         -93.68554116 eV
  | van der Waals energy corr.    :           0.00000000 Ha           0.00000000 eV
  | Entropy correction            :           0.00000000 Ha           0.00000000 eV
  | ---------------------------
  | Total energy                  :        -153.09203508 Ha       -4165.84623055 eV
  | Total energy, T -> 0          :        -153.09203508 Ha       -4165.84623055 eV  <-- do not rely on this value for anything but (periodic) metals
  | Electronic free energy        :        -153.09203508 Ha       -4165.84623055 eV

  Derived energy quantities:
  | Kinetic energy                :         152.47979882 Ha        4149.18643413 eV
  | Electrostatic energy          :        -286.98636051 Ha       -7809.29620198 eV
  | Energy correction for multipole
  | error in Hartree potential    :          -0.00313479 Ha          -0.08530184 eV
  | Sum of eigenvalues per atom                           :        -376.75983353 eV
  | Total energy (T->0) per atom                          :        -694.30770509 eV  <-- do not rely on this value for anything but (periodic) metals
  | Electronic free energy per atom                       :        -694.30770509 eV

  Self-consistency convergence accuracy:
  | Change of charge density      : 0.5509E-02
  | Change of sum of eigenvalues  : 0.1107E+01 eV
  | Change of total energy        : -.1174E-02 eV

  End self-consistency iteration #     6       :  max(cpu_time)    wall_clock(cpu1)
  | Time for this iteration                    :        0.282 s           0.282 s
  | Charge density update                      :        0.086 s           0.086 s
  | Density mixing                             :        0.004 s           0.004 s
  | Hartree multipole update                   :        0.002 s           0.003 s
  | Hartree multipole summation                :        0.054 s           0.054 s
  | Integration                                :        0.127 s           0.127 s
  | Solution of K.-S. eqns.                    :        0.007 s           0.007 s
  | Total energy evaluation                    :        0.001 s           0.001 s
------------------------------------------------------------

------------------------------------------------------------
          Begin self-consistency iteration #    7

  Date     :  20150727, Time     :  124135.076
------------------------------------------------------------
  Evaluating new KS density.
  Integration grid: deviation in total charge (<rho> - N_e) =  -1.065814E-14
  Pulay mixing of updated and previous charge densities.

  Evaluating partitioned Hartree potential by multipole expansion.
  | Analytical far-field extrapolation by fixed multipoles:
  | Hartree multipole sum: apparent total charge =  -0.293350E-05
  Summing up the Hartree potential.
  Time summed over all CPUs for potential: real work        0.430 s, elapsed        0.431 s
  | RMS charge density error from multipole expansion :   0.109573E-01

  Integrating Hamiltonian matrix: batch-based integration.
  Time summed over all CPUs for integration: real work        0.980 s, elapsed        1.004 s

  Updating Kohn-Sham eigenvalues, eigenvectors, occupation numbers, and Fermi level.
  Solving generalized eigenproblem
  Updating Kohn-Sham eigenvalues and eigenfunctions.
  Solving real generalised eigenvalue problem by standard LAPACK (fast)
  Determining occupation numbers for Kohn-Sham eigenstates.
  | Chemical potential (Fermi level) in eV                 : -.66883569E+01
  | Error in electron count due to remaining E_F inaccuracy: 0.00000000E+00
  | Maximum occupation number of highest empty state:  0.00E+00

  Highest occupied state (VBM) at     -6.75637243 eV
  | Occupation number:      2.00000000

  Lowest unoccupied state (CBM) at    -1.28454111 eV
  | Occupation number:      0.00000000

  Overall HOMO-LUMO gap:      5.47183131 eV.

  Total energy components:
  | Sum of eigenvalues            :         -83.12987105 Ha       -2262.07888444 eV
  | XC energy correction          :         -18.57773189 Ha        -505.52580558 eV
  | XC potential correction       :          23.74154547 Ha         646.04032233 eV
  | Free-atom electrostatic energy:         -71.74156938 Ha       -1952.18742913 eV
  | Hartree energy correction     :          -3.38435973 Ha         -92.09311397 eV
  | van der Waals energy corr.    :           0.00000000 Ha           0.00000000 eV
  | Entropy correction            :           0.00000000 Ha           0.00000000 eV
  | ---------------------------
  | Total energy                  :        -153.09198658 Ha       -4165.84491079 eV
  | Total energy, T -> 0          :        -153.09198658 Ha       -4165.84491079 eV  <-- do not rely on this value for anything but (periodic) metals
  | Electronic free energy        :        -153.09198658 Ha       -4165.84491079 eV

  Derived energy quantities:
  | Kinetic energy                :         152.50132281 Ha        4149.77213170 eV
  | Electrostatic energy          :        -287.01557750 Ha       -7810.09123691 eV
  | Energy correction for multipole
  | error in Hartree potential    :          -0.00301123 Ha          -0.08193972 eV
  | Sum of eigenvalues per atom                           :        -377.01314741 eV
  | Total energy (T->0) per atom                          :        -694.30748513 eV  <-- do not rely on this value for anything but (periodic) metals
  | Electronic free energy per atom                       :        -694.30748513 eV

  Self-consistency convergence accuracy:
  | Change of charge density      : 0.6893E-02
  | Change of sum of eigenvalues  : -.1520E+01 eV
  | Change of total energy        : 0.1320E-02 eV

  End self-consistency iteration #     7       :  max(cpu_time)    wall_clock(cpu1)
  | Time for this iteration                    :        0.282 s           0.281 s
  | Charge density update                      :        0.087 s           0.086 s
  | Density mixing                             :        0.005 s           0.004 s
  | Hartree multipole update                   :        0.002 s           0.003 s
  | Hartree multipole summation                :        0.054 s           0.054 s
  | Integration                                :        0.126 s           0.126 s
  | Solution of K.-S. eqns.                    :        0.006 s           0.007 s
  | Total energy evaluation                    :        0.000 s           0.001 s
------------------------------------------------------------

------------------------------------------------------------
          Begin self-consistency iteration #    8

  Date     :  20150727, Time     :  124135.359
------------------------------------------------------------
  Evaluating new KS density.
  Integration grid: deviation in total charge (<rho> - N_e) =   1.065814E-14
  Pulay mixing of updated and previous charge densities.

  Evaluating partitioned Hartree potential by multipole expansion.
  | Analytical far-field extrapolation by fixed multipoles:
  | Hartree multipole sum: apparent total charge =  -0.293418E-05
  Summing up the Hartree potential.
  Time summed over all CPUs for potential: real work        0.430 s, elapsed        0.432 s
  | RMS charge density error from multipole expansion :   0.109664E-01

  Integrating Hamiltonian matrix: batch-based integration.
  Time summed over all CPUs for integration: real work        0.981 s, elapsed        1.004 s

  Updating Kohn-Sham eigenvalues, eigenvectors, occupation numbers, and Fermi level.
  Solving generalized eigenproblem
  Updating Kohn-Sham eigenvalues and eigenfunctions.
  Solving real generalised eigenvalue problem by standard LAPACK (fast)
  Determining occupation numbers for Kohn-Sham eigenstates.
  | Chemical potential (Fermi level) in eV                 : -.66872501E+01
  | Error in electron count due to remaining E_F inaccuracy: 0.00000000E+00
  | Maximum occupation number of highest empty state:  0.00E+00

  Highest occupied state (VBM) at     -6.75331503 eV
  | Occupation number:      2.00000000

  Lowest unoccupied state (CBM) at    -1.28381415 eV
  | Occupation number:      0.00000000

  Overall HOMO-LUMO gap:      5.46950088 eV.

  Total energy components:
  | Sum of eigenvalues            :         -83.12868991 Ha       -2262.04674420 eV
  | XC energy correction          :         -18.57791406 Ha        -505.53076276 eV
  | XC potential correction       :          23.74178268 Ha         646.04677732 eV
  | Free-atom electrostatic energy:         -71.74156938 Ha       -1952.18742913 eV
  | Hartree energy correction     :          -3.38559616 Ha         -92.12675880 eV
  | van der Waals energy corr.    :           0.00000000 Ha           0.00000000 eV
  | Entropy correction            :           0.00000000 Ha           0.00000000 eV
  | ---------------------------
  | Total energy                  :        -153.09198683 Ha       -4165.84491757 eV
  | Total energy, T -> 0          :        -153.09198683 Ha       -4165.84491757 eV  <-- do not rely on this value for anything but (periodic) metals
  | Electronic free energy        :        -153.09198683 Ha       -4165.84491757 eV

  Derived energy quantities:
  | Kinetic energy                :         152.50098117 Ha        4149.76283532 eV
  | Electrostatic energy          :        -287.01505394 Ha       -7810.07699013 eV
  | Energy correction for multipole
  | error in Hartree potential    :          -0.00301321 Ha          -0.08199360 eV
  | Sum of eigenvalues per atom                           :        -377.00779070 eV
  | Total energy (T->0) per atom                          :        -694.30748626 eV  <-- do not rely on this value for anything but (periodic) metals
  | Electronic free energy per atom                       :        -694.30748626 eV

  Self-consistency convergence accuracy:
  | Change of charge density      : 0.4539E-03
  | Change of sum of eigenvalues  : 0.3214E-01 eV
  | Change of total energy        : -.6782E-05 eV

  End self-consistency iteration #     8       :  max(cpu_time)    wall_clock(cpu1)
  | Time for this iteration                    :        0.282 s           0.282 s
  | Charge density update                      :        0.086 s           0.086 s
  | Density mixing                             :        0.005 s           0.005 s
  | Hartree multipole update                   :        0.003 s           0.002 s
  | Hartree multipole summation                :        0.054 s           0.055 s
  | Integration                                :        0.126 s           0.126 s
  | Solution of K.-S. eqns.                    :        0.007 s           0.007 s
  | Total energy evaluation                    :        0.001 s           0.001 s
------------------------------------------------------------

------------------------------------------------------------
          Begin self-consistency iteration #    9

  Date     :  20150727, Time     :  124135.642
------------------------------------------------------------
  Evaluating new KS density.
  Integration grid: deviation in total charge (<rho> - N_e) =   1.065814E-14
  Pulay mixing of updated and previous charge densities.

  Evaluating partitioned Hartree potential by multipole expansion.
  | Analytical far-field extrapolation by fixed multipoles:
  | Hartree multipole sum: apparent total charge =  -0.292880E-05
  Summing up the Hartree potential.
  Time summed over all CPUs for potential: real work        0.430 s, elapsed        0.432 s
  | RMS charge density error from multipole expansion :   0.109640E-01

  Integrating Hamiltonian matrix: batch-based integration.
  Time summed over all CPUs for integration: real work        0.982 s, elapsed        1.005 s

  Updating Kohn-Sham eigenvalues, eigenvectors, occupation numbers, and Fermi level.
  Solving generalized eigenproblem
  Updating Kohn-Sham eigenvalues and eigenfunctions.
  Solving real generalised eigenvalue problem by standard LAPACK (fast)
  Determining occupation numbers for Kohn-Sham eigenstates.
  | Chemical potential (Fermi level) in eV                 : -.66882515E+01
  | Error in electron count due to remaining E_F inaccuracy: 0.00000000E+00
  | Maximum occupation number of highest empty state:  0.00E+00

  Highest occupied state (VBM) at     -6.75647699 eV
  | Occupation number:      2.00000000

  Lowest unoccupied state (CBM) at    -1.28462099 eV
  | Occupation number:      0.00000000

  Overall HOMO-LUMO gap:      5.47185600 eV.

  Total energy components:
  | Sum of eigenvalues            :         -83.13001603 Ha       -2262.08282971 eV
  | XC energy correction          :         -18.57779668 Ha        -505.52756853 eV
  | XC potential correction       :          23.74162095 Ha         646.04237645 eV
  | Free-atom electrostatic energy:         -71.74156938 Ha       -1952.18742913 eV
  | Hartree energy correction     :          -3.38422537 Ha         -92.08945785 eV
  | van der Waals energy corr.    :           0.00000000 Ha           0.00000000 eV
  | Entropy correction            :           0.00000000 Ha           0.00000000 eV
  | ---------------------------
  | Total energy                  :        -153.09198651 Ha       -4165.84490876 eV
  | Total energy, T -> 0          :        -153.09198651 Ha       -4165.84490876 eV  <-- do not rely on this value for anything but (periodic) metals
  | Electronic free energy        :        -153.09198651 Ha       -4165.84490876 eV

  Derived energy quantities:
  | Kinetic energy                :         152.50233274 Ha        4149.79961321 eV
  | Electrostatic energy          :        -287.01652257 Ha       -7810.11695345 eV
  | Energy correction for multipole
  | error in Hartree potential    :          -0.00300510 Ha          -0.08177300 eV
  | Sum of eigenvalues per atom                           :        -377.01380495 eV
  | Total energy (T->0) per atom                          :        -694.30748479 eV  <-- do not rely on this value for anything but (periodic) metals
  | Electronic free energy per atom                       :        -694.30748479 eV

  Self-consistency convergence accuracy:
  | Change of charge density      : 0.3866E-03
  | Change of sum of eigenvalues  : -.3609E-01 eV
  | Change of total energy        : 0.8803E-05 eV

  End self-consistency iteration #     9       :  max(cpu_time)    wall_clock(cpu1)
  | Time for this iteration                    :        0.283 s           0.282 s
  | Charge density update                      :        0.086 s           0.085 s
  | Density mixing                             :        0.005 s           0.006 s
  | Hartree multipole update                   :        0.003 s           0.002 s
  | Hartree multipole summation                :        0.054 s           0.055 s
  | Integration                                :        0.126 s           0.126 s
  | Solution of K.-S. eqns.                    :        0.007 s           0.007 s
  | Total energy evaluation                    :        0.000 s           0.001 s
------------------------------------------------------------

------------------------------------------------------------
          Begin self-consistency iteration #   10

  Date     :  20150727, Time     :  124135.925
------------------------------------------------------------
  Evaluating new KS density.
  Integration grid: deviation in total charge (<rho> - N_e) =   1.421085E-14
  Pulay mixing of updated and previous charge densities.

  Evaluating partitioned Hartree potential by multipole expansion.
  | Analytical far-field extrapolation by fixed multipoles:
  | Hartree multipole sum: apparent total charge =  -0.292790E-05
  Summing up the Hartree potential.
  Time summed over all CPUs for potential: real work        0.430 s, elapsed        0.431 s
  | RMS charge density error from multipole expansion :   0.109639E-01

  Integrating Hamiltonian matrix: batch-based integration.
  Time summed over all CPUs for integration: real work        0.980 s, elapsed        1.002 s

  Updating Kohn-Sham eigenvalues, eigenvectors, occupation numbers, and Fermi level.
  Solving generalized eigenproblem
  Updating Kohn-Sham eigenvalues and eigenfunctions.
  Solving real generalised eigenvalue problem by standard LAPACK (fast)
  Determining occupation numbers for Kohn-Sham eigenstates.
  | Chemical potential (Fermi level) in eV                 : -.66883739E+01
  | Error in electron count due to remaining E_F inaccuracy: 0.00000000E+00
  | Maximum occupation number of highest empty state:  0.00E+00

  Highest occupied state (VBM) at     -6.75682109 eV
  | Occupation number:      2.00000000

  Lowest unoccupied state (CBM) at    -1.28463637 eV
  | Occupation number:      0.00000000

  Overall HOMO-LUMO gap:      5.47218472 eV.

  Total energy components:
  | Sum of eigenvalues            :         -83.13026605 Ha       -2262.08963310 eV
  | XC energy correction          :         -18.57777658 Ha        -505.52702164 eV
  | XC potential correction       :          23.74159364 Ha         646.04163322 eV
  | Free-atom electrostatic energy:         -71.74156938 Ha       -1952.18742913 eV
  | Hartree energy correction     :          -3.38396814 Ha         -92.08245808 eV
  | van der Waals energy corr.    :           0.00000000 Ha           0.00000000 eV
  | Entropy correction            :           0.00000000 Ha           0.00000000 eV
  | ---------------------------
  | Total energy                  :        -153.09198651 Ha       -4165.84490872 eV
  | Total energy, T -> 0          :        -153.09198651 Ha       -4165.84490872 eV  <-- do not rely on this value for anything but (periodic) metals
  | Electronic free energy        :        -153.09198651 Ha       -4165.84490872 eV

  Derived energy quantities:
  | Kinetic energy                :         152.50227736 Ha        4149.79810627 eV
  | Electrostatic energy          :        -287.01648729 Ha       -7810.11599335 eV
  | Energy correction for multipole
  | error in Hartree potential    :          -0.00300409 Ha          -0.08174555 eV
  | Sum of eigenvalues per atom                           :        -377.01493885 eV
  | Total energy (T->0) per atom                          :        -694.30748479 eV  <-- do not rely on this value for anything but (periodic) metals
  | Electronic free energy per atom                       :        -694.30748479 eV

  Self-consistency convergence accuracy:
  | Change of charge density      : 0.6662E-04
  | Change of sum of eigenvalues  : -.6803E-02 eV
  | Change of total energy        : 0.4859E-07 eV

  End self-consistency iteration #    10       :  max(cpu_time)    wall_clock(cpu1)
  | Time for this iteration                    :        0.283 s           0.283 s
  | Charge density update                      :        0.086 s           0.085 s
  | Density mixing                             :        0.006 s           0.007 s
  | Hartree multipole update                   :        0.002 s           0.002 s
  | Hartree multipole summation                :        0.054 s           0.055 s
  | Integration                                :        0.126 s           0.125 s
  | Solution of K.-S. eqns.                    :        0.006 s           0.007 s
  | Total energy evaluation                    :        0.000 s           0.000 s
------------------------------------------------------------

------------------------------------------------------------
          Begin self-consistency iteration #   11

  Date     :  20150727, Time     :  124136.208
------------------------------------------------------------
  Evaluating new KS density.
  Integration grid: deviation in total charge (<rho> - N_e) =   0.000000E+00
  Pulay mixing of updated and previous charge densities.

  Evaluating partitioned Hartree potential by multipole expansion.
  | Analytical far-field extrapolation by fixed multipoles:
  | Hartree multipole sum: apparent total charge =  -0.292803E-05
  Summing up the Hartree potential.
  Time summed over all CPUs for potential: real work        0.430 s, elapsed        0.433 s
  | RMS charge density error from multipole expansion :   0.109637E-01

  Integrating Hamiltonian matrix: batch-based integration.
  Time summed over all CPUs for integration: real work        0.979 s, elapsed        1.002 s

  Updating Kohn-Sham eigenvalues, eigenvectors, occupation numbers, and Fermi level.
  Solving generalized eigenproblem
  Updating Kohn-Sham eigenvalues and eigenfunctions.
  Solving real generalised eigenvalue problem by standard LAPACK (fast)
  Determining occupation numbers for Kohn-Sham eigenstates.
  | Chemical potential (Fermi level) in eV                 : -.66883212E+01
  | Error in electron count due to remaining E_F inaccuracy: 0.00000000E+00
  | Maximum occupation number of highest empty state:  0.00E+00

  Highest occupied state (VBM) at     -6.75666901 eV
  | Occupation number:      2.00000000

  Lowest unoccupied state (CBM) at    -1.28461356 eV
  | Occupation number:      0.00000000

  Overall HOMO-LUMO gap:      5.47205545 eV.

[...]
      6       2.00000          -0.440429          -11.98469
      7       2.00000          -0.336494           -9.15648
      8       2.00000          -0.327195           -8.90344
      9       2.00000          -0.269318           -7.32853
     10       2.00000          -0.248300           -6.75657
     11       0.00000          -0.047208           -1.28459
     12       0.00000          -0.023242           -0.63245
     13       0.00000           0.026361            0.71733
     14       0.00000           0.028329            0.77088
     15       0.00000           0.121352            3.30216
     16       0.00000           0.132064            3.59365
     17       0.00000           0.141176            3.84161
     18       0.00000           0.159663            4.34464
     19       0.00000           0.163422            4.44693
     20       0.00000           0.167286            4.55208
     21       0.00000           0.184881            5.03086
     22       0.00000           0.236540            6.43659
     23       0.00000           0.282607            7.69012
     24       0.00000           0.294780            8.02137
     25       0.00000           0.355525            9.67432
     26       0.00000           0.385817           10.49861
     27       0.00000           0.412358           11.22083
     28       0.00000           0.455974           12.40769
     29       0.00000           0.463784           12.62019
     30       0.00000           0.482361           13.12570
     31       0.00000           0.501430           13.64461
     32       0.00000           0.519121           14.12599
     33       0.00000           0.561485           15.27878
     34       0.00000           0.618945           16.84236

  Highest occupied state (VBM) at     -6.75657444 eV
  | Occupation number:      2.00000000

  Lowest unoccupied state (CBM) at    -1.28458952 eV
  | Occupation number:      0.00000000

  Overall HOMO-LUMO gap:      5.47198492 eV.

  Self-consistency cycle converged.

  End self-consistency iteration #    13       :  max(cpu_time)    wall_clock(cpu1)
  | Time for this iteration                    :        0.706 s           0.707 s
  | Charge density & force component update    :        0.418 s           0.418 s
  | Density mixing                             :        0.006 s           0.007 s
  | Hartree multipole update                   :        0.003 s           0.002 s
  | Hartree multipole summation                :        0.142 s           0.143 s
  | Integration                                :        0.126 s           0.126 s
  | Solution of K.-S. eqns.                    :        0.007 s           0.007 s
  | Total energy evaluation                    :        0.002 s           0.002 s
------------------------------------------------------------
  Obtaining max. number of non-zero basis functions in each batch .
  Evaluating KS electron density on previously omitted grid points.
  Evaluating non-empirical van der Waals correction (Tkatchenko/Scheffler 2009).
  Performing Hirshfeld analysis of fragment charges and moments.
  ----------------------------------------------------------------------
  | Atom     1: O
  |   Hirshfeld charge        :     -0.29479816
  |   Free atom volume        :     23.95238533
  |   Hirshfeld volume        :     22.74741134
  |   Hirshfeld dipole vector :      0.03119348       0.04663654      -0.01077534
  |   Hirshfeld dipole moment :      0.05713237
  |   Hirshfeld second moments:      0.04935747      -0.02594290       0.02701113
  |                                 -0.02594290      -0.00992596      -0.02793111
  |                                  0.02701113      -0.02793111      -0.06640800
  ----------------------------------------------------------------------
  | Atom     2: H
  |   Hirshfeld charge        :      0.15068852
  |   Free atom volume        :     10.44207651
  |   Hirshfeld volume        :      6.57873545
  |   Hirshfeld dipole vector :     -0.06485283       0.09682973      -0.04270526
  |   Hirshfeld dipole moment :      0.12411940
  |   Hirshfeld second moments:      0.12891221       0.00280005       0.00242111
  |                                  0.00280005       0.09670256      -0.00312943
  |                                  0.00242111      -0.00312943       0.09522982
  ----------------------------------------------------------------------
  | Atom     3: H
  |   Hirshfeld charge        :      0.13734762
  |   Free atom volume        :     10.44207651
  |   Hirshfeld volume        :      6.97635875
  |   Hirshfeld dipole vector :      0.11758433       0.01737980       0.00539001
  |   Hirshfeld dipole moment :      0.11898397
  |   Hirshfeld second moments:      0.10184256      -0.01988429       0.00005076
  |                                 -0.01988429       0.10320669      -0.01625075
  |                                  0.00005076      -0.01625075       0.09046832
  ----------------------------------------------------------------------
  | Atom     4: O
  |   Hirshfeld charge        :     -0.29540544
  |   Free atom volume        :     23.95238533
  |   Hirshfeld volume        :     21.57236916
  |   Hirshfeld dipole vector :      0.00802865       0.00815152       0.05895637
  |   Hirshfeld dipole moment :      0.06005631
  |   Hirshfeld second moments:      0.05349039       0.05880649      -0.01897606
  |                                  0.05880649       0.00099943      -0.00214487
  |                                 -0.01897606      -0.00214487       0.01616945
  ----------------------------------------------------------------------
  | Atom     5: H
  |   Hirshfeld charge        :      0.15304315
  |   Free atom volume        :     10.44207651
  |   Hirshfeld volume        :      6.09557005
  |   Hirshfeld dipole vector :      0.10108918       0.06856060       0.03774473
  |   Hirshfeld dipole moment :      0.12784461
  |   Hirshfeld second moments:      0.12093341       0.01241891      -0.01437525
  |                                  0.01241891       0.10823227      -0.00574101
  |                                 -0.01437525      -0.00574101       0.12470749
  ----------------------------------------------------------------------
  | Atom     6: H
  |   Hirshfeld charge        :      0.14911724
  |   Free atom volume        :     10.44207651
  |   Hirshfeld volume        :      6.26304913
  |   Hirshfeld dipole vector :     -0.07737024      -0.04081339       0.09109039
  |   Hirshfeld dipole moment :      0.12629072
  |   Hirshfeld second moments:      0.12311360       0.01374728       0.00263191
  |                                  0.01374728       0.10830523       0.00463529
  |                                  0.00263191       0.00463529       0.11348538
  ----------------------------------------------------------------------


  Total energy components:
  | Sum of eigenvalues            :         -83.13009183 Ha       -2262.08489217 eV
  | XC energy correction          :         -18.57779400 Ha        -505.52749561 eV
  | XC potential correction       :          23.74161710 Ha         646.04227166 eV
  | Free-atom electrostatic energy:         -71.74156938 Ha       -1952.18742913 eV
  | Hartree energy correction     :          -3.38414840 Ha         -92.08736325 eV
  | van der Waals energy corr.    :          -0.00027772 Ha          -0.00755708 eV
  | Entropy correction            :           0.00000000 Ha           0.00000000 eV
  | ---------------------------
  | Total energy                  :        -153.09226422 Ha       -4165.85246557 eV
  | Total energy, T -> 0          :        -153.09226422 Ha       -4165.85246557 eV  <-- do not rely on this value for anything but (periodic) metals
  | Electronic free energy        :        -153.09226422 Ha       -4165.85246557 eV

  Derived energy quantities:
  | Kinetic energy                :         152.50232098 Ha        4149.79929319 eV
  | Electrostatic energy          :        -287.01651348 Ha       -7810.11670609 eV
  | Energy correction for multipole
  | error in Hartree potential    :          -0.00300427 Ha          -0.08175031 eV
  | Sum of eigenvalues per atom                           :        -377.01414870 eV
  | Total energy (T->0) per atom                          :        -694.30874426 eV  <-- do not rely on this value for anything but (periodic) metals
  | Electronic free energy per atom                       :        -694.30874426 eV

  atomic forces [eV/Ang]:
  -----------------------
  atom #    1
   Hellmann-Feynman + Multipole  : -.731665E+01 -.120086E+02 0.303103E+01
   Pulay + GGA                   : 0.706498E+01 0.156726E+02 -.435027E+01
   Van der Waals               : 0.204949E-02 0.287083E-02 0.232795E-02
   ----------------------------------------------------------------
   Total forces(   1)            : -.249620E+00 0.366689E+01 -.131691E+01
  atom #    2
   Hellmann-Feynman + Multipole  : 0.234690E+01 -.354989E+01 0.156702E+01
   Pulay + GGA                   : -.509012E-01 0.113752E+00 -.468317E-01
   Van der Waals               : 0.108606E-02 0.887123E-03 0.118436E-02
   ----------------------------------------------------------------
   Total forces(   2)            : 0.229708E+01 -.343525E+01 0.152137E+01
  atom #    3
   Hellmann-Feynman + Multipole  : -.216471E+01 -.222823E+00 -.176733E+00
   Pulay + GGA                   : 0.138998E+00 0.319766E-01 0.854292E-02
   Van der Waals               : 0.111718E-02 0.269421E-02 0.246283E-02
   ----------------------------------------------------------------
   Total forces(   3)            : -.202460E+01 -.188152E+00 -.165727E+00
  atom #    4
   Hellmann-Feynman + Multipole  : -.220684E+01 -.304664E+01 -.170123E+02
   Pulay + GGA                   : 0.295730E+01 0.335752E+01 0.154459E+02
   Van der Waals               : -.288221E-02 -.402646E-02 -.325910E-02
   ----------------------------------------------------------------
   Total forces(   4)            : 0.747579E+00 0.306851E+00 -.156962E+01
  atom #    5
   Hellmann-Feynman + Multipole  : -.526699E+00 -.309553E+00 0.313491E+00
   Pulay + GGA                   : 0.104317E+00 0.734311E-01 0.606866E-01
   Van der Waals               : -.354304E-03 -.486463E-03 -.413728E-03
   ----------------------------------------------------------------
   Total forces(   5)            : -.422736E+00 -.236608E+00 0.373764E+00
  atom #    6
   Hellmann-Feynman + Multipole  : -.258584E+00 -.662379E-01 0.105224E+01
   Pulay + GGA                   : -.876412E-01 -.465140E-01 0.102145E+00
   Van der Waals               : -.101621E-02 -.193923E-02 -.230231E-02
   ----------------------------------------------------------------
   Total forces(   6)            : -.347241E+00 -.114691E+00 0.115208E+01
  Timings for vdw_correction_hirshfeld (Tkatchenko-Scheffler 2009):
  | CPU time:        0.706 s, Wall clock time:        0.707 s.
  Removing unitary transformations (pure translations, rotations) from forces on atoms.
  Atomic forces before filtering:
  | Net force on center of mass :  0.466282E-03 -.963223E-03 -.503661E-02 eV/A
  | Net torque on center of mass:  0.911125E-02 -.205203E-01 0.303920E-02 eV
  Atomic forces after filtering:
  | Net force on center of mass :  0.223008E-15 0.289910E-15 0.000000E+00 eV/A
  | Net torque on center of mass:  0.151054E-14 0.613655E-15 0.000000E+00 eV
 
  Energy and forces in a compact form:
  | Total energy uncorrected      :         -0.416585246557478E+04 eV
  | Total energy corrected        :         -0.416585246557478E+04 eV  <-- do not rely on this value for anything but (periodic) metals
  | Electronic free energy        :         -0.416585246557478E+04 eV
  Total atomic forces (unitary forces cleaned) [eV/Ang]:
  |   1         -0.250072529468031E+00          0.366655280930105E+01         -0.131495053268096E+01
  |   2          0.229459417493809E+01         -0.343589756968635E+01          0.152528362965048E+01
  |   3         -0.202528308141817E+01         -0.187261039653036E+00         -0.165736157636314E+00
  |   4          0.747958096496529E+00          0.307428541531685E+00         -0.156982154349263E+01
  |   5         -0.422278174386272E+00         -0.235360846024952E+00          0.372343328890468E+00
  |   6         -0.344918486162150E+00         -0.115461895468397E+00          0.115288127526896E+01
 
  ------------------------------------ 
  Start decomposition of the XC Energy 
  ------------------------------------ 
  Hartree-Fock part   :          0.000000000 Ha              0.000000000 eV
  ------------------------------------ 
  X Energy            :        -17.933116007 Ha           -487.984914963 eV
  C Energy GGA        :         -0.644677989 Ha            -17.542580645 eV
  Total XC Energy     :        -18.577793997 Ha           -505.527495608 eV
  LDA X and C from self-consistent density 
  X Energy LDA        :        -16.137890148 Ha           -439.134333832 eV
  C Energy LDA        :         -1.314559801 Ha            -35.770992206 eV
  ------------------------------------ 
  End decomposition of the XC Energy 
  ------------------------------------ 
  Performing Hirshfeld analysis of fragment charges and moments.
  ----------------------------------------------------------------------
  | Atom     1: O
  |   Hirshfeld charge        :     -0.29479816
  |   Free atom volume        :     23.95238533
  |   Hirshfeld volume        :     22.74741134
  |   Hirshfeld dipole vector :      0.03119348       0.04663654      -0.01077534
  |   Hirshfeld dipole moment :      0.05713237
  |   Hirshfeld second moments:      0.04935747      -0.02594290       0.02701113
  |                                 -0.02594290      -0.00992596      -0.02793111
  |                                  0.02701113      -0.02793111      -0.06640800
  ----------------------------------------------------------------------
  | Atom     2: H
  |   Hirshfeld charge        :      0.15068852
  |   Free atom volume        :     10.44207651
  |   Hirshfeld volume        :      6.57873545
  |   Hirshfeld dipole vector :     -0.06485283       0.09682973      -0.04270526
  |   Hirshfeld dipole moment :      0.12411940
  |   Hirshfeld second moments:      0.12891221       0.00280005       0.00242111
  |                                  0.00280005       0.09670256      -0.00312943
  |                                  0.00242111      -0.00312943       0.09522982
  ----------------------------------------------------------------------
  | Atom     3: H
  |   Hirshfeld charge        :      0.13734762
  |   Free atom volume        :     10.44207651
  |   Hirshfeld volume        :      6.97635875
  |   Hirshfeld dipole vector :      0.11758433       0.01737980       0.00539001
  |   Hirshfeld dipole moment :      0.11898397
  |   Hirshfeld second moments:      0.10184256      -0.01988429       0.00005076
  |                                 -0.01988429       0.10320669      -0.01625075
  |                                  0.00005076      -0.01625075       0.09046832
  ----------------------------------------------------------------------
  | Atom     4: O
  |   Hirshfeld charge        :     -0.29540544
  |   Free atom volume        :     23.95238533
  |   Hirshfeld volume        :     21.57236916
  |   Hirshfeld dipole vector :      0.00802865       0.00815152       0.05895637
  |   Hirshfeld dipole moment :      0.06005631
  |   Hirshfeld second moments:      0.05349039       0.05880649      -0.01897606
  |                                  0.05880649       0.00099943      -0.00214487
  |                                 -0.01897606      -0.00214487       0.01616945
  ----------------------------------------------------------------------
  | Atom     5: H
  |   Hirshfeld charge        :      0.15304315
  |   Free atom volume        :     10.44207651
  |   Hirshfeld volume        :      6.09557005
  |   Hirshfeld dipole vector :      0.10108918       0.06856060       0.03774473
  |   Hirshfeld dipole moment :      0.12784461
  |   Hirshfeld second moments:      0.12093341       0.01241891      -0.01437525
  |                                  0.01241891       0.10823227      -0.00574101
  |                                 -0.01437525      -0.00574101       0.12470749
  ----------------------------------------------------------------------
  | Atom     6: H
  |   Hirshfeld charge        :      0.14911724
  |   Free atom volume        :     10.44207651
  |   Hirshfeld volume        :      6.26304913
  |   Hirshfeld dipole vector :     -0.07737024      -0.04081339       0.09109039
  |   Hirshfeld dipole moment :      0.12629072
  |   Hirshfeld second moments:      0.12311360       0.01374728       0.00263191
  |                                  0.01374728       0.10830523       0.00463529
  |                                  0.00263191       0.00463529       0.11348538
  ----------------------------------------------------------------------


------------------------------------------------------------------------------
  Final output of selected total energy values:

  The following output summarizes some interesting total energy values
  at the end of a run (AFTER all relaxation, molecular dynamics, etc.).

  | Total energy of the DFT / Hartree-Fock s.c.f. calculation      :          -4165.852465575 eV
  | Final zero-broadening corrected energy (caution - metals only) :          -4165.852465575 eV
  | For reference only, the value of 1 Hartree used in FHI-aims is :             27.211384500 eV

  Before relying on these values, please be sure to understand exactly which
  total energy value is referred to by a given number. Different objects may
  all carry the same name 'total energy'. Definitions:

  Total energy of the DFT / Hartree-Fock s.c.f. calculation:
  | Note that this energy does not include ANY quantities calculated after the
  | s.c.f. cycle, in particular not ANY RPA, MP2, etc. many-body perturbation terms.

  Final zero-broadening corrected energy:
  | For metallic systems only, a broadening of the occupation numbers at the Fermi
  | level can be extrapolated back to zero broadening by an electron-gas inspired
  | formula. For all systems that are not real metals, this value can be
  | meaningless and should be avoided.

------------------------------------------------------------------------------

------------------------------------------------------------
          Leaving FHI-aims.
          Date     :  20150727, Time     :  124137.614

          Computational steps:
          | Number of self-consistency cycles          :           13

          Detailed time accounting                     :  max(cpu_time)    wall_clock(cpu1)
          | Total time                                 :        5.356 s           5.378 s
          | Preparation time                           :        0.169 s           0.763 s
          | Grid partitioning                          :        0.068 s           0.068 s
          | Preloading free-atom quantities on grid    :        0.013 s           0.013 s
          | Free-atom superposition energy             :        0.017 s           0.017 s
          | Total time for integrations                :        1.836 s           1.833 s
          | Total time for solution of K.-S. equations :        0.115 s           0.118 s
          | Total time for density & force components  :        1.453 s           1.449 s
          | Total time for mixing                      :        0.056 s           0.059 s
          | Total time for Hartree multipole update    :        0.032 s           0.030 s
          | Total time for Hartree multipole sum       :        0.881 s           0.887 s
          | Total time for total energy evaluation     :        0.006 s           0.011 s
          | Total time for scaled ZORA corrections     :        0.000 s           0.000 s
          | Total time for TS (2009) vdW correction    :        0.012 s           0.014 s

          Have a nice day.
------------------------------------------------------------
