  MPI-parallelism will be employed.
------------------------------------------------------------
          Invoking FHI-aims ...
          Version 081213
          Compiled on 2013/08/29 at 17:41:06 on host generoso.

          When using FHI-aims, please cite the following reference:

          Volker Blum, Ralf Gehrke, Felix Hanke, Paula Havu,
          Ville Havu, Xinguo Ren, Karsten Reuter, and Matthias Scheffler,
          'Ab Initio Molecular Simulations with Numeric Atom-Centered Orbitals: FHI-aims',
          Computer Physics Communications 180, 2175-2196 (2009)

          For any questions about FHI-aims, please visit the aimsclub website
          with its forums and wiki. Contributions to both the forums and the
          wiki are warmly encouraged - they are for you, and everyone is welcome there.

------------------------------------------------------------

  Date     :  20150727, Time     :  122800.282
  Time zero on CPU 1             :   0.489910000000000E-01  s.
  Internal wall clock time zero  :           207232080.282  s.

  Using        8 parallel tasks.
  Task        0 on host gen60 reporting.
  Task        1 on host gen60 reporting.
  Task        2 on host gen60 reporting.
  Task        3 on host gen60 reporting.
  Task        4 on host gen60 reporting.
  Task        5 on host gen60 reporting.
  Task        6 on host gen60 reporting.
  Task        7 on host gen60 reporting.

  Performing system and environment tests:
  | Environment variable OMP_NUM_THREADS correctly set to 1.
  | Checking for scalapack...
  | No scalapack compiled in.

  Obtaining array dimensions for all initial allocations:
  
  -----------------------------------------------------------------------
  Parsing control.in (first pass over file, find array dimensions only).
  The contents of control.in will be repeated verbatim below
  unless switched off by setting 'verbatim_writeout .false.' .
  in the first line of control.in .
  -----------------------------------------------------------------------
  
  #########################################################################################
  #
  #  Volker Blum, FHI 2008 : Test run input file control.in
  #
  #########################################################################################
  #
  #  Physical model
  #
    xc                 rpbe
    spin               none
    relativistic       atomic_zora scalar
    charge             0.
   vdw_correction_hirshfeld
  #
  #  SCF convergence
  #
    occupation_type    gaussian 0.01
    mixer              pulay
      n_max_pulay        10
      charge_mix_param   0.1
    sc_accuracy_rho    5E-5
    sc_accuracy_eev    5E-3
    sc_accuracy_etot   5E-6
    sc_iter_limit      3000
  #
  #  Eigenvalue solver
  #
    KS_method          lapack
      empty_states       8
      basis_threshold    0.e-5
  #
  #  Efficiency
  #
  #   all previous settings are now default, except stratmann still
  #   undecided. Continue to handle stratmann with care, if at all.
  #
  #  partition_type stratmann
    partition_type rho_r2
  #  hartree_partition_type stratmann
  #
  #  Oprions for large clusters (100's of atoms: memory saving / better scaling)
  #
  # for periodic systems:
  #
    density_update_method orbital
    packed_matrix_format none
  #  k_grid 6 6 6
  #  output k_eigenvalue 1
  #  distributed_spline_storage .true.
  #
  #  Relaxation
  #
  #  relax_geometry   bfgs 5.e-3
    sc_accuracy_forces 5.E-4
    final_forces_cleaned .true.
  #
  #  Output options
  #
  #  output mulliken
    output Hirshfeld
  #  output dipole
  
  #harmonic_length_scale 0.001
  
  ################################################################################
  #
  #  FHI-aims code project
  #  VB, Fritz-Haber Institut, 2007
  #
  #  Suggested "safe" defaults for H atom (to be pasted into control.in file)
  #  Basis constructed for a non-relativistic H2 molecule using the
  #  PW-LDA functional.
  #
  ################################################################################
    species        H
  #     global species definitions
      nucleus             1
      cut_pot             4.0  2.0  1.0
      cut_free_atom       finite 8.0
      logarithmic         0.00010000 100.00  1.0123
      basis_dep_cutoff    1d-4  # 1d-4 is safe default - please check 5d-4 if you wish!
      radial_base         24 7.0
      radial_multiplier   2
      angular_grids       specified
        division   0.2783  110
        division   0.3822  194
        division   0.5626  302
  #      division   0.5922  434
  #      division   0.6227  590
  #      division   0.7206  770
        outer_grid  302
      l_hartree           4
  ################################################################################
  #
  #  Definition of "minimal" basis
  #
  ################################################################################
  #     valence basis states
      valence      1  s   1.
  #     ion occupancy
      ion_occ      1  s   0.5
  ################################################################################
  #
  #  Suggested additional basis functions. For production calculations,
  #  uncomment them one after another (the most important basis functions are
  #  listed first).
  #
  ################################################################################
  #  "First tier" - improvements: -1014.90 meV to -62.69 meV
       hydro 2 s 2.1
       hydro 2 p 3.5
  #  "Second tier" - improvements: -12.89 meV to -1.83 meV
       hydro 1 s 0.85
       hydro 2 p 3.7
       hydro 2 s 1.2
       hydro 3 d 7
  #  "Third tier" - improvements: -0.25 meV to -0.12 meV
  #     hydro 4 f 11.2
  #     hydro 3 p 4.8
  #     hydro 4 d 9
  #     hydro 3 s 3.2
  
  ################################################################################
  #
  #  FHI-aims code project
  #  VB, Fritz-Haber Institut, 2007
  #
  #  Suggested "safe" defaults for O atom (to be pasted into control.in file)
  #  All values have been tested for a non-relativistic, non-spinpolarized O2
  #  molecule using the PW-LDA functional. Validity for PBE is expected.
  #
  #  Constructed for dimers: 1.0 A, 1.208 A, 1.5 A, 2.0 A, 3.0 A
  #
  ################################################################################
    species        O
  #     global species definitions
      nucleus             8
      mass                15.9994
      l_hartree           4
      cut_pot             4.0  2.0  1.0
      cut_free_atom       finite 8.0
      basis_dep_cutoff    1d-4  # 1d-4 is safe default - please check 5d-4 if you wish!
      logarithmic         0.00010000 100.00  1.0123
      radial_base         36 7.0
      radial_multiplier   2
       angular_grids specified
        division   0.4087  110
        division   0.5181  194
        division   0.6184  302
  #      division   0.7315  434
  #      division   0.7934  590
  #      division   0.9656  770
  #      division   1.4041  974
  #      outer_grid 974
        outer_grid 302
  ################################################################################
  #
  #  Definition of "minimal" basis
  #
  ################################################################################
  #     valence basis states
      valence      2  s   2.
      valence      2  p   4.
  #     ion occupancy
      ion_occ      2  s   1.
      ion_occ      2  p   3.
  ################################################################################
  #
  #  Suggested additional basis functions. For production calculations,
  #  uncomment them one after another (the most important basis functions are
  #  listed first).
  #
  ################################################################################
  #  "First tier" - improvements: -699.05 meV to -159.38 meV
       hydro 2 p 1.8
       hydro 3 d 7.6
       hydro 3 s 6.4
  #  "Second tier" - improvements: -49.91 meV to -5.39 meV
       hydro 4 f 11.6
       hydro 3 p 6.2
       hydro 3 d 5.6
       hydro 5 g 17.6
       hydro 1 s 0.75
  #  "Third tier" - improvements: -2.83 meV to -0.50 meV
  #     ionic 2 p auto
  #     hydro 4 f 10.8
  #     hydro 4 d 4.7
  #     hydro 2 s 6.8
  #  "Fourth tier" - improvements: -0.40 meV to -0.12 meV
  #     hydro 3 p 5
  #     hydro 3 s 3.3
  #     hydro 5 g 15.6
  #     hydro 4 f 17.6
  #     hydro 4 d 14
  # Further basis functions - -0.08 meV and below
  #     hydro 3 s 2.1
  #     hydro 4 d 11.6
  #     hydro 3 p 16
  #     hydro 2 s 17.2
  
  
  -----------------------------------------------------------------------
  Completed first pass over input file control.in .
  -----------------------------------------------------------------------
  
  
  -----------------------------------------------------------------------
  Parsing geometry.in (first pass over file, find array dimensions only).
  The contents of geometry.in will be repeated verbatim below
  unless switched off by setting 'verbatim_writeout .false.' .
  in the first line of geometry.in .
  -----------------------------------------------------------------------
  
  atom      -4.053030000      0.065001000     -1.525160000  O
  atom      -4.566710000      0.974813000     -1.912820000  H
  atom      -3.067820000      0.330172000     -1.477310000  H
  atom      -5.293160000      2.192130000     -2.328800000  O
  atom      -4.829300000      2.988660000     -1.973850000  H
  atom      -5.428570000      2.328640000     -3.235170000  H
  atom      -3.818880000      2.024990000      2.187990000  O
  atom      -3.690880000      1.961360000      3.202150000  H
  atom      -4.546490000      2.751300000      2.045370000  H
  atom      -5.628340000      3.730740000      1.385610000  O
  atom      -6.090650000      4.418470000      1.860350000  H
  atom      -5.158540000      4.200260000      0.615875000  H
  
  -----------------------------------------------------------------------
  Completed first pass over input file geometry.in .
  -----------------------------------------------------------------------
  
 
  Basic array size parameters: 
  | Number of species                 :        2
  | Number of atoms                   :       12
  | Max. basis fn. angular momentum   :        4
  | Max. atomic/ionic basis occupied n:        2
  | Max. number of basis fn. types    :        2
  | Max. radial fns per species/type  :        8
  | Max. logarithmic grid size        :     1301
  | Max. radial integration grid size :       73
  | Max. angular integration grid size:      302
  | Max. angular grid division number :        8
  | Radial grid for Hartree potential :     1301
  | Number of spin channels           :        1

------------------------------------------------------------
          Reading file control.in.
------------------------------------------------------------
  XC: Using RPBE gradient-corrected functionals.
  Spin treatment: No spin polarisation.
  Scalar relativistic treatment of kinetic energy: on-site free-atom approximation to ZORA.
  Charge =   0.000000E+00: Neutral system requested explicitly.
  Using non-empirical van der Waals correction (Hirshfeld partitioning):
  Occupation type: Gaussian broadening, width =   0.100000E-01 eV.
  Using pulay charge density mixing.
  Pulay mixing - number of memorized iterations:   10
  Charge density mixing - mixing parameter:     0.1000
  Convergence accuracy of self-consistent charge density: 0.5000E-04
  Convergence accuracy of sum of eigenvalues: 0.5000E-02
  Convergence accuracy of total energy: 0.5000E-05
  Maximum number of s.-c. iterations  :  3000
  Kohn-Sham eigenvalues and eigenfunctions calculated by lapack diagonalisation (D&C).
  Number of empty states per atom:        8
  Threshold for basis singularities: 0.0000E+00
  Partition function in integrals calculations: rho / r^2
 Using packed matrix format           0
  Convergence accuracy of forces: 0.5000E-03
  Cleaning forces before final output.
  Hirshfeld charge analysis will be performed.
 
  Reading configuration options for species H                   .
  | Found nuclear charge :   1.0000
  | Found cutoff potl. onset [A], width [A], scale factor :    4.00000    2.00000    1.00000
  | Found cutoff specification for free atom: Cutoff potential begins at    8.00000 A.
  | Found logarithmic grid data [bohr] : 0.1000E-03 0.1000E+03 0.1012E+01
  | Threshold for basis-dependent cutoff potential is   0.100000E-03
  | Found data for basic radial integration grid :    24 points, outermost radius =    7.000 A
  | Found multiplier for basic radial grid :   2
  | Found angular grid specification: user-specified.
  | Specified grid contains     4 separate shells.
  | Check grid settings after all constraints further below.
  | Found l_max for Hartree potential  :   4
  | Found free-atom valence shell :  1 s   1.000
  | No ionic wave fns used. Skipping ion_occ.
  | Found hydrogenic basis function :  2 s   2.100
  | Found hydrogenic basis function :  2 p   3.500
  | Found hydrogenic basis function :  1 s   0.850
  | Found hydrogenic basis function :  2 p   3.700
  | Found hydrogenic basis function :  2 s   1.200
  | Found hydrogenic basis function :  3 d   7.000
  Species H                   : Missing cutoff potential type.
  Defaulting to exp(1/x)/(1-x)^2 type cutoff potential.
  Species H : On-site basis accuracy parameter (for Gram-Schmidt orthonormalisation) not specified.
  Using default value basis_acc =  0.1000000E-03.
  Species H                   : Using default innermost maximum threshold i_radial=  2 for radial functions.
  Species H                   : Basic radial grid will be enhanced according to radial_multiplier =   2, to contain    49 grid points.
 
  Reading configuration options for species O                   .
  | Found nuclear charge :   8.0000
  | Found atomic mass :    15.9994000000000      amu
  | Found l_max for Hartree potential  :   4
  | Found cutoff potl. onset [A], width [A], scale factor :    4.00000    2.00000    1.00000
  | Found cutoff specification for free atom: Cutoff potential begins at    8.00000 A.
  | Threshold for basis-dependent cutoff potential is   0.100000E-03
  | Found logarithmic grid data [bohr] : 0.1000E-03 0.1000E+03 0.1012E+01
  | Found data for basic radial integration grid :    36 points, outermost radius =    7.000 A
  | Found multiplier for basic radial grid :   2
  | Found angular grid specification: user-specified.
  | Specified grid contains     4 separate shells.
  | Check grid settings after all constraints further below.
  | Found free-atom valence shell :  2 s   2.000
  | Found free-atom valence shell :  2 p   4.000
  | No ionic wave fns used. Skipping ion_occ.
  | No ionic wave fns used. Skipping ion_occ.
  | Found hydrogenic basis function :  2 p   1.800
  | Found hydrogenic basis function :  3 d   7.600
  | Found hydrogenic basis function :  3 s   6.400
  | Found hydrogenic basis function :  4 f  11.600
  | Found hydrogenic basis function :  3 p   6.200
  | Found hydrogenic basis function :  3 d   5.600
  | Found hydrogenic basis function :  5 g  17.600
  | Found hydrogenic basis function :  1 s   0.750
  Species O                   : Missing cutoff potential type.
  Defaulting to exp(1/x)/(1-x)^2 type cutoff potential.
  Species O : On-site basis accuracy parameter (for Gram-Schmidt orthonormalisation) not specified.
  Using default value basis_acc =  0.1000000E-03.
  Species O                   : Using default innermost maximum threshold i_radial=  2 for radial functions.
  Species O                   : Basic radial grid will be enhanced according to radial_multiplier =   2, to contain    73 grid points.
 
  Finished reading input file 'control.in'. Consistency checks are next.
 
  Target number of points in a grid batch is not set. Defaulting to  100
  Method for grid partitioning is not set. Defaulting to parallel hash+maxmin partitioning.
  Batch size limit is not set. Defaulting to    200
  By default, will store active basis functions for each batch.
  If in need of memory, prune_basis_once .false. can be used to disable this option.
  communication_type for Hartree potential was not specified.
  Defaulting to calc_hartree .
  Pulay mixer: Number of initial linear mixing iterations not set.
  Defaulting to    0 iterations.
  Work space size for distributed Hartree potential not set.
  Defaulting to   0.200000E+03 MB.
  Algorithm-dependent basis array size parameters:
  | n_max_pulay                         :       10
  Geometry relaxation not requested: no relaxation will be performed.
  Handling of forces: Unphysical translation and rotation will be removed from forces.
  No accuracy limit for integral partition fn. given. Defaulting to 0.1000E-14.
  No threshold value for u(r) in integrations given. Defaulting to 0.1000E-05.
  No accuracy for occupation numbers given. Defaulting to 0.1000E-07.
  No threshold value for occupation numbers given. Defaulting to 0.0000E+00.
  No accuracy for fermi level given. Defaulting to 0.1000E-19.
  Maximum # of iterations to find E_F not set. Defaulting to  200.
  Will not use alltoall communication since running on < 1024 CPUs.
  Partitioning for Hartree potential was not defined. Using partition_type for integrals.
  | Reporting present value of keyword multip_moments_threshold  :       0.10000000E-09
  | This value may affect high angular momentum components of the Hartree potential in periodic systems.
  No q(lm)/r^(l+1) cutoff set for long-range Hartree potential.
  | Using default value of  0.100000E-09 .
  | Verify using the multipole_threshold keyword.
  Defaulting to new monopole extrapolation.
  Density update method: Loop over occupied states selected for charge density update.
------------------------------------------------------------


------------------------------------------------------------
          Reading geometry description geometry.in.
------------------------------------------------------------
  Input structure read successfully.
  The structure contains       12 atoms,  and a total of         40.000 electrons.

  Input geometry:
  | No unit cell requested.
  | Atomic structure:
  |       Atom                x [A]            y [A]            z [A]
  |    1: Species O             -4.053030         0.065001        -1.525160
  |    2: Species H             -4.566710         0.974813        -1.912820
  |    3: Species H             -3.067820         0.330172        -1.477310
  |    4: Species O             -5.293160         2.192130        -2.328800
  |    5: Species H             -4.829300         2.988660        -1.973850
  |    6: Species H             -5.428570         2.328640        -3.235170
  |    7: Species O             -3.818880         2.024990         2.187990
  |    8: Species H             -3.690880         1.961360         3.202150
  |    9: Species H             -4.546490         2.751300         2.045370
  |   10: Species O             -5.628340         3.730740         1.385610
  |   11: Species H             -6.090650         4.418470         1.860350
  |   12: Species H             -5.158540         4.200260         0.615875
  |

  | The smallest distance between any two atoms is         0.92654057 AA.
  |
  | The first atom of this pair is atom number                      4 .
  | The second atom of this pair is atom number                     6 .

  Structure-dependent array size parameters: 
  | Maximum number of distinct radial functions  :       18
  | Maximum number of basis functions            :      276
  | Number of Kohn-Sham states (occupied + empty):       68
------------------------------------------------------------

------------------------------------------------------------
          Preparing all fixed parts of the calculation.
------------------------------------------------------------
  Determining machine precision:
    2.225073858507201E-308
  Setting up grids for atomic and cluster calculations.

  Creating wave function, potential, and density for free atoms.

  Species: H

  List of occupied orbitals and eigenvalues:
    n    l              occ      energy [Ha]    energy [eV]
    1    0           1.0000        -0.241408        -6.5691


  Species: O

  List of occupied orbitals and eigenvalues:
    n    l              occ      energy [Ha]    energy [eV]
    1    0           2.0000       -18.944147      -515.4965
    2    0           2.0000        -0.883529       -24.0421
    2    1           4.0000        -0.330176        -8.9845

  Creating fixed part of basis set: Ionic, confined, hydrogenic.
 
  H                    hydrogenic:
 
  List of hydrogenic basis orbitals: 
    n    l      effective z      eigenvalue [eV]  inner max. [A]     outer max. [A]     outer radius [A]   
    2    0         2.100000       -14.9965           0.193241           1.317192           5.372934
    2    1         3.500000       -41.6672           0.602363           0.602363           4.056010
    1    0         0.850000        -9.8292           0.624864           0.624864           5.372934
    2    1         3.700000       -46.5653           0.573616           0.573616           3.909951
    2    0         1.200000        -4.5995           0.334977           2.228160           5.505921
    3    2         7.000000       -74.0753           0.680692           0.680692           3.769152
 
 
  O                    hydrogenic:
 
  List of hydrogenic basis orbitals: 
    n    l      effective z      eigenvalue [eV]  inner max. [A]     outer max. [A]     outer radius [A]   
    2    1         1.800000       -11.0118           1.178546           1.178546           5.432516
    3    2         7.600000       -87.3182           0.624117           0.624117           3.541422
    3    0         6.400000       -61.9209           0.061166           1.081887           4.306510
    4    3        11.600000      -114.4238           0.731621           0.731621           3.584982
    3    1         6.200000       -58.1113           0.255677           1.030255           4.306510
    3    2         5.600000       -47.4081           0.847222           0.847222           4.413102
    5    4        17.600000      -168.5799           0.749730           0.749730           3.372413
    1    0         0.750000        -7.6499           0.705275           0.705275           5.366508
 

  Adding cutoff potential to free-atom effective potential.
  Creating atomic-like basis functions for current effective potential.

  Species H                   :

  List of atomic basis orbitals and eigenvalues:
    n    l      energy [Ha]    energy [eV]    outer radius [A]
    1    0        -0.241374        -6.5681       5.372934


  Species O                   :

  List of atomic basis orbitals and eigenvalues:
    n    l      energy [Ha]    energy [eV]    outer radius [A]
    1    0       -18.944147      -515.4965       1.415745
    2    0        -0.883529       -24.0421       5.048305
    2    1        -0.330173        -8.9845       5.301302

  Assembling full basis from fixed parts.
  | Species H :   atomic orbital   1 s accepted.
  | Species H :    hydro orbital   2 s accepted.
  | Species H :    hydro orbital   1 s accepted.
  | Species H :    hydro orbital   2 s accepted.
  | Species H :    hydro orbital   2 p accepted.
  | Species H :    hydro orbital   2 p accepted.
  | Species H :    hydro orbital   3 d accepted.
  | Species O :   atomic orbital   1 s accepted.
  | Species O :    hydro orbital   3 s accepted.
  | Species O :   atomic orbital   2 s accepted.
  | Species O :    hydro orbital   1 s accepted.
  | Species O :    hydro orbital   3 p accepted.
  | Species O :   atomic orbital   2 p accepted.
  | Species O :    hydro orbital   2 p accepted.
  | Species O :    hydro orbital   3 d accepted.
  | Species O :    hydro orbital   3 d accepted.
  | Species O :    hydro orbital   4 f accepted.
  | Species O :    hydro orbital   5 g accepted.
 
  Basis size parameters after reduction:
  | Total number of radial functions:       18
  | Total number of basis functions :      276
 
  Testing on-site integration grid accuracy.
  |  Species  Function  <phi|h_atom|phi> (log., in eV)  <phi|h_atom|phi> (rad., in eV)
           1        1                 -6.5683835025                 -6.5684759159
           1        2                 13.3711789951                 13.3708738703
           1        3                 23.6590910787                 23.6532055418
           1        4                 16.2963827186                 16.1870710655 ***
           1        5                 28.7627214838                 28.7627215090
           1        6                 59.5965249172                 59.5965950857
           1        7                 60.2220506392                 60.2220503827
           2        8               -515.4964576505               -515.4964530710
           2        9                 15.3030791347                 15.3030722972
           2       10                -21.7296094581                -21.7296135470
           2       11                 14.2969371730                 14.2969701621
           2       12                 21.0679693190                 21.0679697493
           2       13                 -2.3833606469                 -2.3833613176
           2       14                 13.7067136422                 13.7066766629
           2       15                 45.8013116808                 45.8013116965
           2       16                 52.2309815402                 52.2309831494
           2       17                 85.4120732416                 85.4120732763
           2       18                142.1019167745                142.1019167817
 * Note: Onsite integrals marked "***" above are less accurate than
 * onsite_accuracy_threshold =    0.03000 eV. Usually, this is harmless.
 * When in doubt, tighten the "radial" and/or "radial_multiplier" flags to check.

  Preparing densities etc. for the partition functions (integrals / Hartree potential).

  Preparations completed.
  max(cpu_time)          :      0.170 s.
  Wall clock time (cpu1) :      0.485 s.
------------------------------------------------------------

------------------------------------------------------------
          Begin self-consistency loop: Initialization.

          Date     :  20150727, Time     :  122800.808
------------------------------------------------------------

  Initializing index lists of integration centers etc. from given atomic structure:
  | Number of centers in hartree potential         :        12
  | Number of centers in hartree multipole         :        12
  | Number of centers in electron density summation:        12
  | Number of centers in basis integrals           :        12
  | Number of centers in integrals                 :        12
  Partitioning the integration grid into batches with parallel hashing+maxmin method.
  | Number of batches:     1551
  | Maximal batch size:     190
  | Minimal batch size:      55
  | Average batch size:     101.462
  | Standard deviation of batch sizes:      29.798

  Integration load balanced across     8 MPI tasks.
  Work distribution over tasks is as follows:
  Task     0 has      19668 integration points.
  Task     1 has      19669 integration points.
  Task     2 has      19639 integration points.
  Task     3 has      19639 integration points.
  Task     4 has      19611 integration points.
  Task     5 has      19728 integration points.
  Task     6 has      19715 integration points.
  Task     7 has      19699 integration points.
  Initializing partition tables, free-atom densities, potentials, etc. across the integration grid (initialize_grid_storage).
  | Net number of integration points:   157368
  | of which are non-zero points    :   156839
  Obtaining max. number of non-zero basis functions in each batch (get_n_compute_maxes).
  | Maximal number of non-zero basis functions:      274 in task     0
  | Maximal number of non-zero basis functions:      273 in task     1
  | Maximal number of non-zero basis functions:      273 in task     2
  | Maximal number of non-zero basis functions:      273 in task     3
  | Maximal number of non-zero basis functions:      273 in task     4
  | Maximal number of non-zero basis functions:      274 in task     5
  | Maximal number of non-zero basis functions:      273 in task     6
  | Maximal number of non-zero basis functions:      274 in task     7
  Integrating Hamiltonian matrix: batch-based integration.
  Time summed over all CPUs for integration: real work        4.028 s, elapsed        4.109 s
  Integrating overlap matrix.
  Time summed over all CPUs for integration: real work        2.098 s, elapsed        2.130 s

  Updating Kohn-Sham eigenvalues, eigenvectors, occupation numbers, and Fermi level.
  Solving generalized eigenproblem
  Updating Kohn-Sham eigenvalues and eigenfunctions.
  Transforming overlap matrix and checking for singularities.
  Overlap matrix is nonsingular:
  | Lowest eigenvalue:  0.351279E-03
  Solving real generalised eigenvalue problem by standard LAPACK (fast)
  Determining occupation numbers for Kohn-Sham eigenstates.
  | Chemical potential (Fermi level) in eV                 : -.41997938E+01
  | Error in electron count due to remaining E_F inaccuracy: 0.00000000E+00
  | Maximum occupation number of highest empty state:  0.00E+00

  Writing Kohn-Sham eigenvalues.

  State    Occupation    Eigenvalue [Ha]    Eigenvalue [eV]
      1       2.00000         -19.064794         -518.77944
      2       2.00000         -19.050515         -518.39089
      3       2.00000         -19.028868         -517.80183
      4       2.00000         -19.019412         -517.54454
      5       2.00000          -1.121163          -30.50839
      6       2.00000          -1.098967          -29.90441
      7       2.00000          -1.059605          -28.83333
      8       2.00000          -1.043099          -28.38418
      9       2.00000          -0.650182          -17.69235
     10       2.00000          -0.628191          -17.09393
     11       2.00000          -0.600019          -16.32736
     12       2.00000          -0.596115          -16.22110
     13       2.00000          -0.524311          -14.26723
     14       2.00000          -0.518346          -14.10492
     15       2.00000          -0.482946          -13.14164
     16       2.00000          -0.481921          -13.11374
     17       2.00000          -0.440941          -11.99861
     18       2.00000          -0.438225          -11.92470
     19       2.00000          -0.417211          -11.35288
     20       2.00000          -0.409535          -11.14400
     21       0.00000          -0.094826           -2.58034
     22       0.00000          -0.066199           -1.80136
     23       0.00000          -0.052637           -1.43234
     24       0.00000          -0.034509           -0.93904
     25       0.00000          -0.014853           -0.40417
     26       0.00000           0.025507            0.69409
     27       0.00000           0.033912            0.92279
     28       0.00000           0.052645            1.43254
     29       0.00000           0.074499            2.02723
     30       0.00000           0.082066            2.23313
     31       0.00000           0.085370            2.32302
     32       0.00000           0.096837            2.63507
     33       0.00000           0.098004            2.66682
     34       0.00000           0.107825            2.93407
     35       0.00000           0.112064            3.04941
     36       0.00000           0.119396            3.24894
     37       0.00000           0.134571            3.66187
     38       0.00000           0.138858            3.77852
     39       0.00000           0.152879            4.16005
     40       0.00000           0.159721            4.34623
     41       0.00000           0.185505            5.04785
     42       0.00000           0.191290            5.20526
     43       0.00000           0.222270            6.04829
     44       0.00000           0.241210            6.56365
     45       0.00000           0.260679            7.09343
     46       0.00000           0.264705            7.20299
     47       0.00000           0.287054            7.81114
     48       0.00000           0.326719            8.89048
     49       0.00000           0.338418            9.20883
     50       0.00000           0.350394            9.53470
     51       0.00000           0.351301            9.55938
     52       0.00000           0.367726           10.00634
     53       0.00000           0.375797           10.22595
     54       0.00000           0.390054           10.61391
     55       0.00000           0.403224           10.97229
     56       0.00000           0.428060           11.64812
     57       0.00000           0.434584           11.82564
     58       0.00000           0.455124           12.38456
     59       0.00000           0.463952           12.62477
     60       0.00000           0.482205           13.12147
     61       0.00000           0.495941           13.49524
     62       0.00000           0.523089           14.23398
     63       0.00000           0.534334           14.53998
     64       0.00000           0.546052           14.85882
     65       0.00000           0.580492           15.79599
     66       0.00000           0.599325           16.30847
     67       0.00000           0.667897           18.17441
     68       0.00000           0.722426           19.65822

  Highest occupied state (VBM) at    -11.14400146 eV
  | Occupation number:      2.00000000

  Lowest unoccupied state (CBM) at    -2.58034135 eV
  | Occupation number:      0.00000000

  Overall HOMO-LUMO gap:      8.56366011 eV.
  Calculating total energy contributions from superposition of free atom densities.

  Total energy components:
  | Sum of eigenvalues            :        -173.34873153 Ha       -4717.05898634 eV
  | XC energy correction          :         -36.43478208 Ha        -991.44086432 eV
  | XC potential correction       :          46.55373116 Ha        1266.79147858 eV
  | Free-atom electrostatic energy:        -143.23115593 Ha       -3897.51805637 eV
  | Hartree energy correction     :           0.00000000 Ha           0.00000000 eV
  | van der Waals energy corr.    :           0.00000000 Ha           0.00000000 eV
  | Entropy correction            :           0.00000000 Ha           0.00000000 eV
  | ---------------------------
  | Total energy                  :        -306.46093838 Ha       -8339.22642845 eV
  | Total energy, T -> 0          :        -306.46093838 Ha       -8339.22642845 eV  <-- do not rely on this value for anything but (periodic) metals
  | Electronic free energy        :        -306.46093838 Ha       -8339.22642845 eV

  Derived energy quantities:
  | Kinetic energy                :         303.29282643 Ha        8253.01771601 eV
  | Electrostatic energy          :        -573.31898273 Ha      -15600.80328014 eV
  | Energy correction for multipole
  | error in Hartree potential    :           0.00000000 Ha           0.00000000 eV
  | Sum of eigenvalues per atom                           :        -393.08824886 eV
  | Total energy (T->0) per atom                          :        -694.93553570 eV  <-- do not rely on this value for anything but (periodic) metals
  | Electronic free energy per atom                       :        -694.93553570 eV
  Initialize hartree_potential_storage
  Max. number of atoms included in rho_multipole:           12

  End scf initialization - timings             :  max(cpu_time)    wall_clock(cpu1)
  | Time for scf. initialization               :        1.171 s           1.173 s
  | Boundary condition initialization          :        0.000 s           0.001 s
  | Integration                                :        0.782 s           0.783 s
  | Solution of K.-S. eqns.                    :        0.119 s           0.121 s
  | Grid partitioning                          :        0.113 s           0.112 s
  | Preloading free-atom quantities on grid    :        0.014 s           0.013 s
  | Free-atom superposition energy             :        0.046 s           0.046 s
  | Total energy evaluation                    :        0.000 s           0.002 s
------------------------------------------------------------

------------------------------------------------------------
          Begin self-consistency iteration #    1

  Date     :  20150727, Time     :  122801.982
------------------------------------------------------------
  Evaluating new KS density.
  Integration grid: deviation in total charge (<rho> - N_e) =  -2.842171E-14
  Pulay mixing of updated and previous charge densities.

  Evaluating partitioned Hartree potential by multipole expansion.
  | Analytical far-field extrapolation by fixed multipoles:
  | Hartree multipole sum: apparent total charge =  -0.153543E-05
  Summing up the Hartree potential.
  Time summed over all CPUs for potential: real work        1.656 s, elapsed        1.671 s
  | RMS charge density error from multipole expansion :   0.142867E-02

  Integrating Hamiltonian matrix: batch-based integration.
  Time summed over all CPUs for integration: real work        4.041 s, elapsed        4.166 s

  Updating Kohn-Sham eigenvalues, eigenvectors, occupation numbers, and Fermi level.
  Solving generalized eigenproblem
  Updating Kohn-Sham eigenvalues and eigenfunctions.
  Solving real generalised eigenvalue problem by standard LAPACK (fast)
  Determining occupation numbers for Kohn-Sham eigenstates.
  | Chemical potential (Fermi level) in eV                 : -.37886802E+01
  | Error in electron count due to remaining E_F inaccuracy: 0.00000000E+00
  | Maximum occupation number of highest empty state:  0.00E+00

  Writing Kohn-Sham eigenvalues.

  State    Occupation    Eigenvalue [Ha]    Eigenvalue [eV]
      1       2.00000         -18.998936         -516.98736
      2       2.00000         -18.983994         -516.58075
      3       2.00000         -18.945014         -515.52007
      4       2.00000         -18.932332         -515.17496
      5       2.00000          -1.091120          -29.69088
      6       2.00000          -1.068004          -29.06187
      7       2.00000          -1.015423          -27.63106
      8       2.00000          -0.995849          -27.09843
      9       2.00000          -0.624738          -16.99999
     10       2.00000          -0.601542          -16.36878
     11       2.00000          -0.565035          -15.37538
     12       2.00000          -0.561332          -15.27462
     13       2.00000          -0.486525          -13.23903
     14       2.00000          -0.483636          -13.16042
     15       2.00000          -0.444102          -12.08462
     16       2.00000          -0.442039          -12.02850
     17       2.00000          -0.403097          -10.96882
     18       2.00000          -0.400567          -10.89998
     19       2.00000          -0.371250          -10.10222
     20       2.00000          -0.360621           -9.81299
     21       0.00000          -0.089472           -2.43465
     22       0.00000          -0.058681           -1.59680
     23       0.00000          -0.042848           -1.16594
     24       0.00000          -0.025532           -0.69477
     25       0.00000          -0.011186           -0.30438
     26       0.00000           0.029995            0.81620
     27       0.00000           0.043460            1.18260
     28       0.00000           0.062315            1.69567
     29       0.00000           0.083542            2.27330
     30       0.00000           0.091219            2.48221
     31       0.00000           0.095958            2.61115
     32       0.00000           0.103790            2.82426
     33       0.00000           0.111927            3.04570
     34       0.00000           0.119343            3.24749
     35       0.00000           0.124473            3.38708
     36       0.00000           0.129615            3.52701
     37       0.00000           0.142632            3.88122
     38       0.00000           0.150200            4.08715
     39       0.00000           0.162488            4.42152
     40       0.00000           0.168392            4.58218
     41       0.00000           0.195055            5.30771
     42       0.00000           0.200218            5.44822
     43       0.00000           0.232629            6.33017
     44       0.00000           0.249690            6.79441
     45       0.00000           0.270201            7.35253
     46       0.00000           0.274643            7.47341
     47       0.00000           0.293875            7.99675
     48       0.00000           0.336122            9.14635
     49       0.00000           0.346609            9.43171
     50       0.00000           0.357936            9.73993
     51       0.00000           0.361137            9.82704
     52       0.00000           0.376898           10.25590
     53       0.00000           0.384324           10.45799
     54       0.00000           0.400749           10.90492
     55       0.00000           0.411792           11.20543
     56       0.00000           0.434713           11.82914
     57       0.00000           0.442355           12.03711
     58       0.00000           0.464327           12.63499
     59       0.00000           0.473926           12.89619
     60       0.00000           0.494506           13.45620
     61       0.00000           0.507069           13.79804
     62       0.00000           0.533426           14.51525
     63       0.00000           0.546342           14.86672
     64       0.00000           0.557757           15.17735
     65       0.00000           0.592283           16.11685
     66       0.00000           0.609635           16.58900
     67       0.00000           0.680492           18.51713
     68       0.00000           0.735181           20.00530

  Highest occupied state (VBM) at     -9.81299034 eV
  | Occupation number:      2.00000000

  Lowest unoccupied state (CBM) at    -2.43464656 eV
  | Occupation number:      0.00000000

  Overall HOMO-LUMO gap:      7.37834378 eV.

  Total energy components:
  | Sum of eigenvalues            :        -171.55031044 Ha       -4668.12145844 eV
  | XC energy correction          :         -36.62680958 Ha        -996.66619851 eV
  | XC potential correction       :          46.80529824 Ha        1273.63696700 eV
  | Free-atom electrostatic energy:        -143.23115593 Ha       -3897.51805637 eV
  | Hartree energy correction     :          -1.73933601 Ha         -47.32974104 eV
  | van der Waals energy corr.    :           0.00000000 Ha           0.00000000 eV
  | Entropy correction            :           0.00000000 Ha           0.00000000 eV
  | ---------------------------
  | Total energy                  :        -306.34231372 Ha       -8335.99848737 eV
  | Total energy, T -> 0          :        -306.34231372 Ha       -8335.99848737 eV  <-- do not rely on this value for anything but (periodic) metals
  | Electronic free energy        :        -306.34231372 Ha       -8335.99848737 eV

  Derived energy quantities:
  | Kinetic energy                :         304.43037442 Ha        8283.97197172 eV
  | Electrostatic energy          :        -574.14587856 Ha      -15623.30426058 eV
  | Energy correction for multipole
  | error in Hartree potential    :          -0.00015707 Ha          -0.00427408 eV
  | Sum of eigenvalues per atom                           :        -389.01012154 eV
  | Total energy (T->0) per atom                          :        -694.66654061 eV  <-- do not rely on this value for anything but (periodic) metals
  | Electronic free energy per atom                       :        -694.66654061 eV

  Self-consistency convergence accuracy:
  | Change of charge density      : 0.5883E+00
  | Change of sum of eigenvalues  : 0.4894E+02 eV
  | Change of total energy        : 0.3228E+01 eV

  End self-consistency iteration #     1       :  max(cpu_time)    wall_clock(cpu1)
  | Time for this iteration                    :        1.140 s           1.135 s
  | Charge density update                      :        0.365 s           0.361 s
  | Density mixing                             :        0.002 s           0.002 s
  | Hartree multipole update                   :        0.004 s           0.005 s
  | Hartree multipole summation                :        0.209 s           0.210 s
  | Integration                                :        0.522 s           0.522 s
  | Solution of K.-S. eqns.                    :        0.031 s           0.031 s
  | Total energy evaluation                    :        0.000 s           0.001 s
------------------------------------------------------------

------------------------------------------------------------
          Begin self-consistency iteration #    2

  Date     :  20150727, Time     :  122803.118
------------------------------------------------------------
  Evaluating new KS density.
  Integration grid: deviation in total charge (<rho> - N_e) =   1.421085E-14
  Pulay mixing of updated and previous charge densities.

  Evaluating partitioned Hartree potential by multipole expansion.
  | Analytical far-field extrapolation by fixed multipoles:
  | Hartree multipole sum: apparent total charge =  -0.432619E-05
  Summing up the Hartree potential.
  Time summed over all CPUs for potential: real work        1.653 s, elapsed        1.660 s
  | RMS charge density error from multipole expansion :   0.566796E-02

  Integrating Hamiltonian matrix: batch-based integration.
  Time summed over all CPUs for integration: real work        4.009 s, elapsed        4.092 s

  Updating Kohn-Sham eigenvalues, eigenvectors, occupation numbers, and Fermi level.
  Solving generalized eigenproblem
  Updating Kohn-Sham eigenvalues and eigenfunctions.
  Solving real generalised eigenvalue problem by standard LAPACK (fast)
  Determining occupation numbers for Kohn-Sham eigenstates.
  | Chemical potential (Fermi level) in eV                 : -.27724821E+01
  | Error in electron count due to remaining E_F inaccuracy: 0.00000000E+00
  | Maximum occupation number of highest empty state:  0.00E+00

  Highest occupied state (VBM) at     -6.69295613 eV
  | Occupation number:      2.00000000

  Lowest unoccupied state (CBM) at    -2.14841505 eV
  | Occupation number:      0.00000000

  Overall HOMO-LUMO gap:      4.54454108 eV.

  Total energy components:
  | Sum of eigenvalues            :        -167.36993196 Ha       -4554.36757233 eV
  | XC energy correction          :         -37.09264560 Ha       -1009.34224143 eV
  | XC potential correction       :          47.41507016 Ha        1290.22970510 eV
  | Free-atom electrostatic energy:        -143.23115593 Ha       -3897.51805637 eV
  | Hartree energy correction     :          -5.92583756 Ha        -161.25024440 eV
  | van der Waals energy corr.    :           0.00000000 Ha           0.00000000 eV
  | Entropy correction            :           0.00000000 Ha           0.00000000 eV
  | ---------------------------
  | Total energy                  :        -306.20450089 Ha       -8332.24840943 eV
  | Total energy, T -> 0          :        -306.20450089 Ha       -8332.24840943 eV  <-- do not rely on this value for anything but (periodic) metals
  | Electronic free energy        :        -306.20450089 Ha       -8332.24840943 eV

  Derived energy quantities:
  | Kinetic energy                :         306.67263598 Ha        8344.98701325 eV
  | Electrostatic energy          :        -575.78449128 Ha      -15667.89318125 eV
  | Energy correction for multipole
  | error in Hartree potential    :          -0.00119613 Ha          -0.03254828 eV
  | Sum of eigenvalues per atom                           :        -379.53063103 eV
  | Total energy (T->0) per atom                          :        -694.35403412 eV  <-- do not rely on this value for anything but (periodic) metals
  | Electronic free energy per atom                       :        -694.35403412 eV

  Self-consistency convergence accuracy:
  | Change of charge density      : 0.4439E+00
  | Change of sum of eigenvalues  : 0.1138E+03 eV
  | Change of total energy        : 0.3750E+01 eV

  End self-consistency iteration #     2       :  max(cpu_time)    wall_clock(cpu1)
  | Time for this iteration                    :        1.117 s           1.116 s
  | Charge density update                      :        0.355 s           0.354 s
  | Density mixing                             :        0.004 s           0.004 s
  | Hartree multipole update                   :        0.004 s           0.005 s
  | Hartree multipole summation                :        0.208 s           0.208 s
  | Integration                                :        0.512 s           0.512 s
  | Solution of K.-S. eqns.                    :        0.031 s           0.031 s
  | Total energy evaluation                    :        0.000 s           0.001 s
------------------------------------------------------------

------------------------------------------------------------
          Begin self-consistency iteration #    3

  Date     :  20150727, Time     :  122804.234
------------------------------------------------------------
  Evaluating new KS density.
  Integration grid: deviation in total charge (<rho> - N_e) =   1.421085E-14
  Pulay mixing of updated and previous charge densities.

  Evaluating partitioned Hartree potential by multipole expansion.
  | Analytical far-field extrapolation by fixed multipoles:
  | Hartree multipole sum: apparent total charge =  -0.402498E-05
  Summing up the Hartree potential.
  Time summed over all CPUs for potential: real work        1.653 s, elapsed        1.659 s
  | RMS charge density error from multipole expansion :   0.117390E-01

  Integrating Hamiltonian matrix: batch-based integration.
  Time summed over all CPUs for integration: real work        4.001 s, elapsed        4.078 s

  Updating Kohn-Sham eigenvalues, eigenvectors, occupation numbers, and Fermi level.
  Solving generalized eigenproblem
  Updating Kohn-Sham eigenvalues and eigenfunctions.
  Solving real generalised eigenvalue problem by standard LAPACK (fast)
  Determining occupation numbers for Kohn-Sham eigenstates.
  | Chemical potential (Fermi level) in eV                 : -.25461038E+01
  | Error in electron count due to remaining E_F inaccuracy: 0.00000000E+00
  | Maximum occupation number of highest empty state:  0.00E+00

  Highest occupied state (VBM) at     -6.45202196 eV
  | Occupation number:      2.00000000

  Lowest unoccupied state (CBM) at    -2.18748245 eV
  | Occupation number:      0.00000000

  Overall HOMO-LUMO gap:      4.26453951 eV.

  Total energy components:
  | Sum of eigenvalues            :        -167.52776285 Ha       -4558.66236947 eV
  | XC energy correction          :         -37.07210286 Ha       -1008.78324508 eV
  | XC potential correction       :          47.38445515 Ha        1289.39662833 eV
  | Free-atom electrostatic energy:        -143.23115593 Ha       -3897.51805637 eV
  | Hartree energy correction     :          -5.75118010 Ha        -156.49757299 eV
  | van der Waals energy corr.    :           0.00000000 Ha           0.00000000 eV
  | Entropy correction            :           0.00000000 Ha           0.00000000 eV
  | ---------------------------
  | Total energy                  :        -306.19774659 Ha       -8332.06461557 eV
  | Total energy, T -> 0          :        -306.19774659 Ha       -8332.06461557 eV  <-- do not rely on this value for anything but (periodic) metals
  | Electronic free energy        :        -306.19774659 Ha       -8332.06461557 eV

  Derived energy quantities:
  | Kinetic energy                :         304.99384571 Ha        8299.30480565 eV
  | Electrostatic energy          :        -574.11948944 Ha      -15622.58617614 eV
  | Energy correction for multipole
  | error in Hartree potential    :          -0.00505536 Ha          -0.13756331 eV
  | Sum of eigenvalues per atom                           :        -379.88853079 eV
  | Total energy (T->0) per atom                          :        -694.33871796 eV  <-- do not rely on this value for anything but (periodic) metals
  | Electronic free energy per atom                       :        -694.33871796 eV

  Self-consistency convergence accuracy:
  | Change of charge density      : 0.2251E+00
  | Change of sum of eigenvalues  : -.4295E+01 eV
  | Change of total energy        : 0.1838E+00 eV

  End self-consistency iteration #     3       :  max(cpu_time)    wall_clock(cpu1)
  | Time for this iteration                    :        1.113 s           1.113 s
  | Charge density update                      :        0.352 s           0.351 s
  | Density mixing                             :        0.005 s           0.006 s
  | Hartree multipole update                   :        0.004 s           0.004 s
  | Hartree multipole summation                :        0.208 s           0.208 s
  | Integration                                :        0.510 s           0.511 s
  | Solution of K.-S. eqns.                    :        0.031 s           0.031 s
  | Total energy evaluation                    :        0.000 s           0.000 s
------------------------------------------------------------

------------------------------------------------------------
          Begin self-consistency iteration #    4

  Date     :  20150727, Time     :  122805.347
------------------------------------------------------------
  Evaluating new KS density.
  Integration grid: deviation in total charge (<rho> - N_e) =   2.131628E-14
  Pulay mixing of updated and previous charge densities.

  Evaluating partitioned Hartree potential by multipole expansion.
  | Analytical far-field extrapolation by fixed multipoles:
  | Hartree multipole sum: apparent total charge =  -0.476236E-05
  Summing up the Hartree potential.
  Time summed over all CPUs for potential: real work        1.653 s, elapsed        1.659 s
  | RMS charge density error from multipole expansion :   0.148747E-01

  Integrating Hamiltonian matrix: batch-based integration.
  Time summed over all CPUs for integration: real work        3.998 s, elapsed        4.076 s

  Updating Kohn-Sham eigenvalues, eigenvectors, occupation numbers, and Fermi level.
  Solving generalized eigenproblem
  Updating Kohn-Sham eigenvalues and eigenfunctions.
  Solving real generalised eigenvalue problem by standard LAPACK (fast)
  Determining occupation numbers for Kohn-Sham eigenstates.
  | Chemical potential (Fermi level) in eV                 : -.21754613E+01
  | Error in electron count due to remaining E_F inaccuracy: 0.30501184E-08
  | Maximum occupation number of highest empty state:  0.00E+00

  Highest occupied state (VBM) at     -5.39791060 eV
  | Occupation number:      2.00000000

  Lowest unoccupied state (CBM) at    -2.13353781 eV
  | Occupation number:      0.00000000

  Overall HOMO-LUMO gap:      3.26437279 eV.

  Total energy components:
  | Sum of eigenvalues            :        -166.29596880 Ha       -4525.14354794 eV
  | XC energy correction          :         -37.22348617 Ha       -1012.90259467 eV
  | XC potential correction       :          47.58216835 Ha        1294.77667843 eV
  | Free-atom electrostatic energy:        -143.23115593 Ha       -3897.51805637 eV
  | Hartree energy correction     :          -7.01941315 Ha        -191.00795011 eV
  | van der Waals energy corr.    :           0.00000000 Ha           0.00000000 eV
  | Entropy correction            :           0.00000000 Ha           0.00000000 eV
  | ---------------------------
  | Total energy                  :        -306.18785570 Ha       -8331.79547066 eV
  | Total energy, T -> 0          :        -306.18785570 Ha       -8331.79547066 eV  <-- do not rely on this value for anything but (periodic) metals
  | Electronic free energy        :        -306.18785570 Ha       -8331.79547066 eV

  Derived energy quantities:
  | Kinetic energy                :         305.15616267 Ha        8303.72167503 eV
  | Electrostatic energy          :        -574.12053220 Ha      -15622.61455102 eV
  | Energy correction for multipole
  | error in Hartree potential    :          -0.00657985 Ha          -0.17904686 eV
  | Sum of eigenvalues per atom                           :        -377.09529566 eV
  | Total energy (T->0) per atom                          :        -694.31628922 eV  <-- do not rely on this value for anything but (periodic) metals
  | Electronic free energy per atom                       :        -694.31628922 eV

  Self-consistency convergence accuracy:
  | Change of charge density      : 0.1230E+00
  | Change of sum of eigenvalues  : 0.3352E+02 eV
  | Change of total energy        : 0.2691E+00 eV

  End self-consistency iteration #     4       :  max(cpu_time)    wall_clock(cpu1)
  | Time for this iteration                    :        1.113 s           1.113 s
  | Charge density update                      :        0.351 s           0.351 s
  | Density mixing                             :        0.006 s           0.007 s
  | Hartree multipole update                   :        0.004 s           0.004 s
  | Hartree multipole summation                :        0.208 s           0.208 s
  | Integration                                :        0.510 s           0.511 s
  | Solution of K.-S. eqns.                    :        0.031 s           0.031 s
  | Total energy evaluation                    :        0.000 s           0.001 s
------------------------------------------------------------

------------------------------------------------------------
          Begin self-consistency iteration #    5

  Date     :  20150727, Time     :  122806.461
------------------------------------------------------------
  Evaluating new KS density.
  Integration grid: deviation in total charge (<rho> - N_e) =   3.050147E-09
  Pulay mixing of updated and previous charge densities.

  Evaluating partitioned Hartree potential by multipole expansion.
  | Analytical far-field extrapolation by fixed multipoles:
  | Hartree multipole sum: apparent total charge =  -0.474007E-05
  Summing up the Hartree potential.
  Time summed over all CPUs for potential: real work        1.653 s, elapsed        1.660 s
  | RMS charge density error from multipole expansion :   0.155471E-01

  Integrating Hamiltonian matrix: batch-based integration.
  Time summed over all CPUs for integration: real work        4.001 s, elapsed        4.076 s

  Updating Kohn-Sham eigenvalues, eigenvectors, occupation numbers, and Fermi level.
  Solving generalized eigenproblem
  Updating Kohn-Sham eigenvalues and eigenfunctions.
  Solving real generalised eigenvalue problem by standard LAPACK (fast)
  Determining occupation numbers for Kohn-Sham eigenstates.
  | Chemical potential (Fermi level) in eV                 : -.51158659E+01
  | Error in electron count due to remaining E_F inaccuracy: 0.00000000E+00
  | Maximum occupation number of highest empty state:  0.00E+00

  Highest occupied state (VBM) at     -5.17734320 eV
  | Occupation number:      2.00000000

  Lowest unoccupied state (CBM) at    -2.12810905 eV
  | Occupation number:      0.00000000

  Overall HOMO-LUMO gap:      3.04923415 eV.

  Total energy components:
  | Sum of eigenvalues            :        -166.16073209 Ha       -4521.46356975 eV
  | XC energy correction          :         -37.24330474 Ha       -1013.44188524 eV
  | XC potential correction       :          47.60766329 Ha        1295.47043091 eV
  | Free-atom electrostatic energy:        -143.23115593 Ha       -3897.51805637 eV
  | Hartree energy correction     :          -7.16013580 Ha        -194.83720842 eV
  | van der Waals energy corr.    :           0.00000000 Ha           0.00000000 eV
  | Entropy correction            :           0.00000000 Ha           0.00000000 eV
  | ---------------------------
  | Total energy                  :        -306.18766527 Ha       -8331.79028886 eV
  | Total energy, T -> 0          :        -306.18766527 Ha       -8331.79028886 eV  <-- do not rely on this value for anything but (periodic) metals
  | Electronic free energy        :        -306.18766527 Ha       -8331.79028886 eV

  Derived energy quantities:
  | Kinetic energy                :         305.19739716 Ha        8304.84372260 eV
  | Electrostatic energy          :        -574.14175770 Ha      -15623.19212623 eV
  | Energy correction for multipole
  | error in Hartree potential    :          -0.00677245 Ha          -0.18428773 eV
  | Sum of eigenvalues per atom                           :        -376.78863081 eV
  | Total energy (T->0) per atom                          :        -694.31585741 eV  <-- do not rely on this value for anything but (periodic) metals
  | Electronic free energy per atom                       :        -694.31585741 eV

  Self-consistency convergence accuracy:
  | Change of charge density      : 0.2990E-01
  | Change of sum of eigenvalues  : 0.3680E+01 eV
  | Change of total energy        : 0.5182E-02 eV

  End self-consistency iteration #     5       :  max(cpu_time)    wall_clock(cpu1)
  | Time for this iteration                    :        1.139 s           1.139 s
  | Charge density update                      :        0.376 s           0.376 s
  | Density mixing                             :        0.008 s           0.007 s
  | Hartree multipole update                   :        0.004 s           0.005 s
  | Hartree multipole summation                :        0.208 s           0.208 s
  | Integration                                :        0.511 s           0.510 s
  | Solution of K.-S. eqns.                    :        0.031 s           0.032 s
  | Total energy evaluation                    :        0.000 s           0.001 s
------------------------------------------------------------

------------------------------------------------------------
          Begin self-consistency iteration #    6

  Date     :  20150727, Time     :  122807.601
------------------------------------------------------------
  Evaluating new KS density.
  Integration grid: deviation in total charge (<rho> - N_e) =  -1.421085E-14
  Pulay mixing of updated and previous charge densities.

  Evaluating partitioned Hartree potential by multipole expansion.
  | Analytical far-field extrapolation by fixed multipoles:
  | Hartree multipole sum: apparent total charge =  -0.473685E-05
  Summing up the Hartree potential.
  Time summed over all CPUs for potential: real work        1.653 s, elapsed        1.659 s
  | RMS charge density error from multipole expansion :   0.158951E-01

  Integrating Hamiltonian matrix: batch-based integration.
  Time summed over all CPUs for integration: real work        3.999 s, elapsed        4.071 s

  Updating Kohn-Sham eigenvalues, eigenvectors, occupation numbers, and Fermi level.
  Solving generalized eigenproblem
  Updating Kohn-Sham eigenvalues and eigenfunctions.
  Solving real generalised eigenvalue problem by standard LAPACK (fast)
  Determining occupation numbers for Kohn-Sham eigenstates.
  | Chemical potential (Fermi level) in eV                 : -.24093320E+01
  | Error in electron count due to remaining E_F inaccuracy: 0.00000000E+00
  | Maximum occupation number of highest empty state:  0.00E+00

  Highest occupied state (VBM) at     -5.10808835 eV
  | Occupation number:      2.00000000

  Lowest unoccupied state (CBM) at    -2.11890377 eV
  | Occupation number:      0.00000000

  Overall HOMO-LUMO gap:      2.98918458 eV.

  Total energy components:
  | Sum of eigenvalues            :        -166.07888451 Ha       -4519.23638367 eV
  | XC energy correction          :         -37.25467648 Ha       -1013.75132618 eV
  | XC potential correction       :          47.62235740 Ha        1295.87027803 eV
  | Free-atom electrostatic energy:        -143.23115593 Ha       -3897.51805637 eV
  | Hartree energy correction     :          -7.24544783 Ha        -197.15866675 eV
  | van der Waals energy corr.    :           0.00000000 Ha           0.00000000 eV
  | Entropy correction            :           0.00000000 Ha           0.00000000 eV
  | ---------------------------
  | Total energy                  :        -306.18780735 Ha       -8331.79415493 eV
  | Total energy, T -> 0          :        -306.18780735 Ha       -8331.79415493 eV  <-- do not rely on this value for anything but (periodic) metals
  | Electronic free energy        :        -306.18780735 Ha       -8331.79415493 eV

  Derived energy quantities:
  | Kinetic energy                :         305.21780324 Ha        8305.39900031 eV
  | Electrostatic energy          :        -574.15093411 Ha      -15623.44182906 eV
  | Energy correction for multipole
  | error in Hartree potential    :          -0.00687531 Ha          -0.18708669 eV
  | Sum of eigenvalues per atom                           :        -376.60303197 eV
  | Total energy (T->0) per atom                          :        -694.31617958 eV  <-- do not rely on this value for anything but (periodic) metals
  | Electronic free energy per atom                       :        -694.31617958 eV

  Self-consistency convergence accuracy:
  | Change of charge density      : 0.1028E-01
  | Change of sum of eigenvalues  : 0.2227E+01 eV
  | Change of total energy        : -.3866E-02 eV

  End self-consistency iteration #     6       :  max(cpu_time)    wall_clock(cpu1)
  | Time for this iteration                    :        1.115 s           1.114 s
  | Charge density update                      :        0.352 s           0.351 s
  | Density mixing                             :        0.008 s           0.009 s
  | Hartree multipole update                   :        0.005 s           0.004 s
  | Hartree multipole summation                :        0.208 s           0.208 s
  | Integration                                :        0.510 s           0.510 s
  | Solution of K.-S. eqns.                    :        0.031 s           0.031 s
  | Total energy evaluation                    :        0.000 s           0.001 s
------------------------------------------------------------

------------------------------------------------------------
          Begin self-consistency iteration #    7

  Date     :  20150727, Time     :  122808.716
------------------------------------------------------------
  Evaluating new KS density.
  Integration grid: deviation in total charge (<rho> - N_e) =   7.105427E-15
  Pulay mixing of updated and previous charge densities.

  Evaluating partitioned Hartree potential by multipole expansion.
  | Analytical far-field extrapolation by fixed multipoles:
  | Hartree multipole sum: apparent total charge =  -0.455168E-05
  Summing up the Hartree potential.
  Time summed over all CPUs for potential: real work        1.653 s, elapsed        1.659 s
  | RMS charge density error from multipole expansion :   0.157203E-01

  Integrating Hamiltonian matrix: batch-based integration.
  Time summed over all CPUs for integration: real work        3.999 s, elapsed        4.074 s

  Updating Kohn-Sham eigenvalues, eigenvectors, occupation numbers, and Fermi level.
  Solving generalized eigenproblem
  Updating Kohn-Sham eigenvalues and eigenfunctions.
  Solving real generalised eigenvalue problem by standard LAPACK (fast)
  Determining occupation numbers for Kohn-Sham eigenstates.
  | Chemical potential (Fermi level) in eV                 : -.21729115E+01
  | Error in electron count due to remaining E_F inaccuracy: 0.51869620E-12
  | Maximum occupation number of highest empty state:  0.00E+00

  Highest occupied state (VBM) at     -5.28792758 eV
  | Occupation number:      2.00000000

  Lowest unoccupied state (CBM) at    -2.12186198 eV
  | Occupation number:      0.00000000

  Overall HOMO-LUMO gap:      3.16606560 eV.

  Total energy components:
  | Sum of eigenvalues            :        -166.23352905 Ha       -4523.44447572 eV
  | XC energy correction          :         -37.23683808 Ha       -1013.26591846 eV
  | XC potential correction       :          47.59862151 Ha        1295.22439154 eV
  | Free-atom electrostatic energy:        -143.23115593 Ha       -3897.51805637 eV
  | Hartree energy correction     :          -7.08469773 Ha        -192.78443412 eV
  | van der Waals energy corr.    :           0.00000000 Ha           0.00000000 eV
  | Entropy correction            :           0.00000000 Ha           0.00000000 eV
  | ---------------------------
  | Total energy                  :        -306.18759928 Ha       -8331.78849312 eV
  | Total energy, T -> 0          :        -306.18759928 Ha       -8331.78849312 eV  <-- do not rely on this value for anything but (periodic) metals
  | Electronic free energy        :        -306.18759928 Ha       -8331.78849312 eV

  Derived energy quantities:
  | Kinetic energy                :         305.25283958 Ha        8306.35238749 eV
  | Electrostatic energy          :        -574.20360078 Ha      -15624.87496215 eV
  | Energy correction for multipole
  | error in Hartree potential    :          -0.00660011 Ha          -0.17959801 eV
  | Sum of eigenvalues per atom                           :        -376.95370631 eV
  | Total energy (T->0) per atom                          :        -694.31570776 eV  <-- do not rely on this value for anything but (periodic) metals
  | Electronic free energy per atom                       :        -694.31570776 eV

  Self-consistency convergence accuracy:
  | Change of charge density      : 0.1376E-01
  | Change of sum of eigenvalues  : -.4208E+01 eV
  | Change of total energy        : 0.5662E-02 eV

  End self-consistency iteration #     7       :  max(cpu_time)    wall_clock(cpu1)
  | Time for this iteration                    :        1.117 s           1.116 s
  | Charge density update                      :        0.352 s           0.351 s
  | Density mixing                             :        0.010 s           0.010 s
  | Hartree multipole update                   :        0.004 s           0.004 s
  | Hartree multipole summation                :        0.208 s           0.208 s
  | Integration                                :        0.511 s           0.511 s
  | Solution of K.-S. eqns.                    :        0.031 s           0.031 s
  | Total energy evaluation                    :        0.000 s           0.001 s
------------------------------------------------------------

------------------------------------------------------------
          Begin self-consistency iteration #    8

  Date     :  20150727, Time     :  122809.833
------------------------------------------------------------
  Evaluating new KS density.
  Integration grid: deviation in total charge (<rho> - N_e) =   5.542233E-13
  Pulay mixing of updated and previous charge densities.

  Evaluating partitioned Hartree potential by multipole expansion.
  | Analytical far-field extrapolation by fixed multipoles:
  | Hartree multipole sum: apparent total charge =  -0.453964E-05
  Summing up the Hartree potential.
  Time summed over all CPUs for potential: real work        1.653 s, elapsed        1.659 s
  | RMS charge density error from multipole expansion :   0.157346E-01

  Integrating Hamiltonian matrix: batch-based integration.
  Time summed over all CPUs for integration: real work        4.003 s, elapsed        4.088 s

  Updating Kohn-Sham eigenvalues, eigenvectors, occupation numbers, and Fermi level.
  Solving generalized eigenproblem
  Updating Kohn-Sham eigenvalues and eigenfunctions.
  Solving real generalised eigenvalue problem by standard LAPACK (fast)
  Determining occupation numbers for Kohn-Sham eigenstates.
  | Chemical potential (Fermi level) in eV                 : -.21746202E+01
  | Error in electron count due to remaining E_F inaccuracy: 0.11652901E-11
  | Maximum occupation number of highest empty state:  0.00E+00

  Highest occupied state (VBM) at     -5.28106188 eV
  | Occupation number:      2.00000000

  Lowest unoccupied state (CBM) at    -2.12435002 eV
  | Occupation number:      0.00000000

  Overall HOMO-LUMO gap:      3.15671186 eV.

  Total energy components:
  | Sum of eigenvalues            :        -166.23652682 Ha       -4523.52604914 eV
  | XC energy correction          :         -37.23657794 Ha       -1013.25883981 eV
  | XC potential correction       :          47.59824802 Ha        1295.21422833 eV
  | Free-atom electrostatic energy:        -143.23115593 Ha       -3897.51805637 eV
  | Hartree energy correction     :          -7.08158478 Ha        -192.69972635 eV
  | van der Waals energy corr.    :           0.00000000 Ha           0.00000000 eV
  | Entropy correction            :           0.00000000 Ha           0.00000000 eV
  | ---------------------------
  | Total energy                  :        -306.18759745 Ha       -8331.78844335 eV
  | Total energy, T -> 0          :        -306.18759745 Ha       -8331.78844335 eV  <-- do not rely on this value for anything but (periodic) metals
  | Electronic free energy        :        -306.18759745 Ha       -8331.78844335 eV

  Derived energy quantities:
  | Kinetic energy                :         305.25653330 Ha        8306.45289885 eV
  | Electrostatic energy          :        -574.20755281 Ha      -15624.98250239 eV
  | Energy correction for multipole
  | error in Hartree potential    :          -0.00660150 Ha          -0.17963602 eV
  | Sum of eigenvalues per atom                           :        -376.96050410 eV
  | Total energy (T->0) per atom                          :        -694.31570361 eV  <-- do not rely on this value for anything but (periodic) metals
  | Electronic free energy per atom                       :        -694.31570361 eV

  Self-consistency convergence accuracy:
  | Change of charge density      : 0.1631E-02
  | Change of sum of eigenvalues  : -.8157E-01 eV
  | Change of total energy        : 0.4977E-04 eV

  End self-consistency iteration #     8       :  max(cpu_time)    wall_clock(cpu1)
  | Time for this iteration                    :        1.144 s           1.143 s
  | Charge density update                      :        0.376 s           0.375 s
  | Density mixing                             :        0.011 s           0.011 s
  | Hartree multipole update                   :        0.004 s           0.004 s
  | Hartree multipole summation                :        0.208 s           0.208 s
  | Integration                                :        0.512 s           0.512 s
  | Solution of K.-S. eqns.                    :        0.031 s           0.031 s
  | Total energy evaluation                    :        0.000 s           0.000 s
------------------------------------------------------------

------------------------------------------------------------
          Begin self-consistency iteration #    9

  Date     :  20150727, Time     :  122810.976
------------------------------------------------------------
  Evaluating new KS density.
  Integration grid: deviation in total charge (<rho> - N_e) =   1.158185E-12
  Pulay mixing of updated and previous charge densities.

  Evaluating partitioned Hartree potential by multipole expansion.
  | Analytical far-field extrapolation by fixed multipoles:
  | Hartree multipole sum: apparent total charge =  -0.453330E-05
  Summing up the Hartree potential.
  Time summed over all CPUs for potential: real work        1.653 s, elapsed        1.659 s
  | RMS charge density error from multipole expansion :   0.157383E-01

  Integrating Hamiltonian matrix: batch-based integration.
  Time summed over all CPUs for integration: real work        4.001 s, elapsed        4.089 s

  Updating Kohn-Sham eigenvalues, eigenvectors, occupation numbers, and Fermi level.
  Solving generalized eigenproblem
  Updating Kohn-Sham eigenvalues and eigenfunctions.
  Solving real generalised eigenvalue problem by standard LAPACK (fast)
  Determining occupation numbers for Kohn-Sham eigenstates.
  | Chemical potential (Fermi level) in eV                 : -.21748562E+01
  | Error in electron count due to remaining E_F inaccuracy: 0.10231815E-11
  | Maximum occupation number of highest empty state:  0.00E+00

  Highest occupied state (VBM) at     -5.28618324 eV
  | Occupation number:      2.00000000

  Lowest unoccupied state (CBM) at    -2.12445987 eV
  | Occupation number:      0.00000000

  Overall HOMO-LUMO gap:      3.16172337 eV.

  Total energy components:
  | Sum of eigenvalues            :        -166.23813457 Ha       -4523.56979834 eV
  | XC energy correction          :         -37.23641232 Ha       -1013.25433294 eV
  | XC potential correction       :          47.59801418 Ha        1295.20786538 eV
  | Free-atom electrostatic energy:        -143.23115593 Ha       -3897.51805637 eV
  | Hartree energy correction     :          -7.07990849 Ha        -192.65411216 eV
  | van der Waals energy corr.    :           0.00000000 Ha           0.00000000 eV
  | Entropy correction            :           0.00000000 Ha           0.00000000 eV
  | ---------------------------
  | Total energy                  :        -306.18759712 Ha       -8331.78843442 eV
  | Total energy, T -> 0          :        -306.18759712 Ha       -8331.78843442 eV  <-- do not rely on this value for anything but (periodic) metals
  | Electronic free energy        :        -306.18759712 Ha       -8331.78843442 eV

  Derived energy quantities:
  | Kinetic energy                :         305.25947338 Ha        8306.53290249 eV
  | Electrostatic energy          :        -574.21065819 Ha      -15625.06700398 eV
  | Energy correction for multipole
  | error in Hartree potential    :          -0.00659621 Ha          -0.17949205 eV
  | Sum of eigenvalues per atom                           :        -376.96414986 eV
  | Total energy (T->0) per atom                          :        -694.31570287 eV  <-- do not rely on this value for anything but (periodic) metals
  | Electronic free energy per atom                       :        -694.31570287 eV

  Self-consistency convergence accuracy:
  | Change of charge density      : 0.8838E-03
  | Change of sum of eigenvalues  : -.4375E-01 eV
  | Change of total energy        : 0.8925E-05 eV

  End self-consistency iteration #     9       :  max(cpu_time)    wall_clock(cpu1)
  | Time for this iteration                    :        1.144 s           1.144 s
  | Charge density update                      :        0.375 s           0.375 s
  | Density mixing                             :        0.012 s           0.012 s
  | Hartree multipole update                   :        0.005 s           0.004 s
  | Hartree multipole summation                :        0.208 s           0.208 s
  | Integration                                :        0.512 s           0.513 s
  | Solution of K.-S. eqns.                    :        0.031 s           0.031 s
  | Total energy evaluation                    :        0.000 s           0.001 s
------------------------------------------------------------

------------------------------------------------------------
          Begin self-consistency iteration #   10

  Date     :  20150727, Time     :  122812.121
------------------------------------------------------------
  Evaluating new KS density.
  Integration grid: deviation in total charge (<rho> - N_e) =   1.030287E-12
  Pulay mixing of updated and previous charge densities.

  Evaluating partitioned Hartree potential by multipole expansion.
  | Analytical far-field extrapolation by fixed multipoles:
  | Hartree multipole sum: apparent total charge =  -0.452853E-05
  Summing up the Hartree potential.
  Time summed over all CPUs for potential: real work        1.653 s, elapsed        1.659 s
  | RMS charge density error from multipole expansion :   0.157485E-01

  Integrating Hamiltonian matrix: batch-based integration.
  Time summed over all CPUs for integration: real work        4.000 s, elapsed        4.072 s

  Updating Kohn-Sham eigenvalues, eigenvectors, occupation numbers, and Fermi level.
  Solving generalized eigenproblem
[...]
  |                                 -0.00921419       0.13281333       0.00507731
  |                                 -0.00844261       0.00507731       0.12513892
  ----------------------------------------------------------------------


  Total energy components:
  | Sum of eigenvalues            :        -166.23787895 Ha       -4523.56284269 eV
  | XC energy correction          :         -37.23643313 Ha       -1013.25489923 eV
  | XC potential correction       :          47.59802355 Ha        1295.20812026 eV
  | Free-atom electrostatic energy:        -143.23115593 Ha       -3897.51805637 eV
  | Hartree energy correction     :          -7.08015207 Ha        -192.66074031 eV
  | van der Waals energy corr.    :          -0.00122062 Ha          -0.03321468 eV
  | Entropy correction            :           0.00000000 Ha           0.00000000 eV
  | ---------------------------
  | Total energy                  :        -306.18881715 Ha       -8331.82163302 eV
  | Total energy, T -> 0          :        -306.18881715 Ha       -8331.82163302 eV  <-- do not rely on this value for anything but (periodic) metals
  | Electronic free energy        :        -306.18881715 Ha       -8331.82163302 eV

  Derived energy quantities:
  | Kinetic energy                :         305.26182087 Ha        8306.59678091 eV
  | Electrostatic energy          :        -574.21298428 Ha      -15625.13030002 eV
  | Energy correction for multipole
  | error in Hartree potential    :          -0.00660272 Ha          -0.17966911 eV
  | Sum of eigenvalues per atom                           :        -376.96357022 eV
  | Total energy (T->0) per atom                          :        -694.31846942 eV  <-- do not rely on this value for anything but (periodic) metals
  | Electronic free energy per atom                       :        -694.31846942 eV

  atomic forces [eV/Ang]:
  -----------------------
  atom #    1
   Hellmann-Feynman + Multipole  : -.707691E+01 -.109978E+02 0.339085E+01
   Pulay + GGA                   : 0.777079E+01 0.136179E+02 -.436464E+01
   Van der Waals               : 0.106389E-02 -.106711E-02 0.425701E-02
   ----------------------------------------------------------------
   Total forces(   1)            : 0.694944E+00 0.261904E+01 -.969531E+00
  atom #    2
   Hellmann-Feynman + Multipole  : 0.188658E+01 -.306728E+01 0.133617E+01
   Pulay + GGA                   : -.301780E-02 0.614071E-01 -.365436E-01
   Van der Waals               : 0.895580E-04 0.819463E-03 0.263289E-02
   ----------------------------------------------------------------
   Total forces(   2)            : 0.188365E+01 -.300506E+01 0.130226E+01
  atom #    3
   Hellmann-Feynman + Multipole  : -.220770E+01 -.537053E+00 -.680301E-01
   Pulay + GGA                   : 0.128174E+00 0.607459E-01 -.646813E-02
   Van der Waals               : 0.538446E-04 0.126071E-02 0.173881E-02
   ----------------------------------------------------------------
   Total forces(   3)            : -.207947E+01 -.475046E+00 -.727594E-01
  atom #    4
   Hellmann-Feynman + Multipole  : -.620831E+01 -.904616E+01 0.929289E+01
   Pulay + GGA                   : 0.640225E+01 0.100756E+02 -.670213E+01
   Van der Waals               : -.285978E-02 0.536935E-02 0.407013E-02
   ----------------------------------------------------------------
   Total forces(   4)            : 0.191078E+00 0.103485E+01 0.259483E+01
  atom #    5
   Hellmann-Feynman + Multipole  : -.452394E+00 -.808476E+00 -.498281E+00
   Pulay + GGA                   : 0.511589E-01 0.127087E+00 0.407315E-01
   Van der Waals               : -.202039E-04 0.168178E-02 0.414779E-02
   ----------------------------------------------------------------
   Total forces(   5)            : -.401256E+00 -.679707E+00 -.453402E+00
  atom #    6
   Hellmann-Feynman + Multipole  : -.253554E+00 0.406073E+00 -.233933E+01
   Pulay + GGA                   : -.363875E-01 0.391655E-01 -.122999E+00
   Van der Waals               : 0.633510E-03 -.209954E-03 0.961737E-03
   ----------------------------------------------------------------
   Total forces(   6)            : -.289308E+00 0.445028E+00 -.246137E+01
  atom #    7
   Hellmann-Feynman + Multipole  : 0.601818E+01 -.784693E+01 -.103533E+02
   Pulay + GGA                   : -.660668E+01 0.874440E+01 0.123729E+02
   Van der Waals               : 0.605672E-03 -.352989E-02 -.349572E-02
   ----------------------------------------------------------------
   Total forces(   7)            : -.587897E+00 0.893946E+00 0.201609E+01
  atom #    8
   Hellmann-Feynman + Multipole  : -.370937E+00 0.204697E+00 -.237588E+01
   Pulay + GGA                   : 0.156167E-01 0.221636E-01 0.139196E+00
   Van der Waals               : -.126297E-02 0.122991E-02 -.182617E-02
   ----------------------------------------------------------------
   Total forces(   8)            : -.356584E+00 0.228090E+00 -.223851E+01
  atom #    9
   Hellmann-Feynman + Multipole  : 0.152002E+01 -.168033E+01 0.535923E+00
   Pulay + GGA                   : -.463647E-01 0.757150E-01 0.726813E-02
   Van der Waals               : 0.786825E-03 -.184829E-02 -.222209E-02
   ----------------------------------------------------------------
   Total forces(   9)            : 0.147444E+01 -.160646E+01 0.540969E+00
  atom #   10
   Hellmann-Feynman + Multipole  : -.132606E+01 -.137521E+02 0.279142E+00
   Pulay + GGA                   : 0.212192E+01 0.144416E+02 -.245348E+01
   Van der Waals               : 0.351123E-03 -.165848E-02 -.557990E-02
   ----------------------------------------------------------------
   Total forces(  10)            : 0.796214E+00 0.687862E+00 -.217991E+01
  atom #   11
   Hellmann-Feynman + Multipole  : -.285004E+00 0.555805E+00 0.298679E+00
   Pulay + GGA                   : -.804512E-01 0.932034E-01 0.708089E-01
   Van der Waals               : 0.156677E-02 -.180152E-02 -.981915E-04
   ----------------------------------------------------------------
   Total forces(  11)            : -.363888E+00 0.647206E+00 0.369389E+00
  atom #   12
   Hellmann-Feynman + Multipole  : -.992983E+00 -.858754E+00 0.168914E+01
   Pulay + GGA                   : 0.425569E-01 0.741057E-01 -.124325E+00
   Van der Waals               : -.100823E-02 -.245956E-03 -.458629E-02
   ----------------------------------------------------------------
   Total forces(  12)            : -.951434E+00 -.784894E+00 0.156023E+01
  Timings for vdw_correction_hirshfeld (Tkatchenko-Scheffler 2009):
  | CPU time:        3.092 s, Wall clock time:        3.094 s.
  Removing unitary transformations (pure translations, rotations) from forces on atoms.
  Atomic forces before filtering:
  | Net force on center of mass :  0.105002E-01 0.486049E-02 0.828074E-02 eV/A
  | Net torque on center of mass:  -.243116E-01 -.142933E-01 0.113837E-01 eV
  Atomic forces after filtering:
  | Net force on center of mass :  -.178406E-15 0.446015E-15 0.535218E-15 eV/A
  | Net torque on center of mass:  0.302107E-14 0.000000E+00 0.377634E-15 eV
 
  Energy and forces in a compact form:
  | Total energy uncorrected      :         -0.833182163302149E+04 eV
  | Total energy corrected        :         -0.833182163302149E+04 eV  <-- do not rely on this value for anything but (periodic) metals
  | Electronic free energy        :         -0.833182163302149E+04 eV
  Total atomic forces (unitary forces cleaned) [eV/Ang]:
  |   1          0.693218249018907E+00          0.261887741905186E+01         -0.970978757235434E+00
  |   2          0.188216377858654E+01         -0.300494358275852E+01          0.130114897517256E+01
  |   3         -0.208110698281362E+01         -0.475525112407201E+00         -0.742352406483253E-01
  |   4          0.189914243864103E+00          0.103531042607470E+01          0.259416169819767E+01
  |   5         -0.402136288837516E+00         -0.679496350903309E+00         -0.453875244402549E+00
  |   6         -0.290529052685729E+00          0.445805919203871E+00         -0.246197576229476E+01
  |   7         -0.588613923494182E+00          0.892582723017737E+00          0.201521055169350E+01
  |   8         -0.357208010847265E+00          0.226379361717207E+00         -0.223942272263115E+01
  |   9          0.147393378595554E+01         -0.160755583950792E+01          0.540392422647321E+00
  |  10          0.795930908361887E+00          0.687296194954696E+00         -0.218007402297641E+01
  |  11         -0.363908141186125E+00          0.646638266205900E+00          0.369489223053627E+00
  |  12         -0.951658565922544E+00         -0.785369424649025E+00          0.156015887942393E+01
 
  ------------------------------------ 
  Start decomposition of the XC Energy 
  ------------------------------------ 
  Hartree-Fock part   :          0.000000000 Ha              0.000000000 eV
  ------------------------------------ 
  X Energy            :        -35.930517510 Ha           -977.719127249 eV
  C Energy GGA        :         -1.305915617 Ha            -35.535771978 eV
  Total XC Energy     :        -37.236433127 Ha          -1013.254899227 eV
  LDA X and C from self-consistent density 
  X Energy LDA        :        -32.372274649 Ha           -880.894412606 eV
  C Energy LDA        :         -2.637101925 Ha            -71.759194435 eV
  ------------------------------------ 
  End decomposition of the XC Energy 
  ------------------------------------ 
  Performing Hirshfeld analysis of fragment charges and moments.
  ----------------------------------------------------------------------
  | Atom     1: O
  |   Hirshfeld charge        :     -0.36572732
  |   Free atom volume        :     23.95238533
  |   Hirshfeld volume        :     24.09099526
  |   Hirshfeld dipole vector :      0.02355268       0.06314149      -0.00594255
  |   Hirshfeld dipole moment :      0.06765272
  |   Hirshfeld second moments:      0.02188763      -0.01813119       0.02504077
  |                                 -0.01813119      -0.06011045      -0.02272273
  |                                  0.02504077      -0.02272273      -0.10330619
  ----------------------------------------------------------------------
  | Atom     2: H
  |   Hirshfeld charge        :      0.06966263
  |   Free atom volume        :     10.44207651
  |   Hirshfeld volume        :      8.27827322
  |   Hirshfeld dipole vector :     -0.02393827       0.03905077      -0.01548345
  |   Hirshfeld dipole moment :      0.04835019
  |   Hirshfeld second moments:      0.07732320       0.03119408      -0.00039919
  |                                  0.03119408       0.03029255       0.01392674
  |                                 -0.00039919       0.01392674       0.06159091
  ----------------------------------------------------------------------
  | Atom     3: H
  |   Hirshfeld charge        :      0.10384189
  |   Free atom volume        :     10.44207651
  |   Hirshfeld volume        :      7.48768169
  |   Hirshfeld dipole vector :      0.11830113       0.02878685       0.01013825
  |   Hirshfeld dipole moment :      0.12217456
  |   Hirshfeld second moments:      0.09495529      -0.01249803       0.00525259
  |                                 -0.01249803       0.09041364      -0.01226208
  |                                  0.00525259      -0.01226208       0.06693085
  ----------------------------------------------------------------------
  | Atom     4: O
  |   Hirshfeld charge        :     -0.16823614
  |   Free atom volume        :     23.95238533
  |   Hirshfeld volume        :     19.78573596
  |   Hirshfeld dipole vector :      0.02735901      -0.01100706      -0.01506996
  |   Hirshfeld dipole moment :      0.03311759
  |   Hirshfeld second moments:      0.05464932       0.02057100       0.02865651
  |                                  0.02057100       0.09806376       0.01204426
  |                                  0.02865651       0.01204426       0.11423408
  ----------------------------------------------------------------------
  | Atom     5: H
  |   Hirshfeld charge        :      0.18089716
  |   Free atom volume        :     10.44207651
  |   Hirshfeld volume        :      5.81670275
  |   Hirshfeld dipole vector :      0.06024459       0.09080054       0.04313775
  |   Hirshfeld dipole moment :      0.11719647
  |   Hirshfeld second moments:      0.12202962      -0.00043918       0.00505464
  |                                 -0.00043918       0.12730602      -0.00414055
  |                                  0.00505464      -0.00414055       0.14126579
  ----------------------------------------------------------------------
  | Atom     6: H
  |   Hirshfeld charge        :      0.17794045
  |   Free atom volume        :     10.44207651
  |   Hirshfeld volume        :      5.52861967
  |   Hirshfeld dipole vector :     -0.01893452       0.00837826      -0.12071889
  |   Hirshfeld dipole moment :      0.12248168
  |   Hirshfeld second moments:      0.13083406       0.01091162       0.00788152
  |                                  0.01091162       0.14461983       0.00458929
  |                                  0.00788152       0.00458929       0.13208291
  ----------------------------------------------------------------------
  | Atom     7: O
  |   Hirshfeld charge        :     -0.34311469
  |   Free atom volume        :     23.95238533
  |   Hirshfeld volume        :     23.40982434
  |   Hirshfeld dipole vector :     -0.03884141       0.02577580       0.04067725
  |   Hirshfeld dipole moment :      0.06186829
  |   Hirshfeld second moments:     -0.05059106      -0.04373830       0.03041121
  |                                 -0.04373830      -0.05080289      -0.02386737
  |                                  0.03041121      -0.02386737       0.01809758
  ----------------------------------------------------------------------
  | Atom     8: H
  |   Hirshfeld charge        :      0.11935270
  |   Free atom volume        :     10.44207651
  |   Hirshfeld volume        :      6.95601839
  |   Hirshfeld dipole vector :      0.01528780      -0.01353191       0.12243613
  |   Hirshfeld dipole moment :      0.12412669
  |   Hirshfeld second moments:      0.09719727      -0.01909010       0.00686815
  |                                 -0.01909010       0.09631656      -0.00457313
  |                                  0.00686815      -0.00457313       0.09453092
  ----------------------------------------------------------------------
  | Atom     9: H
  |   Hirshfeld charge        :      0.07004290
  |   Free atom volume        :     10.44207651
  |   Hirshfeld volume        :      8.14261610
  |   Hirshfeld dipole vector :     -0.03869889       0.03525097       0.00341234
  |   Hirshfeld dipole moment :      0.05245836
  |   Hirshfeld second moments:      0.03902120       0.01780922      -0.01439146
  |                                  0.01780922       0.04247342       0.00782042
  |                                 -0.01439146       0.00782042       0.09648211
  ----------------------------------------------------------------------
  | Atom    10: O
  |   Hirshfeld charge        :     -0.18848698
  |   Free atom volume        :     23.95238533
  |   Hirshfeld volume        :     20.17111669
  |   Hirshfeld dipole vector :      0.02280567       0.01099191       0.01769879
  |   Hirshfeld dipole moment :      0.03088961
  |   Hirshfeld second moments:      0.05833940      -0.02051507      -0.04310167
  |                                 -0.02051507       0.07142044      -0.00598231
  |                                 -0.04310167      -0.00598231       0.09346808
  ----------------------------------------------------------------------
  | Atom    11: H
  |   Hirshfeld charge        :      0.16963894
  |   Free atom volume        :     10.44207651
  |   Hirshfeld volume        :      5.55937644
  |   Hirshfeld dipole vector :     -0.05965380       0.08147377       0.06954115
  |   Hirshfeld dipole moment :      0.12260719
  |   Hirshfeld second moments:      0.12880583       0.00072202      -0.01035553
  |                                  0.00072202       0.13091309      -0.01189498
  |                                 -0.01035553      -0.01189498       0.13886988
  ----------------------------------------------------------------------
  | Atom    12: H
  |   Hirshfeld charge        :      0.17411383
  |   Free atom volume        :     10.44207651
  |   Hirshfeld volume        :      5.96297433
  |   Hirshfeld dipole vector :      0.05859223       0.05078674      -0.08796047
  |   Hirshfeld dipole moment :      0.11725778
  |   Hirshfeld second moments:      0.11959563      -0.00921419      -0.00844261
  |                                 -0.00921419       0.13281333       0.00507731
  |                                 -0.00844261       0.00507731       0.12513892
  ----------------------------------------------------------------------


------------------------------------------------------------------------------
  Final output of selected total energy values:

  The following output summarizes some interesting total energy values
  at the end of a run (AFTER all relaxation, molecular dynamics, etc.).

  | Total energy of the DFT / Hartree-Fock s.c.f. calculation      :          -8331.821633021 eV
  | Final zero-broadening corrected energy (caution - metals only) :          -8331.821633021 eV
  | For reference only, the value of 1 Hartree used in FHI-aims is :             27.211384500 eV

  Before relying on these values, please be sure to understand exactly which
  total energy value is referred to by a given number. Different objects may
  all carry the same name 'total energy'. Definitions:

  Total energy of the DFT / Hartree-Fock s.c.f. calculation:
  | Note that this energy does not include ANY quantities calculated after the
  | s.c.f. cycle, in particular not ANY RPA, MP2, etc. many-body perturbation terms.

  Final zero-broadening corrected energy:
  | For metallic systems only, a broadening of the occupation numbers at the Fermi
  | level can be extrapolated back to zero broadening by an electron-gas inspired
  | formula. For all systems that are not real metals, this value can be
  | meaningless and should be avoided.

------------------------------------------------------------------------------

------------------------------------------------------------
          Leaving FHI-aims.
          Date     :  20150727, Time     :  122822.529

          Computational steps:
          | Number of self-consistency cycles          :           16

          Detailed time accounting                     :  max(cpu_time)    wall_clock(cpu1)
          | Total time                                 :       22.202 s          22.247 s
          | Preparation time                           :        0.170 s           0.485 s
          | Grid partitioning                          :        0.113 s           0.112 s
          | Preloading free-atom quantities on grid    :        0.014 s           0.013 s
          | Free-atom superposition energy             :        0.046 s           0.046 s
          | Total time for integrations                :        8.953 s           8.956 s
          | Total time for solution of K.-S. equations :        0.614 s           0.618 s
          | Total time for density & force components  :        7.484 s           7.473 s
          | Total time for mixing                      :        0.159 s           0.163 s
          | Total time for Hartree multipole update    :        0.068 s           0.069 s
          | Total time for Hartree multipole sum       :        4.018 s           4.020 s
          | Total time for total energy evaluation     :        0.003 s           0.020 s
          | Total time for scaled ZORA corrections     :        0.000 s           0.000 s
          | Total time for TS (2009) vdW correction    :        0.037 s           0.041 s

          Have a nice day.
------------------------------------------------------------
