  MPI-parallelism will be employed.
------------------------------------------------------------
          Invoking FHI-aims ...
          Version 081213
          Compiled on 2013/08/29 at 17:41:06 on host generoso.

          When using FHI-aims, please cite the following reference:

          Volker Blum, Ralf Gehrke, Felix Hanke, Paula Havu,
          Ville Havu, Xinguo Ren, Karsten Reuter, and Matthias Scheffler,
          'Ab Initio Molecular Simulations with Numeric Atom-Centered Orbitals: FHI-aims',
          Computer Physics Communications 180, 2175-2196 (2009)

          For any questions about FHI-aims, please visit the aimsclub website
          with its forums and wiki. Contributions to both the forums and the
          wiki are warmly encouraged - they are for you, and everyone is welcome there.

------------------------------------------------------------

  Date     :  20150727, Time     :  122940.853
  Time zero on CPU 1             :   0.459920000000000E-01  s.
  Internal wall clock time zero  :           207232180.853  s.

  Using        8 parallel tasks.
  Task        0 on host gen60 reporting.
  Task        1 on host gen60 reporting.
  Task        2 on host gen60 reporting.
  Task        3 on host gen60 reporting.
  Task        4 on host gen60 reporting.
  Task        5 on host gen60 reporting.
  Task        6 on host gen60 reporting.
  Task        7 on host gen60 reporting.

  Performing system and environment tests:
  | Environment variable OMP_NUM_THREADS correctly set to 1.
  | Checking for scalapack...
  | No scalapack compiled in.

  Obtaining array dimensions for all initial allocations:
  
  -----------------------------------------------------------------------
  Parsing control.in (first pass over file, find array dimensions only).
  The contents of control.in will be repeated verbatim below
  unless switched off by setting 'verbatim_writeout .false.' .
  in the first line of control.in .
  -----------------------------------------------------------------------
  
  #########################################################################################
  #
  #  Volker Blum, FHI 2008 : Test run input file control.in
  #
  #########################################################################################
  #
  #  Physical model
  #
    xc                 rpbe
    spin               none
    relativistic       atomic_zora scalar
    charge             0.
   vdw_correction_hirshfeld
  #
  #  SCF convergence
  #
    occupation_type    gaussian 0.01
    mixer              pulay
      n_max_pulay        10
      charge_mix_param   0.1
    sc_accuracy_rho    5E-5
    sc_accuracy_eev    5E-3
    sc_accuracy_etot   5E-6
    sc_iter_limit      3000
  #
  #  Eigenvalue solver
  #
    KS_method          lapack
      empty_states       8
      basis_threshold    0.e-5
  #
  #  Efficiency
  #
  #   all previous settings are now default, except stratmann still
  #   undecided. Continue to handle stratmann with care, if at all.
  #
  #  partition_type stratmann
    partition_type rho_r2
  #  hartree_partition_type stratmann
  #
  #  Oprions for large clusters (100's of atoms: memory saving / better scaling)
  #
  # for periodic systems:
  #
    density_update_method orbital
    packed_matrix_format none
  #  k_grid 6 6 6
  #  output k_eigenvalue 1
  #  distributed_spline_storage .true.
  #
  #  Relaxation
  #
  #  relax_geometry   bfgs 5.e-3
    sc_accuracy_forces 5.E-4
    final_forces_cleaned .true.
  #
  #  Output options
  #
  #  output mulliken
    output Hirshfeld
  #  output dipole
  
  #harmonic_length_scale 0.001
  
  ################################################################################
  #
  #  FHI-aims code project
  #  VB, Fritz-Haber Institut, 2007
  #
  #  Suggested "safe" defaults for H atom (to be pasted into control.in file)
  #  Basis constructed for a non-relativistic H2 molecule using the
  #  PW-LDA functional.
  #
  ################################################################################
    species        H
  #     global species definitions
      nucleus             1
      cut_pot             4.0  2.0  1.0
      cut_free_atom       finite 8.0
      logarithmic         0.00010000 100.00  1.0123
      basis_dep_cutoff    1d-4  # 1d-4 is safe default - please check 5d-4 if you wish!
      radial_base         24 7.0
      radial_multiplier   2
      angular_grids       specified
        division   0.2783  110
        division   0.3822  194
        division   0.5626  302
  #      division   0.5922  434
  #      division   0.6227  590
  #      division   0.7206  770
        outer_grid  302
      l_hartree           4
  ################################################################################
  #
  #  Definition of "minimal" basis
  #
  ################################################################################
  #     valence basis states
      valence      1  s   1.
  #     ion occupancy
      ion_occ      1  s   0.5
  ################################################################################
  #
  #  Suggested additional basis functions. For production calculations,
  #  uncomment them one after another (the most important basis functions are
  #  listed first).
  #
  ################################################################################
  #  "First tier" - improvements: -1014.90 meV to -62.69 meV
       hydro 2 s 2.1
       hydro 2 p 3.5
  #  "Second tier" - improvements: -12.89 meV to -1.83 meV
       hydro 1 s 0.85
       hydro 2 p 3.7
       hydro 2 s 1.2
       hydro 3 d 7
  #  "Third tier" - improvements: -0.25 meV to -0.12 meV
  #     hydro 4 f 11.2
  #     hydro 3 p 4.8
  #     hydro 4 d 9
  #     hydro 3 s 3.2
  
  ################################################################################
  #
  #  FHI-aims code project
  #  VB, Fritz-Haber Institut, 2007
  #
  #  Suggested "safe" defaults for O atom (to be pasted into control.in file)
  #  All values have been tested for a non-relativistic, non-spinpolarized O2
  #  molecule using the PW-LDA functional. Validity for PBE is expected.
  #
  #  Constructed for dimers: 1.0 A, 1.208 A, 1.5 A, 2.0 A, 3.0 A
  #
  ################################################################################
    species        O
  #     global species definitions
      nucleus             8
      mass                15.9994
      l_hartree           4
      cut_pot             4.0  2.0  1.0
      cut_free_atom       finite 8.0
      basis_dep_cutoff    1d-4  # 1d-4 is safe default - please check 5d-4 if you wish!
      logarithmic         0.00010000 100.00  1.0123
      radial_base         36 7.0
      radial_multiplier   2
       angular_grids specified
        division   0.4087  110
        division   0.5181  194
        division   0.6184  302
  #      division   0.7315  434
  #      division   0.7934  590
  #      division   0.9656  770
  #      division   1.4041  974
  #      outer_grid 974
        outer_grid 302
  ################################################################################
  #
  #  Definition of "minimal" basis
  #
  ################################################################################
  #     valence basis states
      valence      2  s   2.
      valence      2  p   4.
  #     ion occupancy
      ion_occ      2  s   1.
      ion_occ      2  p   3.
  ################################################################################
  #
  #  Suggested additional basis functions. For production calculations,
  #  uncomment them one after another (the most important basis functions are
  #  listed first).
  #
  ################################################################################
  #  "First tier" - improvements: -699.05 meV to -159.38 meV
       hydro 2 p 1.8
       hydro 3 d 7.6
       hydro 3 s 6.4
  #  "Second tier" - improvements: -49.91 meV to -5.39 meV
       hydro 4 f 11.6
       hydro 3 p 6.2
       hydro 3 d 5.6
       hydro 5 g 17.6
       hydro 1 s 0.75
  #  "Third tier" - improvements: -2.83 meV to -0.50 meV
  #     ionic 2 p auto
  #     hydro 4 f 10.8
  #     hydro 4 d 4.7
  #     hydro 2 s 6.8
  #  "Fourth tier" - improvements: -0.40 meV to -0.12 meV
  #     hydro 3 p 5
  #     hydro 3 s 3.3
  #     hydro 5 g 15.6
  #     hydro 4 f 17.6
  #     hydro 4 d 14
  # Further basis functions - -0.08 meV and below
  #     hydro 3 s 2.1
  #     hydro 4 d 11.6
  #     hydro 3 p 16
  #     hydro 2 s 17.2
  
  
  -----------------------------------------------------------------------
  Completed first pass over input file control.in .
  -----------------------------------------------------------------------
  
  
  -----------------------------------------------------------------------
  Parsing geometry.in (first pass over file, find array dimensions only).
  The contents of geometry.in will be repeated verbatim below
  unless switched off by setting 'verbatim_writeout .false.' .
  in the first line of geometry.in .
  -----------------------------------------------------------------------
  
  atom      -4.053030000      0.065001000     -1.525160000  O
  atom      -4.566710000      0.974813000     -1.912820000  H
  atom      -3.067820000      0.330172000     -1.477310000  H
  atom      -5.293160000      2.192130000     -2.328800000  O
  atom      -4.829300000      2.988660000     -1.973850000  H
  atom      -5.428570000      2.328640000     -3.235170000  H
  atom      -1.975360000      2.858040000      0.453140000  O
  atom      -1.223550000      3.375850000      0.786238000  H
  atom      -2.537520000      2.567960000      1.156120000  H
  atom      -5.628340000      3.730740000      1.385610000  O
  atom      -6.090650000      4.418470000      1.860350000  H
  atom      -5.158540000      4.200260000      0.615875000  H
  
  -----------------------------------------------------------------------
  Completed first pass over input file geometry.in .
  -----------------------------------------------------------------------
  
 
  Basic array size parameters: 
  | Number of species                 :        2
  | Number of atoms                   :       12
  | Max. basis fn. angular momentum   :        4
  | Max. atomic/ionic basis occupied n:        2
  | Max. number of basis fn. types    :        2
  | Max. radial fns per species/type  :        8
  | Max. logarithmic grid size        :     1301
  | Max. radial integration grid size :       73
  | Max. angular integration grid size:      302
  | Max. angular grid division number :        8
  | Radial grid for Hartree potential :     1301
  | Number of spin channels           :        1

------------------------------------------------------------
          Reading file control.in.
------------------------------------------------------------
  XC: Using RPBE gradient-corrected functionals.
  Spin treatment: No spin polarisation.
  Scalar relativistic treatment of kinetic energy: on-site free-atom approximation to ZORA.
  Charge =   0.000000E+00: Neutral system requested explicitly.
  Using non-empirical van der Waals correction (Hirshfeld partitioning):
  Occupation type: Gaussian broadening, width =   0.100000E-01 eV.
  Using pulay charge density mixing.
  Pulay mixing - number of memorized iterations:   10
  Charge density mixing - mixing parameter:     0.1000
  Convergence accuracy of self-consistent charge density: 0.5000E-04
  Convergence accuracy of sum of eigenvalues: 0.5000E-02
  Convergence accuracy of total energy: 0.5000E-05
  Maximum number of s.-c. iterations  :  3000
  Kohn-Sham eigenvalues and eigenfunctions calculated by lapack diagonalisation (D&C).
  Number of empty states per atom:        8
  Threshold for basis singularities: 0.0000E+00
  Partition function in integrals calculations: rho / r^2
 Using packed matrix format           0
  Convergence accuracy of forces: 0.5000E-03
  Cleaning forces before final output.
  Hirshfeld charge analysis will be performed.
 
  Reading configuration options for species H                   .
  | Found nuclear charge :   1.0000
  | Found cutoff potl. onset [A], width [A], scale factor :    4.00000    2.00000    1.00000
  | Found cutoff specification for free atom: Cutoff potential begins at    8.00000 A.
  | Found logarithmic grid data [bohr] : 0.1000E-03 0.1000E+03 0.1012E+01
  | Threshold for basis-dependent cutoff potential is   0.100000E-03
  | Found data for basic radial integration grid :    24 points, outermost radius =    7.000 A
  | Found multiplier for basic radial grid :   2
  | Found angular grid specification: user-specified.
  | Specified grid contains     4 separate shells.
  | Check grid settings after all constraints further below.
  | Found l_max for Hartree potential  :   4
  | Found free-atom valence shell :  1 s   1.000
  | No ionic wave fns used. Skipping ion_occ.
  | Found hydrogenic basis function :  2 s   2.100
  | Found hydrogenic basis function :  2 p   3.500
  | Found hydrogenic basis function :  1 s   0.850
  | Found hydrogenic basis function :  2 p   3.700
  | Found hydrogenic basis function :  2 s   1.200
  | Found hydrogenic basis function :  3 d   7.000
  Species H                   : Missing cutoff potential type.
  Defaulting to exp(1/x)/(1-x)^2 type cutoff potential.
  Species H : On-site basis accuracy parameter (for Gram-Schmidt orthonormalisation) not specified.
  Using default value basis_acc =  0.1000000E-03.
  Species H                   : Using default innermost maximum threshold i_radial=  2 for radial functions.
  Species H                   : Basic radial grid will be enhanced according to radial_multiplier =   2, to contain    49 grid points.
 
  Reading configuration options for species O                   .
  | Found nuclear charge :   8.0000
  | Found atomic mass :    15.9994000000000      amu
  | Found l_max for Hartree potential  :   4
  | Found cutoff potl. onset [A], width [A], scale factor :    4.00000    2.00000    1.00000
  | Found cutoff specification for free atom: Cutoff potential begins at    8.00000 A.
  | Threshold for basis-dependent cutoff potential is   0.100000E-03
  | Found logarithmic grid data [bohr] : 0.1000E-03 0.1000E+03 0.1012E+01
  | Found data for basic radial integration grid :    36 points, outermost radius =    7.000 A
  | Found multiplier for basic radial grid :   2
  | Found angular grid specification: user-specified.
  | Specified grid contains     4 separate shells.
  | Check grid settings after all constraints further below.
  | Found free-atom valence shell :  2 s   2.000
  | Found free-atom valence shell :  2 p   4.000
  | No ionic wave fns used. Skipping ion_occ.
  | No ionic wave fns used. Skipping ion_occ.
  | Found hydrogenic basis function :  2 p   1.800
  | Found hydrogenic basis function :  3 d   7.600
  | Found hydrogenic basis function :  3 s   6.400
  | Found hydrogenic basis function :  4 f  11.600
  | Found hydrogenic basis function :  3 p   6.200
  | Found hydrogenic basis function :  3 d   5.600
  | Found hydrogenic basis function :  5 g  17.600
  | Found hydrogenic basis function :  1 s   0.750
  Species O                   : Missing cutoff potential type.
  Defaulting to exp(1/x)/(1-x)^2 type cutoff potential.
  Species O : On-site basis accuracy parameter (for Gram-Schmidt orthonormalisation) not specified.
  Using default value basis_acc =  0.1000000E-03.
  Species O                   : Using default innermost maximum threshold i_radial=  2 for radial functions.
  Species O                   : Basic radial grid will be enhanced according to radial_multiplier =   2, to contain    73 grid points.
 
  Finished reading input file 'control.in'. Consistency checks are next.
 
  Target number of points in a grid batch is not set. Defaulting to  100
  Method for grid partitioning is not set. Defaulting to parallel hash+maxmin partitioning.
  Batch size limit is not set. Defaulting to    200
  By default, will store active basis functions for each batch.
  If in need of memory, prune_basis_once .false. can be used to disable this option.
  communication_type for Hartree potential was not specified.
  Defaulting to calc_hartree .
  Pulay mixer: Number of initial linear mixing iterations not set.
  Defaulting to    0 iterations.
  Work space size for distributed Hartree potential not set.
  Defaulting to   0.200000E+03 MB.
  Algorithm-dependent basis array size parameters:
  | n_max_pulay                         :       10
  Geometry relaxation not requested: no relaxation will be performed.
  Handling of forces: Unphysical translation and rotation will be removed from forces.
  No accuracy limit for integral partition fn. given. Defaulting to 0.1000E-14.
  No threshold value for u(r) in integrations given. Defaulting to 0.1000E-05.
  No accuracy for occupation numbers given. Defaulting to 0.1000E-07.
  No threshold value for occupation numbers given. Defaulting to 0.0000E+00.
  No accuracy for fermi level given. Defaulting to 0.1000E-19.
  Maximum # of iterations to find E_F not set. Defaulting to  200.
  Will not use alltoall communication since running on < 1024 CPUs.
  Partitioning for Hartree potential was not defined. Using partition_type for integrals.
  | Reporting present value of keyword multip_moments_threshold  :       0.10000000E-09
  | This value may affect high angular momentum components of the Hartree potential in periodic systems.
  No q(lm)/r^(l+1) cutoff set for long-range Hartree potential.
  | Using default value of  0.100000E-09 .
  | Verify using the multipole_threshold keyword.
  Defaulting to new monopole extrapolation.
  Density update method: Loop over occupied states selected for charge density update.
------------------------------------------------------------


------------------------------------------------------------
          Reading geometry description geometry.in.
------------------------------------------------------------
  Input structure read successfully.
  The structure contains       12 atoms,  and a total of         40.000 electrons.

  Input geometry:
  | No unit cell requested.
  | Atomic structure:
  |       Atom                x [A]            y [A]            z [A]
  |    1: Species O             -4.053030         0.065001        -1.525160
  |    2: Species H             -4.566710         0.974813        -1.912820
  |    3: Species H             -3.067820         0.330172        -1.477310
  |    4: Species O             -5.293160         2.192130        -2.328800
  |    5: Species H             -4.829300         2.988660        -1.973850
  |    6: Species H             -5.428570         2.328640        -3.235170
  |    7: Species O             -1.975360         2.858040         0.453140
  |    8: Species H             -1.223550         3.375850         0.786238
  |    9: Species H             -2.537520         2.567960         1.156120
  |   10: Species O             -5.628340         3.730740         1.385610
  |   11: Species H             -6.090650         4.418470         1.860350
  |   12: Species H             -5.158540         4.200260         0.615875
  |

  | The smallest distance between any two atoms is         0.92654057 AA.
  |
  | The first atom of this pair is atom number                      4 .
  | The second atom of this pair is atom number                     6 .

  Structure-dependent array size parameters: 
  | Maximum number of distinct radial functions  :       18
  | Maximum number of basis functions            :      276
  | Number of Kohn-Sham states (occupied + empty):       68
------------------------------------------------------------

------------------------------------------------------------
          Preparing all fixed parts of the calculation.
------------------------------------------------------------
  Determining machine precision:
    2.225073858507201E-308
  Setting up grids for atomic and cluster calculations.

  Creating wave function, potential, and density for free atoms.

  Species: H

  List of occupied orbitals and eigenvalues:
    n    l              occ      energy [Ha]    energy [eV]
    1    0           1.0000        -0.241408        -6.5691


  Species: O

  List of occupied orbitals and eigenvalues:
    n    l              occ      energy [Ha]    energy [eV]
    1    0           2.0000       -18.944147      -515.4965
    2    0           2.0000        -0.883529       -24.0421
    2    1           4.0000        -0.330176        -8.9845

  Creating fixed part of basis set: Ionic, confined, hydrogenic.
 
  H                    hydrogenic:
 
  List of hydrogenic basis orbitals: 
    n    l      effective z      eigenvalue [eV]  inner max. [A]     outer max. [A]     outer radius [A]   
    2    0         2.100000       -14.9965           0.193241           1.317192           5.372934
    2    1         3.500000       -41.6672           0.602363           0.602363           4.056010
    1    0         0.850000        -9.8292           0.624864           0.624864           5.372934
    2    1         3.700000       -46.5653           0.573616           0.573616           3.909951
    2    0         1.200000        -4.5995           0.334977           2.228160           5.505921
    3    2         7.000000       -74.0753           0.680692           0.680692           3.769152
 
 
  O                    hydrogenic:
 
  List of hydrogenic basis orbitals: 
    n    l      effective z      eigenvalue [eV]  inner max. [A]     outer max. [A]     outer radius [A]   
    2    1         1.800000       -11.0118           1.178546           1.178546           5.432516
    3    2         7.600000       -87.3182           0.624117           0.624117           3.541422
    3    0         6.400000       -61.9209           0.061166           1.081887           4.306510
    4    3        11.600000      -114.4238           0.731621           0.731621           3.584982
    3    1         6.200000       -58.1113           0.255677           1.030255           4.306510
    3    2         5.600000       -47.4081           0.847222           0.847222           4.413102
    5    4        17.600000      -168.5799           0.749730           0.749730           3.372413
    1    0         0.750000        -7.6499           0.705275           0.705275           5.366508
 

  Adding cutoff potential to free-atom effective potential.
  Creating atomic-like basis functions for current effective potential.

  Species H                   :

  List of atomic basis orbitals and eigenvalues:
    n    l      energy [Ha]    energy [eV]    outer radius [A]
    1    0        -0.241374        -6.5681       5.372934


  Species O                   :

  List of atomic basis orbitals and eigenvalues:
    n    l      energy [Ha]    energy [eV]    outer radius [A]
    1    0       -18.944147      -515.4965       1.415745
    2    0        -0.883529       -24.0421       5.048305
    2    1        -0.330173        -8.9845       5.301302

  Assembling full basis from fixed parts.
  | Species H :   atomic orbital   1 s accepted.
  | Species H :    hydro orbital   2 s accepted.
  | Species H :    hydro orbital   1 s accepted.
  | Species H :    hydro orbital   2 s accepted.
  | Species H :    hydro orbital   2 p accepted.
  | Species H :    hydro orbital   2 p accepted.
  | Species H :    hydro orbital   3 d accepted.
  | Species O :   atomic orbital   1 s accepted.
  | Species O :    hydro orbital   3 s accepted.
  | Species O :   atomic orbital   2 s accepted.
  | Species O :    hydro orbital   1 s accepted.
  | Species O :    hydro orbital   3 p accepted.
  | Species O :   atomic orbital   2 p accepted.
  | Species O :    hydro orbital   2 p accepted.
  | Species O :    hydro orbital   3 d accepted.
  | Species O :    hydro orbital   3 d accepted.
  | Species O :    hydro orbital   4 f accepted.
  | Species O :    hydro orbital   5 g accepted.
 
  Basis size parameters after reduction:
  | Total number of radial functions:       18
  | Total number of basis functions :      276
 
  Testing on-site integration grid accuracy.
  |  Species  Function  <phi|h_atom|phi> (log., in eV)  <phi|h_atom|phi> (rad., in eV)
           1        1                 -6.5683835025                 -6.5684759159
           1        2                 13.3711789951                 13.3708738703
           1        3                 23.6590910787                 23.6532055418
           1        4                 16.2963827186                 16.1870710655 ***
           1        5                 28.7627214838                 28.7627215090
           1        6                 59.5965249172                 59.5965950857
           1        7                 60.2220506392                 60.2220503827
           2        8               -515.4964576505               -515.4964530710
           2        9                 15.3030791347                 15.3030722972
           2       10                -21.7296094581                -21.7296135470
           2       11                 14.2969371730                 14.2969701621
           2       12                 21.0679693190                 21.0679697493
           2       13                 -2.3833606469                 -2.3833613176
           2       14                 13.7067136422                 13.7066766629
           2       15                 45.8013116808                 45.8013116965
           2       16                 52.2309815402                 52.2309831494
           2       17                 85.4120732416                 85.4120732763
           2       18                142.1019167745                142.1019167817
 * Note: Onsite integrals marked "***" above are less accurate than
 * onsite_accuracy_threshold =    0.03000 eV. Usually, this is harmless.
 * When in doubt, tighten the "radial" and/or "radial_multiplier" flags to check.

  Preparing densities etc. for the partition functions (integrals / Hartree potential).

  Preparations completed.
  max(cpu_time)          :      0.169 s.
  Wall clock time (cpu1) :      0.556 s.
------------------------------------------------------------

------------------------------------------------------------
          Begin self-consistency loop: Initialization.

          Date     :  20150727, Time     :  122941.509
------------------------------------------------------------

  Initializing index lists of integration centers etc. from given atomic structure:
  | Number of centers in hartree potential         :        12
  | Number of centers in hartree multipole         :        12
  | Number of centers in electron density summation:        12
  | Number of centers in basis integrals           :        12
  | Number of centers in integrals                 :        12
  Partitioning the integration grid into batches with parallel hashing+maxmin method.
  | Number of batches:     1585
  | Maximal batch size:     164
  | Minimal batch size:      52
  | Average batch size:      99.286
  | Standard deviation of batch sizes:      30.759

  Integration load balanced across     8 MPI tasks.
  Work distribution over tasks is as follows:
  Task     0 has      19665 integration points.
  Task     1 has      19737 integration points.
  Task     2 has      19627 integration points.
  Task     3 has      19625 integration points.
  Task     4 has      19710 integration points.
  Task     5 has      19710 integration points.
  Task     6 has      19667 integration points.
  Task     7 has      19627 integration points.
  Initializing partition tables, free-atom densities, potentials, etc. across the integration grid (initialize_grid_storage).
  | Net number of integration points:   157368
  | of which are non-zero points    :   156829
  Obtaining max. number of non-zero basis functions in each batch (get_n_compute_maxes).
  | Maximal number of non-zero basis functions:      273 in task     0
  | Maximal number of non-zero basis functions:      273 in task     1
  | Maximal number of non-zero basis functions:      274 in task     2
  | Maximal number of non-zero basis functions:      273 in task     3
  | Maximal number of non-zero basis functions:      273 in task     4
  | Maximal number of non-zero basis functions:      273 in task     5
  | Maximal number of non-zero basis functions:      273 in task     6
  | Maximal number of non-zero basis functions:      273 in task     7
  Integrating Hamiltonian matrix: batch-based integration.
  Time summed over all CPUs for integration: real work        4.106 s, elapsed        4.171 s
  Integrating overlap matrix.
  Time summed over all CPUs for integration: real work        2.133 s, elapsed        2.167 s

  Updating Kohn-Sham eigenvalues, eigenvectors, occupation numbers, and Fermi level.
  Solving generalized eigenproblem
  Updating Kohn-Sham eigenvalues and eigenfunctions.
  Transforming overlap matrix and checking for singularities.
  Overlap matrix is nonsingular:
  | Lowest eigenvalue:  0.361993E-03
  Solving real generalised eigenvalue problem by standard LAPACK (fast)
  Determining occupation numbers for Kohn-Sham eigenstates.
  | Chemical potential (Fermi level) in eV                 : -.53806203E+01
  | Error in electron count due to remaining E_F inaccuracy: 0.00000000E+00
  | Maximum occupation number of highest empty state:  0.00E+00

  Writing Kohn-Sham eigenvalues.

  State    Occupation    Eigenvalue [Ha]    Eigenvalue [eV]
      1       2.00000         -19.064794         -518.77945
      2       2.00000         -19.054463         -518.49831
      3       2.00000         -19.044520         -518.22775
      4       2.00000         -19.019415         -517.54462
      5       2.00000          -1.121164          -30.50842
      6       2.00000          -1.103377          -30.02443
      7       2.00000          -1.089121          -29.63649
      8       2.00000          -1.043109          -28.38443
      9       2.00000          -0.650185          -17.69244
     10       2.00000          -0.646547          -17.59345
     11       2.00000          -0.618310          -16.82506
     12       2.00000          -0.596129          -16.22150
     13       2.00000          -0.524343          -14.26810
     14       2.00000          -0.501623          -13.64984
     15       2.00000          -0.501074          -13.63492
     16       2.00000          -0.481901          -13.11319
     17       2.00000          -0.440918          -11.99800
     18       2.00000          -0.438081          -11.92078
     19       2.00000          -0.430126          -11.70433
     20       2.00000          -0.409560          -11.14470
     21       0.00000          -0.095259           -2.59214
     22       0.00000          -0.060779           -1.65387
     23       0.00000          -0.059353           -1.61508
     24       0.00000          -0.034375           -0.93538
     25       0.00000          -0.012078           -0.32866
     26       0.00000           0.000402            0.01093
     27       0.00000           0.026242            0.71408
     28       0.00000           0.038135            1.03769
     29       0.00000           0.077260            2.10234
     30       0.00000           0.083853            2.28175
     31       0.00000           0.093976            2.55723
     32       0.00000           0.097831            2.66211
     33       0.00000           0.101308            2.75674
     34       0.00000           0.103592            2.81888
     35       0.00000           0.115404            3.14030
     36       0.00000           0.123566            3.36241
     37       0.00000           0.135191            3.67874
     38       0.00000           0.142753            3.88451
     39       0.00000           0.147704            4.01922
     40       0.00000           0.154344            4.19991
     41       0.00000           0.179029            4.87161
     42       0.00000           0.194322            5.28777
     43       0.00000           0.201461            5.48202
     44       0.00000           0.232279            6.32065
     45       0.00000           0.247919            6.74623
     46       0.00000           0.270582            7.36291
     47       0.00000           0.276410            7.52151
     48       0.00000           0.287070            7.81156
     49       0.00000           0.320655            8.72547
     50       0.00000           0.341501            9.29271
     51       0.00000           0.348717            9.48907
     52       0.00000           0.377218           10.26462
     53       0.00000           0.382860           10.41816
     54       0.00000           0.388628           10.57511
     55       0.00000           0.416056           11.32146
     56       0.00000           0.418782           11.39563
     57       0.00000           0.423706           11.52964
     58       0.00000           0.438778           11.93975
     59       0.00000           0.462769           12.59259
     60       0.00000           0.472180           12.84867
     61       0.00000           0.494260           13.44951
     62       0.00000           0.501385           13.64338
     63       0.00000           0.518501           14.10912
     64       0.00000           0.538310           14.64816
     65       0.00000           0.570441           15.52249
     66       0.00000           0.584220           15.89744
     67       0.00000           0.595740           16.21091
     68       0.00000           0.677020           18.42264

  Highest occupied state (VBM) at    -11.14470029 eV
  | Occupation number:      2.00000000

  Lowest unoccupied state (CBM) at    -2.59213836 eV
  | Occupation number:      0.00000000

  Overall HOMO-LUMO gap:      8.55256192 eV.
  Calculating total energy contributions from superposition of free atom densities.

  Total energy components:
  | Sum of eigenvalues            :        -173.55752094 Ha       -4722.74043517 eV
  | XC energy correction          :         -36.43308891 Ha        -991.39479074 eV
  | XC potential correction       :          46.54637685 Ha        1266.59135766 eV
  | Free-atom electrostatic energy:        -143.03323414 Ha       -3892.13233034 eV
  | Hartree energy correction     :           0.00000000 Ha           0.00000000 eV
  | van der Waals energy corr.    :           0.00000000 Ha           0.00000000 eV
  | Entropy correction            :           0.00000000 Ha           0.00000000 eV
  | ---------------------------
  | Total energy                  :        -306.47746713 Ha       -8339.67619859 eV
  | Total energy, T -> 0          :        -306.47746713 Ha       -8339.67619859 eV  <-- do not rely on this value for anything but (periodic) metals
  | Electronic free energy        :        -306.47746713 Ha       -8339.67619859 eV

  Derived energy quantities:
  | Kinetic energy                :         303.26036720 Ha        8252.13445552 eV
  | Electrostatic energy          :        -573.30474542 Ha      -15600.41586337 eV
  | Energy correction for multipole
  | error in Hartree potential    :           0.00000000 Ha           0.00000000 eV
  | Sum of eigenvalues per atom                           :        -393.56170293 eV
  | Total energy (T->0) per atom                          :        -694.97301655 eV  <-- do not rely on this value for anything but (periodic) metals
  | Electronic free energy per atom                       :        -694.97301655 eV
  Initialize hartree_potential_storage
  Max. number of atoms included in rho_multipole:           12

  End scf initialization - timings             :  max(cpu_time)    wall_clock(cpu1)
  | Time for scf. initialization               :        1.183 s           1.183 s
  | Boundary condition initialization          :        0.000 s           0.000 s
  | Integration                                :        0.795 s           0.795 s
  | Solution of K.-S. eqns.                    :        0.119 s           0.119 s
  | Grid partitioning                          :        0.121 s           0.120 s
  | Preloading free-atom quantities on grid    :        0.013 s           0.013 s
  | Free-atom superposition energy             :        0.046 s           0.046 s
  | Total energy evaluation                    :        0.001 s           0.000 s
------------------------------------------------------------

------------------------------------------------------------
          Begin self-consistency iteration #    1

  Date     :  20150727, Time     :  122942.692
------------------------------------------------------------
  Evaluating new KS density.
  Integration grid: deviation in total charge (<rho> - N_e) =   2.842171E-14
  Pulay mixing of updated and previous charge densities.

  Evaluating partitioned Hartree potential by multipole expansion.
  | Analytical far-field extrapolation by fixed multipoles:
  | Hartree multipole sum: apparent total charge =  -0.208482E-05
  Summing up the Hartree potential.
  Time summed over all CPUs for potential: real work        1.652 s, elapsed        1.657 s
  | RMS charge density error from multipole expansion :   0.147615E-02

  Integrating Hamiltonian matrix: batch-based integration.
  Time summed over all CPUs for integration: real work        4.090 s, elapsed        4.161 s

  Updating Kohn-Sham eigenvalues, eigenvectors, occupation numbers, and Fermi level.
  Solving generalized eigenproblem
  Updating Kohn-Sham eigenvalues and eigenfunctions.
  Solving real generalised eigenvalue problem by standard LAPACK (fast)
  Determining occupation numbers for Kohn-Sham eigenstates.
  | Chemical potential (Fermi level) in eV                 : -.49649773E+01
  | Error in electron count due to remaining E_F inaccuracy: 0.00000000E+00
  | Maximum occupation number of highest empty state:  0.00E+00

  Writing Kohn-Sham eigenvalues.

  State    Occupation    Eigenvalue [Ha]    Eigenvalue [eV]
      1       2.00000         -18.998267         -516.96914
      2       2.00000         -18.975346         -516.34545
      3       2.00000         -18.967881         -516.14231
      4       2.00000         -18.932781         -515.18719
      5       2.00000          -1.090409          -29.67153
      6       2.00000          -1.064892          -28.97718
      7       2.00000          -1.051839          -28.62199
      8       2.00000          -0.996192          -27.10777
      9       2.00000          -0.623981          -16.97939
     10       2.00000          -0.613529          -16.69497
     11       2.00000          -0.586766          -15.96671
     12       2.00000          -0.561246          -15.27227
     13       2.00000          -0.486417          -13.23608
     14       2.00000          -0.463880          -12.62281
     15       2.00000          -0.462263          -12.57882
     16       2.00000          -0.443774          -12.07571
     17       2.00000          -0.400534          -10.89909
     18       2.00000          -0.397978          -10.82954
     19       2.00000          -0.390723          -10.63211
     20       2.00000          -0.361161           -9.82769
     21       0.00000          -0.088494           -2.40804
     22       0.00000          -0.053779           -1.46340
     23       0.00000          -0.051462           -1.40035
     24       0.00000          -0.025028           -0.68105
     25       0.00000          -0.006569           -0.17874
     26       0.00000           0.007811            0.21256
     27       0.00000           0.032642            0.88825
     28       0.00000           0.047726            1.29870
     29       0.00000           0.086608            2.35673
     30       0.00000           0.092183            2.50844
     31       0.00000           0.104170            2.83461
     32       0.00000           0.106606            2.90091
     33       0.00000           0.109697            2.98502
     34       0.00000           0.115555            3.14440
     35       0.00000           0.122841            3.34267
     36       0.00000           0.135075            3.67559
     37       0.00000           0.143027            3.89197
     38       0.00000           0.150029            4.08249
     39       0.00000           0.158314            4.30794
     40       0.00000           0.163530            4.44987
     41       0.00000           0.187023            5.08916
     42       0.00000           0.202557            5.51185
     43       0.00000           0.208388            5.67053
     44       0.00000           0.240241            6.53729
     45       0.00000           0.258071            7.02248
     46       0.00000           0.279762            7.61272
     47       0.00000           0.285875            7.77906
     48       0.00000           0.295769            8.04829
     49       0.00000           0.327871            8.92183
     50       0.00000           0.348033            9.47045
     51       0.00000           0.358541            9.75639
     52       0.00000           0.386321           10.51233
     53       0.00000           0.391643           10.65715
     54       0.00000           0.397176           10.80771
     55       0.00000           0.425643           11.58235
     56       0.00000           0.427396           11.63003
     57       0.00000           0.432147           11.75931
     58       0.00000           0.447095           12.16608
     59       0.00000           0.471808           12.83855
     60       0.00000           0.483249           13.14987
     61       0.00000           0.505481           13.75482
     62       0.00000           0.511870           13.92869
     63       0.00000           0.529906           14.41949
     64       0.00000           0.548988           14.93873
     65       0.00000           0.582290           15.84491
     66       0.00000           0.595849           16.21389
     67       0.00000           0.607683           16.53590
     68       0.00000           0.689918           18.77362

  Highest occupied state (VBM) at     -9.82769114 eV
  | Occupation number:      2.00000000

  Lowest unoccupied state (CBM) at    -2.40803813 eV
  | Occupation number:      0.00000000

  Overall HOMO-LUMO gap:      7.41965301 eV.

  Total energy components:
  | Sum of eigenvalues            :        -171.73971847 Ha       -4673.27551324 eV
  | XC energy correction          :         -36.63287016 Ha        -996.83111525 eV
  | XC potential correction       :          46.80824047 Ha        1273.71702913 eV
  | Free-atom electrostatic energy:        -143.03323414 Ha       -3892.13233034 eV
  | Hartree energy correction     :          -1.75709034 Ha         -47.81286081 eV
  | van der Waals energy corr.    :           0.00000000 Ha           0.00000000 eV
  | Entropy correction            :           0.00000000 Ha           0.00000000 eV
  | ---------------------------
  | Total energy                  :        -306.35467264 Ha       -8336.33479050 eV
  | Total energy, T -> 0          :        -306.35467264 Ha       -8336.33479050 eV  <-- do not rely on this value for anything but (periodic) metals
  | Electronic free energy        :        -306.35467264 Ha       -8336.33479050 eV

  Derived energy quantities:
  | Kinetic energy                :         304.44846332 Ha        8284.46419571 eV
  | Electrostatic energy          :        -574.17026579 Ha      -15623.96787096 eV
  | Energy correction for multipole
  | error in Hartree potential    :          -0.00016026 Ha          -0.00436098 eV
  | Sum of eigenvalues per atom                           :        -389.43962610 eV
  | Total energy (T->0) per atom                          :        -694.69456588 eV  <-- do not rely on this value for anything but (periodic) metals
  | Electronic free energy per atom                       :        -694.69456588 eV

  Self-consistency convergence accuracy:
  | Change of charge density      : 0.6068E+00
  | Change of sum of eigenvalues  : 0.4946E+02 eV
  | Change of total energy        : 0.3341E+01 eV

  End self-consistency iteration #     1       :  max(cpu_time)    wall_clock(cpu1)
  | Time for this iteration                    :        1.130 s           1.130 s
  | Charge density update                      :        0.362 s           0.361 s
  | Density mixing                             :        0.002 s           0.003 s
  | Hartree multipole update                   :        0.005 s           0.004 s
  | Hartree multipole summation                :        0.208 s           0.208 s
  | Integration                                :        0.521 s           0.521 s
  | Solution of K.-S. eqns.                    :        0.031 s           0.030 s
  | Total energy evaluation                    :        0.000 s           0.001 s
------------------------------------------------------------

------------------------------------------------------------
          Begin self-consistency iteration #    2

  Date     :  20150727, Time     :  122943.822
------------------------------------------------------------
  Evaluating new KS density.
  Integration grid: deviation in total charge (<rho> - N_e) =   0.000000E+00
  Pulay mixing of updated and previous charge densities.

  Evaluating partitioned Hartree potential by multipole expansion.
  | Analytical far-field extrapolation by fixed multipoles:
  | Hartree multipole sum: apparent total charge =  -0.649923E-05
  Summing up the Hartree potential.
  Time summed over all CPUs for potential: real work        1.652 s, elapsed        1.657 s
  | RMS charge density error from multipole expansion :   0.590441E-02

  Integrating Hamiltonian matrix: batch-based integration.
  Time summed over all CPUs for integration: real work        4.081 s, elapsed        4.164 s

  Updating Kohn-Sham eigenvalues, eigenvectors, occupation numbers, and Fermi level.
  Solving generalized eigenproblem
  Updating Kohn-Sham eigenvalues and eigenfunctions.
  Solving real generalised eigenvalue problem by standard LAPACK (fast)
  Determining occupation numbers for Kohn-Sham eigenstates.
  | Chemical potential (Fermi level) in eV                 : -.39283313E+01
  | Error in electron count due to remaining E_F inaccuracy: 0.00000000E+00
  | Maximum occupation number of highest empty state:  0.00E+00

  Highest occupied state (VBM) at     -6.71026307 eV
  | Occupation number:      2.00000000

  Lowest unoccupied state (CBM) at    -1.99249991 eV
  | Occupation number:      0.00000000

  Overall HOMO-LUMO gap:      4.71776317 eV.

  Total energy components:
  | Sum of eigenvalues            :        -167.47109297 Ha       -4557.12030346 eV
  | XC energy correction          :         -37.12403162 Ha       -1010.19629858 eV
  | XC potential correction       :          47.45161186 Ha        1291.22405555 eV
  | Free-atom electrostatic energy:        -143.03323414 Ha       -3892.13233034 eV
  | Hartree energy correction     :          -6.03572636 Ha        -164.24047083 eV
  | van der Waals energy corr.    :           0.00000000 Ha           0.00000000 eV
  | Entropy correction            :           0.00000000 Ha           0.00000000 eV
  | ---------------------------
  | Total energy                  :        -306.21247323 Ha       -8332.46534765 eV
  | Total energy, T -> 0          :        -306.21247323 Ha       -8332.46534765 eV  <-- do not rely on this value for anything but (periodic) metals
  | Electronic free energy        :        -306.21247323 Ha       -8332.46534765 eV

  Derived energy quantities:
  | Kinetic energy                :         306.82757958 Ha        8349.20324324 eV
  | Electrostatic energy          :        -575.91602119 Ha      -15671.47229231 eV
  | Energy correction for multipole
  | error in Hartree potential    :          -0.00117110 Ha          -0.03186714 eV
  | Sum of eigenvalues per atom                           :        -379.76002529 eV
  | Total energy (T->0) per atom                          :        -694.37211230 eV  <-- do not rely on this value for anything but (periodic) metals
  | Electronic free energy per atom                       :        -694.37211230 eV

  Self-consistency convergence accuracy:
  | Change of charge density      : 0.4584E+00
  | Change of sum of eigenvalues  : 0.1162E+03 eV
  | Change of total energy        : 0.3869E+01 eV

  End self-consistency iteration #     2       :  max(cpu_time)    wall_clock(cpu1)
  | Time for this iteration                    :        1.128 s           1.127 s
  | Charge density update                      :        0.358 s           0.358 s
  | Density mixing                             :        0.005 s           0.004 s
  | Hartree multipole update                   :        0.004 s           0.004 s
  | Hartree multipole summation                :        0.208 s           0.208 s
  | Integration                                :        0.521 s           0.522 s
  | Solution of K.-S. eqns.                    :        0.031 s           0.031 s
  | Total energy evaluation                    :        0.000 s           0.000 s
------------------------------------------------------------

------------------------------------------------------------
          Begin self-consistency iteration #    3

  Date     :  20150727, Time     :  122944.949
------------------------------------------------------------
  Evaluating new KS density.
  Integration grid: deviation in total charge (<rho> - N_e) =   0.000000E+00
  Pulay mixing of updated and previous charge densities.

  Evaluating partitioned Hartree potential by multipole expansion.
  | Analytical far-field extrapolation by fixed multipoles:
  | Hartree multipole sum: apparent total charge =  -0.795401E-05
  Summing up the Hartree potential.
  Time summed over all CPUs for potential: real work        1.652 s, elapsed        1.657 s
  | RMS charge density error from multipole expansion :   0.120296E-01

  Integrating Hamiltonian matrix: batch-based integration.
  Time summed over all CPUs for integration: real work        4.080 s, elapsed        4.159 s

  Updating Kohn-Sham eigenvalues, eigenvectors, occupation numbers, and Fermi level.
  Solving generalized eigenproblem
  Updating Kohn-Sham eigenvalues and eigenfunctions.
  Solving real generalised eigenvalue problem by standard LAPACK (fast)
  Determining occupation numbers for Kohn-Sham eigenstates.
  | Chemical potential (Fermi level) in eV                 : -.37167548E+01
  | Error in electron count due to remaining E_F inaccuracy: 0.00000000E+00
  | Maximum occupation number of highest empty state:  0.00E+00

  Highest occupied state (VBM) at     -6.53903163 eV
  | Occupation number:      2.00000000

  Lowest unoccupied state (CBM) at    -1.92794216 eV
  | Occupation number:      0.00000000

  Overall HOMO-LUMO gap:      4.61108947 eV.

  Total energy components:
  | Sum of eigenvalues            :        -167.73675166 Ha       -4564.34924429 eV
  | XC energy correction          :         -37.09392811 Ha       -1009.37714046 eV
  | XC potential correction       :          47.40869566 Ha        1290.05624638 eV
  | Free-atom electrostatic energy:        -143.03323414 Ha       -3892.13233034 eV
  | Hartree energy correction     :          -5.75338144 Ha        -156.55747465 eV
  | van der Waals energy corr.    :           0.00000000 Ha           0.00000000 eV
  | Entropy correction            :           0.00000000 Ha           0.00000000 eV
  | ---------------------------
  | Total energy                  :        -306.20859969 Ha       -8332.35994336 eV
  | Total energy, T -> 0          :        -306.20859969 Ha       -8332.35994336 eV  <-- do not rely on this value for anything but (periodic) metals
  | Electronic free energy        :        -306.20859969 Ha       -8332.35994336 eV

  Derived energy quantities:
  | Kinetic energy                :         305.08389222 Ha        8301.75509594 eV
  | Electrostatic energy          :        -574.19856380 Ha      -15624.73789884 eV
  | Energy correction for multipole
  | error in Hartree potential    :          -0.00475128 Ha          -0.12928884 eV
  | Sum of eigenvalues per atom                           :        -380.36243702 eV
  | Total energy (T->0) per atom                          :        -694.36332861 eV  <-- do not rely on this value for anything but (periodic) metals
  | Electronic free energy per atom                       :        -694.36332861 eV

  Self-consistency convergence accuracy:
  | Change of charge density      : 0.2289E+00
  | Change of sum of eigenvalues  : -.7229E+01 eV
  | Change of total energy        : 0.1054E+00 eV

  End self-consistency iteration #     3       :  max(cpu_time)    wall_clock(cpu1)
  | Time for this iteration                    :        1.126 s           1.126 s
  | Charge density update                      :        0.356 s           0.356 s
  | Density mixing                             :        0.006 s           0.005 s
  | Hartree multipole update                   :        0.004 s           0.004 s
  | Hartree multipole summation                :        0.208 s           0.208 s
  | Integration                                :        0.521 s           0.521 s
  | Solution of K.-S. eqns.                    :        0.031 s           0.031 s
  | Total energy evaluation                    :        0.000 s           0.000 s
------------------------------------------------------------

------------------------------------------------------------
          Begin self-consistency iteration #    4

  Date     :  20150727, Time     :  122946.075
------------------------------------------------------------
  Evaluating new KS density.
  Integration grid: deviation in total charge (<rho> - N_e) =   1.421085E-14
  Pulay mixing of updated and previous charge densities.

  Evaluating partitioned Hartree potential by multipole expansion.
  | Analytical far-field extrapolation by fixed multipoles:
  | Hartree multipole sum: apparent total charge =  -0.981567E-05
  Summing up the Hartree potential.
  Time summed over all CPUs for potential: real work        1.651 s, elapsed        1.656 s
  | RMS charge density error from multipole expansion :   0.153668E-01

  Integrating Hamiltonian matrix: batch-based integration.
  Time summed over all CPUs for integration: real work        4.069 s, elapsed        4.151 s

  Updating Kohn-Sham eigenvalues, eigenvectors, occupation numbers, and Fermi level.
  Solving generalized eigenproblem
  Updating Kohn-Sham eigenvalues and eigenfunctions.
  Solving real generalised eigenvalue problem by standard LAPACK (fast)
  Determining occupation numbers for Kohn-Sham eigenstates.
  | Chemical potential (Fermi level) in eV                 : -.33284834E+01
  | Error in electron count due to remaining E_F inaccuracy: 0.00000000E+00
  | Maximum occupation number of highest empty state:  0.00E+00

  Highest occupied state (VBM) at     -5.45737241 eV
  | Occupation number:      2.00000000

  Lowest unoccupied state (CBM) at    -1.80512041 eV
  | Occupation number:      0.00000000

  Overall HOMO-LUMO gap:      3.65225200 eV.

  Total energy components:
  | Sum of eigenvalues            :        -166.45015944 Ha       -4529.33928863 eV
  | XC energy correction          :         -37.25805785 Ha       -1013.84333775 eV
  | XC potential correction       :          47.62351171 Ha        1295.90168844 eV
  | Free-atom electrostatic energy:        -143.03323414 Ha       -3892.13233034 eV
  | Hartree energy correction     :          -7.07981767 Ha        -192.65164093 eV
  | van der Waals energy corr.    :           0.00000000 Ha           0.00000000 eV
  | Entropy correction            :           0.00000000 Ha           0.00000000 eV
  | ---------------------------
  | Total energy                  :        -306.19775738 Ha       -8332.06490920 eV
  | Total energy, T -> 0          :        -306.19775738 Ha       -8332.06490920 eV  <-- do not rely on this value for anything but (periodic) metals
  | Electronic free energy        :        -306.19775738 Ha       -8332.06490920 eV

  Derived energy quantities:
  | Kinetic energy                :         305.28187069 Ha        8307.14236417 eV
  | Electrostatic energy          :        -574.22157023 Ha      -15625.36393562 eV
  | Energy correction for multipole
  | error in Hartree potential    :          -0.00622842 Ha          -0.16948382 eV
  | Sum of eigenvalues per atom                           :        -377.44494072 eV
  | Total energy (T->0) per atom                          :        -694.33874243 eV  <-- do not rely on this value for anything but (periodic) metals
  | Electronic free energy per atom                       :        -694.33874243 eV

  Self-consistency convergence accuracy:
  | Change of charge density      : 0.1295E+00
  | Change of sum of eigenvalues  : 0.3501E+02 eV
  | Change of total energy        : 0.2950E+00 eV

  End self-consistency iteration #     4       :  max(cpu_time)    wall_clock(cpu1)
  | Time for this iteration                    :        1.126 s           1.126 s
  | Charge density update                      :        0.356 s           0.356 s
  | Density mixing                             :        0.007 s           0.007 s
  | Hartree multipole update                   :        0.004 s           0.004 s
  | Hartree multipole summation                :        0.208 s           0.208 s
  | Integration                                :        0.520 s           0.520 s
  | Solution of K.-S. eqns.                    :        0.031 s           0.031 s
  | Total energy evaluation                    :        0.000 s           0.000 s
------------------------------------------------------------

------------------------------------------------------------
          Begin self-consistency iteration #    5

  Date     :  20150727, Time     :  122947.202
------------------------------------------------------------
  Evaluating new KS density.
  Integration grid: deviation in total charge (<rho> - N_e) =   7.105427E-15
  Pulay mixing of updated and previous charge densities.

  Evaluating partitioned Hartree potential by multipole expansion.
  | Analytical far-field extrapolation by fixed multipoles:
  | Hartree multipole sum: apparent total charge =  -0.100647E-04
  Summing up the Hartree potential.
  Time summed over all CPUs for potential: real work        1.651 s, elapsed        1.655 s
  | RMS charge density error from multipole expansion :   0.159865E-01

  Integrating Hamiltonian matrix: batch-based integration.
  Time summed over all CPUs for integration: real work        4.067 s, elapsed        4.144 s

  Updating Kohn-Sham eigenvalues, eigenvectors, occupation numbers, and Fermi level.
  Solving generalized eigenproblem
  Updating Kohn-Sham eigenvalues and eigenfunctions.
  Solving real generalised eigenvalue problem by standard LAPACK (fast)
  Determining occupation numbers for Kohn-Sham eigenstates.
  | Chemical potential (Fermi level) in eV                 : -.33062314E+01
  | Error in electron count due to remaining E_F inaccuracy: 0.00000000E+00
  | Maximum occupation number of highest empty state:  0.00E+00

  Highest occupied state (VBM) at     -5.24751729 eV
  | Occupation number:      2.00000000

  Lowest unoccupied state (CBM) at    -1.79685406 eV
  | Occupation number:      0.00000000

  Overall HOMO-LUMO gap:      3.45066323 eV.

  Total energy components:
  | Sum of eigenvalues            :        -166.32744384 Ha       -4526.00002711 eV
  | XC energy correction          :         -37.27582968 Ha       -1014.32693390 eV
  | XC potential correction       :          47.64649154 Ha        1296.52700127 eV
  | Free-atom electrostatic energy:        -143.03323414 Ha       -3892.13233034 eV
  | Hartree energy correction     :          -7.20755158 Ha        -196.12745735 eV
  | van der Waals energy corr.    :           0.00000000 Ha           0.00000000 eV
  | Entropy correction            :           0.00000000 Ha           0.00000000 eV
  | ---------------------------
  | Total energy                  :        -306.19756769 Ha       -8332.05974743 eV
  | Total energy, T -> 0          :        -306.19756769 Ha       -8332.05974743 eV  <-- do not rely on this value for anything but (periodic) metals
  | Electronic free energy        :        -306.19756769 Ha       -8332.05974743 eV

  Derived energy quantities:
  | Kinetic energy                :         305.31589902 Ha        8308.06832223 eV
  | Electrostatic energy          :        -574.23763704 Ha      -15625.80113576 eV
  | Energy correction for multipole
  | error in Hartree potential    :          -0.00638820 Ha          -0.17383163 eV
  | Sum of eigenvalues per atom                           :        -377.16666893 eV
  | Total energy (T->0) per atom                          :        -694.33831229 eV  <-- do not rely on this value for anything but (periodic) metals
  | Electronic free energy per atom                       :        -694.33831229 eV

  Self-consistency convergence accuracy:
  | Change of charge density      : 0.2810E-01
  | Change of sum of eigenvalues  : 0.3339E+01 eV
  | Change of total energy        : 0.5162E-02 eV

  End self-consistency iteration #     5       :  max(cpu_time)    wall_clock(cpu1)
  | Time for this iteration                    :        1.124 s           1.124 s
  | Charge density update                      :        0.354 s           0.354 s
  | Density mixing                             :        0.008 s           0.008 s
  | Hartree multipole update                   :        0.004 s           0.004 s
  | Hartree multipole summation                :        0.208 s           0.208 s
  | Integration                                :        0.519 s           0.519 s
  | Solution of K.-S. eqns.                    :        0.031 s           0.031 s
  | Total energy evaluation                    :        0.000 s           0.000 s
------------------------------------------------------------

------------------------------------------------------------
          Begin self-consistency iteration #    6

  Date     :  20150727, Time     :  122948.326
------------------------------------------------------------
  Evaluating new KS density.
  Integration grid: deviation in total charge (<rho> - N_e) =   1.421085E-14
  Pulay mixing of updated and previous charge densities.

  Evaluating partitioned Hartree potential by multipole expansion.
  | Analytical far-field extrapolation by fixed multipoles:
  | Hartree multipole sum: apparent total charge =  -0.101941E-04
  Summing up the Hartree potential.
  Time summed over all CPUs for potential: real work        1.651 s, elapsed        1.656 s
  | RMS charge density error from multipole expansion :   0.163190E-01

  Integrating Hamiltonian matrix: batch-based integration.
  Time summed over all CPUs for integration: real work        4.069 s, elapsed        4.139 s

  Updating Kohn-Sham eigenvalues, eigenvectors, occupation numbers, and Fermi level.
  Solving generalized eigenproblem
  Updating Kohn-Sham eigenvalues and eigenfunctions.
  Solving real generalised eigenvalue problem by standard LAPACK (fast)
  Determining occupation numbers for Kohn-Sham eigenstates.
  | Chemical potential (Fermi level) in eV                 : -.32830622E+01
  | Error in electron count due to remaining E_F inaccuracy: 0.00000000E+00
  | Maximum occupation number of highest empty state:  0.00E+00

  Highest occupied state (VBM) at     -5.18417253 eV
  | Occupation number:      2.00000000

  Lowest unoccupied state (CBM) at    -1.78718563 eV
  | Occupation number:      0.00000000

  Overall HOMO-LUMO gap:      3.39698690 eV.

  Total energy components:
  | Sum of eigenvalues            :        -166.25221223 Ha       -4523.95287102 eV
  | XC energy correction          :         -37.28629584 Ha       -1014.61173280 eV
  | XC potential correction       :          47.66008769 Ha        1296.89697139 eV
  | Free-atom electrostatic energy:        -143.03323414 Ha       -3892.13233034 eV
  | Hartree energy correction     :          -7.28603274 Ha        -198.26303843 eV
  | van der Waals energy corr.    :           0.00000000 Ha           0.00000000 eV
  | Entropy correction            :           0.00000000 Ha           0.00000000 eV
  | ---------------------------
  | Total energy                  :        -306.19768727 Ha       -8332.06300118 eV
  | Total energy, T -> 0          :        -306.19768727 Ha       -8332.06300118 eV  <-- do not rely on this value for anything but (periodic) metals
  | Electronic free energy        :        -306.19768727 Ha       -8332.06300118 eV

  Derived energy quantities:
  | Kinetic energy                :         305.32761114 Ha        8308.38702525 eV
  | Electrostatic energy          :        -574.23900256 Ha      -15625.83829364 eV
  | Energy correction for multipole
  | error in Hartree potential    :          -0.00648696 Ha          -0.17651918 eV
  | Sum of eigenvalues per atom                           :        -376.99607258 eV
  | Total energy (T->0) per atom                          :        -694.33858343 eV  <-- do not rely on this value for anything but (periodic) metals
  | Electronic free energy per atom                       :        -694.33858343 eV

  Self-consistency convergence accuracy:
  | Change of charge density      : 0.9034E-02
  | Change of sum of eigenvalues  : 0.2047E+01 eV
  | Change of total energy        : -.3254E-02 eV

  End self-consistency iteration #     6       :  max(cpu_time)    wall_clock(cpu1)
  | Time for this iteration                    :        1.125 s           1.126 s
  | Charge density update                      :        0.354 s           0.355 s
  | Density mixing                             :        0.008 s           0.009 s
  | Hartree multipole update                   :        0.004 s           0.004 s
  | Hartree multipole summation                :        0.208 s           0.208 s
  | Integration                                :        0.519 s           0.518 s
  | Solution of K.-S. eqns.                    :        0.030 s           0.031 s
  | Total energy evaluation                    :        0.000 s           0.001 s
------------------------------------------------------------

------------------------------------------------------------
          Begin self-consistency iteration #    7

  Date     :  20150727, Time     :  122949.452
------------------------------------------------------------
  Evaluating new KS density.
  Integration grid: deviation in total charge (<rho> - N_e) =  -2.842171E-14
  Pulay mixing of updated and previous charge densities.

  Evaluating partitioned Hartree potential by multipole expansion.
  | Analytical far-field extrapolation by fixed multipoles:
  | Hartree multipole sum: apparent total charge =  -0.100392E-04
  Summing up the Hartree potential.
  Time summed over all CPUs for potential: real work        1.651 s, elapsed        1.655 s
  | RMS charge density error from multipole expansion :   0.161987E-01

  Integrating Hamiltonian matrix: batch-based integration.
  Time summed over all CPUs for integration: real work        4.067 s, elapsed        4.128 s

  Updating Kohn-Sham eigenvalues, eigenvectors, occupation numbers, and Fermi level.
  Solving generalized eigenproblem
  Updating Kohn-Sham eigenvalues and eigenfunctions.
  Solving real generalised eigenvalue problem by standard LAPACK (fast)
  Determining occupation numbers for Kohn-Sham eigenstates.
  | Chemical potential (Fermi level) in eV                 : -.33257767E+01
  | Error in electron count due to remaining E_F inaccuracy: 0.00000000E+00
  | Maximum occupation number of highest empty state:  0.00E+00

  Highest occupied state (VBM) at     -5.34298433 eV
  | Occupation number:      2.00000000

  Lowest unoccupied state (CBM) at    -1.79784404 eV
  | Occupation number:      0.00000000

  Overall HOMO-LUMO gap:      3.54514028 eV.

  Total energy components:
  | Sum of eigenvalues            :        -166.38968246 Ha       -4527.69362632 eV
  | XC energy correction          :         -37.26906805 Ha       -1014.14294062 eV
  | XC potential correction       :          47.63712515 Ha        1296.27212883 eV
  | Free-atom electrostatic energy:        -143.03323414 Ha       -3892.13233034 eV
  | Hartree energy correction     :          -7.14266800 Ha        -194.36188518 eV
  | van der Waals energy corr.    :           0.00000000 Ha           0.00000000 eV
  | Entropy correction            :           0.00000000 Ha           0.00000000 eV
  | ---------------------------
  | Total energy                  :        -306.19752750 Ha       -8332.05865363 eV
  | Total energy, T -> 0          :        -306.19752750 Ha       -8332.05865363 eV  <-- do not rely on this value for anything but (periodic) metals
  | Electronic free energy        :        -306.19752750 Ha       -8332.05865363 eV

  Derived energy quantities:
  | Kinetic energy                :         305.35806771 Ha        8309.21579057 eV
  | Electrostatic energy          :        -574.28652715 Ha      -15627.13150358 eV
  | Energy correction for multipole
  | error in Hartree potential    :          -0.00624300 Ha          -0.16988079 eV
  | Sum of eigenvalues per atom                           :        -377.30780219 eV
  | Total energy (T->0) per atom                          :        -694.33822114 eV  <-- do not rely on this value for anything but (periodic) metals
  | Electronic free energy per atom                       :        -694.33822114 eV

  Self-consistency convergence accuracy:
  | Change of charge density      : 0.1226E-01
  | Change of sum of eigenvalues  : -.3741E+01 eV
  | Change of total energy        : 0.4348E-02 eV

  End self-consistency iteration #     7       :  max(cpu_time)    wall_clock(cpu1)
  | Time for this iteration                    :        1.125 s           1.124 s
  | Charge density update                      :        0.355 s           0.354 s
  | Density mixing                             :        0.010 s           0.010 s
  | Hartree multipole update                   :        0.004 s           0.004 s
  | Hartree multipole summation                :        0.207 s           0.208 s
  | Integration                                :        0.518 s           0.517 s
  | Solution of K.-S. eqns.                    :        0.030 s           0.031 s
  | Total energy evaluation                    :        0.000 s           0.000 s
------------------------------------------------------------

------------------------------------------------------------
          Begin self-consistency iteration #    8

  Date     :  20150727, Time     :  122950.577
------------------------------------------------------------
  Evaluating new KS density.
  Integration grid: deviation in total charge (<rho> - N_e) =  -2.131628E-14
  Pulay mixing of updated and previous charge densities.

  Evaluating partitioned Hartree potential by multipole expansion.
  | Analytical far-field extrapolation by fixed multipoles:
  | Hartree multipole sum: apparent total charge =  -0.100428E-04
  Summing up the Hartree potential.
  Time summed over all CPUs for potential: real work        1.651 s, elapsed        1.656 s
  | RMS charge density error from multipole expansion :   0.162231E-01

  Integrating Hamiltonian matrix: batch-based integration.
  Time summed over all CPUs for integration: real work        4.067 s, elapsed        4.131 s

  Updating Kohn-Sham eigenvalues, eigenvectors, occupation numbers, and Fermi level.
  Solving generalized eigenproblem
  Updating Kohn-Sham eigenvalues and eigenfunctions.
  Solving real generalised eigenvalue problem by standard LAPACK (fast)
  Determining occupation numbers for Kohn-Sham eigenstates.
  | Chemical potential (Fermi level) in eV                 : -.33255108E+01
  | Error in electron count due to remaining E_F inaccuracy: 0.00000000E+00
  | Maximum occupation number of highest empty state:  0.00E+00

  Highest occupied state (VBM) at     -5.33118149 eV
  | Occupation number:      2.00000000

  Lowest unoccupied state (CBM) at    -1.79878553 eV
  | Occupation number:      0.00000000

  Overall HOMO-LUMO gap:      3.53239596 eV.

  Total energy components:
  | Sum of eigenvalues            :        -166.38750737 Ha       -4527.63443904 eV
  | XC energy correction          :         -37.26942295 Ha       -1014.15259793 eV
  | XC potential correction       :          47.63756323 Ha        1296.28404980 eV
  | Free-atom electrostatic energy:        -143.03323414 Ha       -3892.13233034 eV
  | Hartree energy correction     :          -7.14492593 Ha        -194.42332684 eV
  | van der Waals energy corr.    :           0.00000000 Ha           0.00000000 eV
  | Entropy correction            :           0.00000000 Ha           0.00000000 eV
  | ---------------------------
  | Total energy                  :        -306.19752715 Ha       -8332.05864434 eV
  | Total energy, T -> 0          :        -306.19752715 Ha       -8332.05864434 eV  <-- do not rely on this value for anything but (periodic) metals
  | Electronic free energy        :        -306.19752715 Ha       -8332.05864434 eV

  Derived energy quantities:
  | Kinetic energy                :         305.36140401 Ha        8309.30657610 eV
  | Electrostatic energy          :        -574.28950822 Ha      -15627.21262251 eV
  | Energy correction for multipole
  | error in Hartree potential    :          -0.00624436 Ha          -0.16991778 eV
  | Sum of eigenvalues per atom                           :        -377.30286992 eV
  | Total energy (T->0) per atom                          :        -694.33822036 eV  <-- do not rely on this value for anything but (periodic) metals
  | Electronic free energy per atom                       :        -694.33822036 eV

  Self-consistency convergence accuracy:
  | Change of charge density      : 0.1581E-02
  | Change of sum of eigenvalues  : 0.5919E-01 eV
  | Change of total energy        : 0.9292E-05 eV

  End self-consistency iteration #     8       :  max(cpu_time)    wall_clock(cpu1)
  | Time for this iteration                    :        1.126 s           1.126 s
  | Charge density update                      :        0.355 s           0.354 s
  | Density mixing                             :        0.011 s           0.011 s
  | Hartree multipole update                   :        0.004 s           0.004 s
  | Hartree multipole summation                :        0.208 s           0.208 s
  | Integration                                :        0.517 s           0.518 s
  | Solution of K.-S. eqns.                    :        0.031 s           0.030 s
  | Total energy evaluation                    :        0.000 s           0.001 s
------------------------------------------------------------

------------------------------------------------------------
          Begin self-consistency iteration #    9

  Date     :  20150727, Time     :  122951.703
------------------------------------------------------------
  Evaluating new KS density.
  Integration grid: deviation in total charge (<rho> - N_e) =   2.131628E-14
  Pulay mixing of updated and previous charge densities.

  Evaluating partitioned Hartree potential by multipole expansion.
  | Analytical far-field extrapolation by fixed multipoles:
  | Hartree multipole sum: apparent total charge =  -0.100348E-04
  Summing up the Hartree potential.
  Time summed over all CPUs for potential: real work        1.651 s, elapsed        1.656 s
  | RMS charge density error from multipole expansion :   0.162205E-01

  Integrating Hamiltonian matrix: batch-based integration.
  Time summed over all CPUs for integration: real work        4.071 s, elapsed        4.136 s

  Updating Kohn-Sham eigenvalues, eigenvectors, occupation numbers, and Fermi level.
  Solving generalized eigenproblem
  Updating Kohn-Sham eigenvalues and eigenfunctions.
  Solving real generalised eigenvalue problem by standard LAPACK (fast)
  Determining occupation numbers for Kohn-Sham eigenstates.
  | Chemical potential (Fermi level) in eV                 : -.33270481E+01
  | Error in electron count due to remaining E_F inaccuracy: 0.00000000E+00
  | Maximum occupation number of highest empty state:  0.00E+00

  Highest occupied state (VBM) at     -5.33988177 eV
  | Occupation number:      2.00000000

  Lowest unoccupied state (CBM) at    -1.79932363 eV
  | Occupation number:      0.00000000

  Overall HOMO-LUMO gap:      3.54055814 eV.

  Total energy components:
  | Sum of eigenvalues            :        -166.39314824 Ha       -4527.78793491 eV
  | XC energy correction          :         -37.26870200 Ha       -1014.13297995 eV
  | XC potential correction       :          47.63659550 Ha        1296.25771644 eV
  | Free-atom electrostatic energy:        -143.03323414 Ha       -3892.13233034 eV
  | Hartree energy correction     :          -7.13903721 Ha        -194.26308657 eV
  | van der Waals energy corr.    :           0.00000000 Ha           0.00000000 eV
  | Entropy correction            :           0.00000000 Ha           0.00000000 eV
  | ---------------------------
  | Total energy                  :        -306.19752609 Ha       -8332.05861532 eV
  | Total energy, T -> 0          :        -306.19752609 Ha       -8332.05861532 eV  <-- do not rely on this value for anything but (periodic) metals
  | Electronic free energy        :        -306.19752609 Ha       -8332.05861532 eV

  Derived energy quantities:
  | Kinetic energy                :         305.36429521 Ha        8309.38524962 eV
  | Electrostatic energy          :        -574.29311930 Ha      -15627.31088500 eV
  | Energy correction for multipole
  | error in Hartree potential    :          -0.00623162 Ha          -0.16957101 eV
  | Sum of eigenvalues per atom                           :        -377.31566124 eV
  | Total energy (T->0) per atom                          :        -694.33821794 eV  <-- do not rely on this value for anything but (periodic) metals
  | Electronic free energy per atom                       :        -694.33821794 eV

  Self-consistency convergence accuracy:
  | Change of charge density      : 0.1057E-02
  | Change of sum of eigenvalues  : -.1535E+00 eV
  | Change of total energy        : 0.2902E-04 eV

  End self-consistency iteration #     9       :  max(cpu_time)    wall_clock(cpu1)
  | Time for this iteration                    :        1.128 s           1.128 s
  | Charge density update                      :        0.354 s           0.355 s
  | Density mixing                             :        0.011 s           0.012 s
  | Hartree multipole update                   :        0.004 s           0.004 s
  | Hartree multipole summation                :        0.207 s           0.208 s
  | Integration                                :        0.519 s           0.518 s
  | Solution of K.-S. eqns.                    :        0.030 s           0.031 s
  | Total energy evaluation                    :        0.000 s           0.000 s
------------------------------------------------------------

------------------------------------------------------------
          Begin self-consistency iteration #   10

  Date     :  20150727, Time     :  122952.831
------------------------------------------------------------
  Evaluating new KS density.
  Integration grid: deviation in total charge (<rho> - N_e) =  -7.105427E-15
  Pulay mixing of updated and previous charge densities.

  Evaluating partitioned Hartree potential by multipole expansion.
  | Analytical far-field extrapolation by fixed multipoles:
  | Hartree multipole sum: apparent total charge =  -0.100302E-04
  Summing up the Hartree potential.
  Time summed over all CPUs for potential: real work        1.651 s, elapsed        1.656 s
  | RMS charge density error from multipole expansion :   0.162260E-01

  Integrating Hamiltonian matrix: batch-based integration.
  Time summed over all CPUs for integration: real work        4.062 s, elapsed        4.123 s

  Updating Kohn-Sham eigenvalues, eigenvectors, occupation numbers, and Fermi level.
  Solving generalized eigenproblem
[...]
  |                                 -0.01124751       0.11757948       0.00626500
  |                                 -0.00713298       0.00626500       0.10856764
  ----------------------------------------------------------------------


  Total energy components:
  | Sum of eigenvalues            :        -166.39434053 Ha       -4527.82037875 eV
  | XC energy correction          :         -37.26855693 Ha       -1014.12903227 eV
  | XC potential correction       :          47.63638662 Ha        1296.25203249 eV
  | Free-atom electrostatic energy:        -143.03323414 Ha       -3892.13233034 eV
  | Hartree energy correction     :          -7.13778054 Ha        -194.22889064 eV
  | van der Waals energy corr.    :          -0.00145756 Ha          -0.03966229 eV
  | Entropy correction            :           0.00000000 Ha           0.00000000 eV
  | ---------------------------
  | Total energy                  :        -306.19898307 Ha       -8332.09826178 eV
  | Total energy, T -> 0          :        -306.19898307 Ha       -8332.09826178 eV  <-- do not rely on this value for anything but (periodic) metals
  | Electronic free energy        :        -306.19898307 Ha       -8332.09826178 eV

  Derived energy quantities:
  | Kinetic energy                :         305.36723258 Ha        8309.46517945 eV
  | Electrostatic energy          :        -574.29620116 Ha      -15627.39474668 eV
  | Energy correction for multipole
  | error in Hartree potential    :          -0.00622832 Ha          -0.16948118 eV
  | Sum of eigenvalues per atom                           :        -377.31836490 eV
  | Total energy (T->0) per atom                          :        -694.34152182 eV  <-- do not rely on this value for anything but (periodic) metals
  | Electronic free energy per atom                       :        -694.34152182 eV

  atomic forces [eV/Ang]:
  -----------------------
  atom #    1
   Hellmann-Feynman + Multipole  : -.702108E+01 -.109975E+02 0.295029E+01
   Pulay + GGA                   : 0.773931E+01 0.135608E+02 -.380230E+01
   Van der Waals               : 0.327741E-02 0.303000E-04 0.406214E-02
   ----------------------------------------------------------------
   Total forces(   1)            : 0.721511E+00 0.256331E+01 -.847948E+00
  atom #    2
   Hellmann-Feynman + Multipole  : 0.184912E+01 -.296640E+01 0.128872E+01
   Pulay + GGA                   : -.667163E-02 0.604721E-01 -.305787E-01
   Van der Waals               : 0.133366E-02 0.156252E-02 0.275898E-02
   ----------------------------------------------------------------
   Total forces(   2)            : 0.184378E+01 -.290437E+01 0.126090E+01
  atom #    3
   Hellmann-Feynman + Multipole  : -.218821E+01 -.480433E+00 -.113746E+00
   Pulay + GGA                   : 0.119920E+00 0.425476E-01 -.297588E-03
   Van der Waals               : 0.150286E-02 0.290696E-02 0.266603E-02
   ----------------------------------------------------------------
   Total forces(   3)            : -.206679E+01 -.434978E+00 -.111378E+00
  atom #    4
   Hellmann-Feynman + Multipole  : -.621875E+01 -.891787E+01 0.927015E+01
   Pulay + GGA                   : 0.643015E+01 0.988978E+01 -.669538E+01
   Van der Waals               : -.198590E-02 0.591211E-02 0.416640E-02
   ----------------------------------------------------------------
   Total forces(   4)            : 0.209405E+00 0.977825E+00 0.257893E+01
  atom #    5
   Hellmann-Feynman + Multipole  : -.423818E+00 -.791241E+00 -.454498E+00
   Pulay + GGA                   : 0.476871E-01 0.125446E+00 0.371584E-01
   Van der Waals               : 0.157329E-02 0.169269E-02 0.364474E-02
   ----------------------------------------------------------------
   Total forces(   5)            : -.374557E+00 -.664102E+00 -.413695E+00
  atom #    6
   Hellmann-Feynman + Multipole  : -.248408E+00 0.403254E+00 -.232192E+01
   Pulay + GGA                   : -.370472E-01 0.380991E-01 -.124741E+00
   Van der Waals               : 0.784581E-03 -.141926E-03 0.104416E-02
   ----------------------------------------------------------------
   Total forces(   6)            : -.284671E+00 0.441211E+00 -.244561E+01
  atom #    7
   Hellmann-Feynman + Multipole  : -.188221E+01 -.363860E+01 -.167506E+02
   Pulay + GGA                   : 0.261514E+01 0.406881E+01 0.151405E+02
   Van der Waals               : -.109672E-01 -.224900E-02 -.431104E-02
   ----------------------------------------------------------------
   Total forces(   7)            : 0.721963E+00 0.427964E+00 -.161439E+01
  atom #    8
   Hellmann-Feynman + Multipole  : -.521466E+00 -.329764E+00 0.326891E+00
   Pulay + GGA                   : 0.102971E+00 0.763937E-01 0.539687E-01
   Van der Waals               : -.180125E-02 -.439555E-03 -.620442E-03
   ----------------------------------------------------------------
   Total forces(   8)            : -.420296E+00 -.253809E+00 0.380240E+00
  atom #    9
   Hellmann-Feynman + Multipole  : -.325317E+00 -.129047E+00 0.108335E+01
   Pulay + GGA                   : -.795037E-01 -.391078E-01 0.957087E-01
   Van der Waals               : -.552692E-02 -.431530E-03 -.378904E-02
   ----------------------------------------------------------------
   Total forces(   9)            : -.410348E+00 -.168586E+00 0.117527E+01
  atom #   10
   Hellmann-Feynman + Multipole  : 0.101801E+01 -.163010E+02 0.210251E+01
   Pulay + GGA                   : 0.333943E+00 0.164352E+02 -.395439E+01
   Van der Waals               : 0.637587E-02 -.400108E-02 -.669707E-02
   ----------------------------------------------------------------
   Total forces(  10)            : 0.135833E+01 0.130212E+00 -.185857E+01
  atom #   11
   Hellmann-Feynman + Multipole  : -.246158E+00 0.556984E+00 0.190556E+00
   Pulay + GGA                   : -.765220E-01 0.980431E-01 0.863253E-01
   Van der Waals               : 0.105190E-02 -.761431E-03 -.879701E-03
   ----------------------------------------------------------------
   Total forces(  11)            : -.321628E+00 0.654265E+00 0.276002E+00
  atom #   12
   Hellmann-Feynman + Multipole  : -.102839E+01 -.833264E+00 0.173655E+01
   Pulay + GGA                   : 0.530514E-01 0.731110E-01 -.121642E+00
   Van der Waals               : 0.438169E-02 -.408006E-02 -.204516E-02
   ----------------------------------------------------------------
   Total forces(  12)            : -.970962E+00 -.764233E+00 0.161286E+01
  Timings for vdw_correction_hirshfeld (Tkatchenko-Scheffler 2009):
  | CPU time:        2.947 s, Wall clock time:        2.947 s.
  Removing unitary transformations (pure translations, rotations) from forces on atoms.
  Atomic forces before filtering:
  | Net force on center of mass :  0.573752E-02 0.471569E-02 -.740207E-02 eV/A
  | Net torque on center of mass:  0.176386E-02 -.434719E-02 -.121245E-02 eV
  Atomic forces after filtering:
  | Net force on center of mass :  0.356812E-15 -.178406E-15 -.356812E-15 eV/A
  | Net torque on center of mass:  0.113290E-14 -.113290E-14 -.226580E-14 eV
 
  Energy and forces in a compact form:
  | Total energy uncorrected      :         -0.833209826178276E+04 eV
  | Total energy corrected        :         -0.833209826178276E+04 eV  <-- do not rely on this value for anything but (periodic) metals
  | Electronic free energy        :         -0.833209826178276E+04 eV
  Total atomic forces (unitary forces cleaned) [eV/Ang]:
  |   1          0.721066881458352E+00          0.256288774852625E+01         -0.847254219298683E+00
  |   2          0.184325433869789E+01         -0.290482891104512E+01          0.126160570568034E+01
  |   3         -0.206724156829152E+01         -0.435349416224493E+00         -0.110781640383705E+00
  |   4          0.208779144936034E+00          0.977309532967301E+00          0.257966332276220E+01
  |   5         -0.375191959506040E+00         -0.664581850451439E+00         -0.413034597779011E+00
  |   6         -0.285385011099201E+00          0.440656075614939E+00         -0.244487617018062E+01
  |   7          0.721554099439773E+00          0.427717642697972E+00         -0.161398057828673E+01
  |   8         -0.420701996151574E+00         -0.254005346882045E+00          0.380561141665951E+00
  |   9         -0.410678620985269E+00         -0.168836349426518E+00          0.117573463955985E+01
  |  10          0.135795999444528E+01          0.129811017570534E+00         -0.185786837569405E+01
  |  11         -0.321990281423931E+00          0.653857226394746E+00          0.276725241475473E+00
  |  12         -0.971425021519797E+00         -0.764637369742128E+00          0.161350553047899E+01
 
  ------------------------------------ 
  Start decomposition of the XC Energy 
  ------------------------------------ 
  Hartree-Fock part   :          0.000000000 Ha              0.000000000 eV
  ------------------------------------ 
  X Energy            :        -35.966381107 Ha           -978.695025366 eV
  C Energy GGA        :         -1.302175819 Ha            -35.434006902 eV
  Total XC Energy     :        -37.268556926 Ha          -1014.129032268 eV
  LDA X and C from self-consistent density 
  X Energy LDA        :        -32.394007177 Ha           -881.485784792 eV
  C Energy LDA        :         -2.637204771 Ha            -71.761993037 eV
  ------------------------------------ 
  End decomposition of the XC Energy 
  ------------------------------------ 
  Performing Hirshfeld analysis of fragment charges and moments.
  ----------------------------------------------------------------------
  | Atom     1: O
  |   Hirshfeld charge        :     -0.37153909
  |   Free atom volume        :     23.95238533
  |   Hirshfeld volume        :     24.19389839
  |   Hirshfeld dipole vector :      0.02485566       0.06598075      -0.01310284
  |   Hirshfeld dipole moment :      0.07171435
  |   Hirshfeld second moments:      0.01868778      -0.01848230       0.02598517
  |                                 -0.01848230      -0.06346572      -0.02108349
  |                                  0.02598517      -0.02108349      -0.10590587
  ----------------------------------------------------------------------
  | Atom     2: H
  |   Hirshfeld charge        :      0.07046633
  |   Free atom volume        :     10.44207651
  |   Hirshfeld volume        :      8.36405226
  |   Hirshfeld dipole vector :     -0.02336760       0.03835436      -0.01723056
  |   Hirshfeld dipole moment :      0.04810400
  |   Hirshfeld second moments:      0.07510461       0.02989845      -0.00053399
  |                                  0.02989845       0.02854312       0.01400527
  |                                 -0.00053399       0.01400527       0.06142215
  ----------------------------------------------------------------------
  | Atom     3: H
  |   Hirshfeld charge        :      0.10125386
  |   Free atom volume        :     10.44207651
  |   Hirshfeld volume        :      7.77897409
  |   Hirshfeld dipole vector :      0.11319710       0.02490913       0.00636496
  |   Hirshfeld dipole moment :      0.11607997
  |   Hirshfeld second moments:      0.08587396      -0.01915421       0.00134440
  |                                 -0.01915421       0.07964646      -0.01426588
  |                                  0.00134440      -0.01426588       0.06779972
  ----------------------------------------------------------------------
  | Atom     4: O
  |   Hirshfeld charge        :     -0.16946454
  |   Free atom volume        :     23.95238533
  |   Hirshfeld volume        :     19.83712987
  |   Hirshfeld dipole vector :      0.02814305      -0.00893224      -0.01518090
  |   Hirshfeld dipole moment :      0.03320054
  |   Hirshfeld second moments:      0.05362818       0.01960968       0.02837516
  |                                  0.01960968       0.09801169       0.01190687
  |                                  0.02837516       0.01190687       0.11265160
  ----------------------------------------------------------------------
  | Atom     5: H
  |   Hirshfeld charge        :      0.18093111
  |   Free atom volume        :     10.44207651
  |   Hirshfeld volume        :      6.11580766
  |   Hirshfeld dipole vector :      0.05522962       0.09029869       0.03896926
  |   Hirshfeld dipole moment :      0.11279524
  |   Hirshfeld second moments:      0.11147289      -0.00299686       0.00033269
  |                                 -0.00299686       0.12584482      -0.00591013
  |                                  0.00033269      -0.00591013       0.13630052
  ----------------------------------------------------------------------
  | Atom     6: H
  |   Hirshfeld charge        :      0.17742543
  |   Free atom volume        :     10.44207651
  |   Hirshfeld volume        :      5.54041937
  |   Hirshfeld dipole vector :     -0.01881129       0.00898972      -0.12073128
  |   Hirshfeld dipole moment :      0.12251825
  |   Hirshfeld second moments:      0.13059169       0.01057081       0.00769505
  |                                  0.01057081       0.14498045       0.00471329
  |                                  0.00769505       0.00471329       0.13163681
  ----------------------------------------------------------------------
  | Atom     7: O
  |   Hirshfeld charge        :     -0.29392705
  |   Free atom volume        :     23.95238533
  |   Hirshfeld volume        :     21.45850662
  |   Hirshfeld dipole vector :      0.00614390       0.00311709       0.05930900
  |   Hirshfeld dipole moment :      0.05970779
  |   Hirshfeld second moments:      0.05729157       0.05524067      -0.01406886
  |                                  0.05524067       0.00375641      -0.00371353
  |                                 -0.01406886      -0.00371353       0.01840022
  ----------------------------------------------------------------------
  | Atom     8: H
  |   Hirshfeld charge        :      0.15162192
  |   Free atom volume        :     10.44207651
  |   Hirshfeld volume        :      6.08691063
  |   Hirshfeld dipole vector :      0.10107903       0.06649345       0.03788630
  |   Hirshfeld dipole moment :      0.12678218
  |   Hirshfeld second moments:      0.12136156       0.01171219      -0.01276942
  |                                  0.01171219       0.10828727      -0.00623087
  |                                 -0.01276942      -0.00623087       0.12423099
  ----------------------------------------------------------------------
  | Atom     9: H
  |   Hirshfeld charge        :      0.14908054
  |   Free atom volume        :     10.44207651
  |   Hirshfeld volume        :      6.68267417
  |   Hirshfeld dipole vector :     -0.06700920      -0.04300824       0.08557239
  |   Hirshfeld dipole moment :      0.11688702
  |   Hirshfeld second moments:      0.10439275       0.01457108       0.01213717
  |                                  0.01457108       0.10617168       0.00011756
  |                                  0.01213717       0.00011756       0.11068385
  ----------------------------------------------------------------------
  | Atom    10: O
  |   Hirshfeld charge        :     -0.28396918
  |   Free atom volume        :     23.95238533
  |   Hirshfeld volume        :     21.75053500
  |   Hirshfeld dipole vector :     -0.00304322       0.04963749      -0.00627489
  |   Hirshfeld dipole moment :      0.05012500
  |   Hirshfeld second moments:      0.00654979      -0.01729243      -0.06048255
  |                                 -0.01729243       0.01171094       0.00479784
  |                                 -0.06048255       0.00479784       0.04109837
  ----------------------------------------------------------------------
  | Atom    11: H
  |   Hirshfeld charge        :      0.14431671
  |   Free atom volume        :     10.44207651
  |   Hirshfeld volume        :      6.16222309
  |   Hirshfeld dipole vector :     -0.06390837       0.08590392       0.06753773
  |   Hirshfeld dipole moment :      0.12659032
  |   Hirshfeld second moments:      0.11114468       0.00237765      -0.01657510
  |                                  0.00237765       0.11333757      -0.00847537
  |                                 -0.01657510      -0.00847537       0.12414340
  ----------------------------------------------------------------------
  | Atom    12: H
  |   Hirshfeld charge        :      0.14375832
  |   Free atom volume        :     10.44207651
  |   Hirshfeld volume        :      6.62758119
  |   Hirshfeld dipole vector :      0.05123234       0.05252663      -0.08866579
  |   Hirshfeld dipole moment :      0.11508876
  |   Hirshfeld second moments:      0.09462010      -0.01124751      -0.00713298
  |                                 -0.01124751       0.11757948       0.00626500
  |                                 -0.00713298       0.00626500       0.10856764
  ----------------------------------------------------------------------


------------------------------------------------------------------------------
  Final output of selected total energy values:

  The following output summarizes some interesting total energy values
  at the end of a run (AFTER all relaxation, molecular dynamics, etc.).

  | Total energy of the DFT / Hartree-Fock s.c.f. calculation      :          -8332.098261783 eV
  | Final zero-broadening corrected energy (caution - metals only) :          -8332.098261783 eV
  | For reference only, the value of 1 Hartree used in FHI-aims is :             27.211384500 eV

  Before relying on these values, please be sure to understand exactly which
  total energy value is referred to by a given number. Different objects may
  all carry the same name 'total energy'. Definitions:

  Total energy of the DFT / Hartree-Fock s.c.f. calculation:
  | Note that this energy does not include ANY quantities calculated after the
  | s.c.f. cycle, in particular not ANY RPA, MP2, etc. many-body perturbation terms.

  Final zero-broadening corrected energy:
  | For metallic systems only, a broadening of the occupation numbers at the Fermi
  | level can be extrapolated back to zero broadening by an electron-gas inspired
  | formula. For all systems that are not real metals, this value can be
  | meaningless and should be avoided.

------------------------------------------------------------------------------

------------------------------------------------------------
          Leaving FHI-aims.
          Date     :  20150727, Time     :  123001.864

          Computational steps:
          | Number of self-consistency cycles          :           15

          Detailed time accounting                     :  max(cpu_time)    wall_clock(cpu1)
          | Total time                                 :       20.987 s          21.011 s
          | Preparation time                           :        0.169 s           0.556 s
          | Grid partitioning                          :        0.121 s           0.120 s
          | Preloading free-atom quantities on grid    :        0.013 s           0.013 s
          | Free-atom superposition energy             :        0.046 s           0.046 s
          | Total time for integrations                :        8.568 s           8.572 s
          | Total time for solution of K.-S. equations :        0.580 s           0.580 s
          | Total time for density & force components  :        6.805 s           6.807 s
          | Total time for mixing                      :        0.151 s           0.150 s
          | Total time for Hartree multipole update    :        0.061 s           0.062 s
          | Total time for Hartree multipole sum       :        3.807 s           3.806 s
          | Total time for total energy evaluation     :        0.004 s           0.005 s
          | Total time for scaled ZORA corrections     :        0.000 s           0.000 s
          | Total time for TS (2009) vdW correction    :        0.035 s           0.035 s

          Have a nice day.
------------------------------------------------------------
