  MPI-parallelism will be employed.
------------------------------------------------------------
          Invoking FHI-aims ...
          Version 081213
          Compiled on 2013/08/29 at 17:41:06 on host generoso.

          When using FHI-aims, please cite the following reference:

          Volker Blum, Ralf Gehrke, Felix Hanke, Paula Havu,
          Ville Havu, Xinguo Ren, Karsten Reuter, and Matthias Scheffler,
          'Ab Initio Molecular Simulations with Numeric Atom-Centered Orbitals: FHI-aims',
          Computer Physics Communications 180, 2175-2196 (2009)

          For any questions about FHI-aims, please visit the aimsclub website
          with its forums and wiki. Contributions to both the forums and the
          wiki are warmly encouraged - they are for you, and everyone is welcome there.

------------------------------------------------------------

  Date     :  20150727, Time     :  123429.990
  Time zero on CPU 1             :   0.389930000000000E-01  s.
  Internal wall clock time zero  :           207232469.990  s.

  Using        8 parallel tasks.
  Task        0 on host gen60 reporting.
  Task        1 on host gen60 reporting.
  Task        2 on host gen60 reporting.
  Task        3 on host gen60 reporting.
  Task        4 on host gen60 reporting.
  Task        5 on host gen60 reporting.
  Task        6 on host gen60 reporting.
  Task        7 on host gen60 reporting.

  Performing system and environment tests:
  | Environment variable OMP_NUM_THREADS correctly set to 1.
  | Checking for scalapack...
  | No scalapack compiled in.

  Obtaining array dimensions for all initial allocations:
  
  -----------------------------------------------------------------------
  Parsing control.in (first pass over file, find array dimensions only).
  The contents of control.in will be repeated verbatim below
  unless switched off by setting 'verbatim_writeout .false.' .
  in the first line of control.in .
  -----------------------------------------------------------------------
  
  #########################################################################################
  #
  #  Volker Blum, FHI 2008 : Test run input file control.in
  #
  #########################################################################################
  #
  #  Physical model
  #
    xc                 rpbe
    spin               none
    relativistic       atomic_zora scalar
    charge             0.
   vdw_correction_hirshfeld
  #
  #  SCF convergence
  #
    occupation_type    gaussian 0.01
    mixer              pulay
      n_max_pulay        10
      charge_mix_param   0.1
    sc_accuracy_rho    5E-5
    sc_accuracy_eev    5E-3
    sc_accuracy_etot   5E-6
    sc_iter_limit      3000
  #
  #  Eigenvalue solver
  #
    KS_method          lapack
      empty_states       8
      basis_threshold    0.e-5
  #
  #  Efficiency
  #
  #   all previous settings are now default, except stratmann still
  #   undecided. Continue to handle stratmann with care, if at all.
  #
  #  partition_type stratmann
    partition_type rho_r2
  #  hartree_partition_type stratmann
  #
  #  Oprions for large clusters (100's of atoms: memory saving / better scaling)
  #
  # for periodic systems:
  #
    density_update_method orbital
    packed_matrix_format none
  #  k_grid 6 6 6
  #  output k_eigenvalue 1
  #  distributed_spline_storage .true.
  #
  #  Relaxation
  #
  #  relax_geometry   bfgs 5.e-3
    sc_accuracy_forces 5.E-4
    final_forces_cleaned .true.
  #
  #  Output options
  #
  #  output mulliken
    output Hirshfeld
  #  output dipole
  
  #harmonic_length_scale 0.001
  
  ################################################################################
  #
  #  FHI-aims code project
  #  VB, Fritz-Haber Institut, 2007
  #
  #  Suggested "safe" defaults for H atom (to be pasted into control.in file)
  #  Basis constructed for a non-relativistic H2 molecule using the
  #  PW-LDA functional.
  #
  ################################################################################
    species        H
  #     global species definitions
      nucleus             1
      cut_pot             4.0  2.0  1.0
      cut_free_atom       finite 8.0
      logarithmic         0.00010000 100.00  1.0123
      basis_dep_cutoff    1d-4  # 1d-4 is safe default - please check 5d-4 if you wish!
      radial_base         24 7.0
      radial_multiplier   2
      angular_grids       specified
        division   0.2783  110
        division   0.3822  194
        division   0.5626  302
  #      division   0.5922  434
  #      division   0.6227  590
  #      division   0.7206  770
        outer_grid  302
      l_hartree           4
  ################################################################################
  #
  #  Definition of "minimal" basis
  #
  ################################################################################
  #     valence basis states
      valence      1  s   1.
  #     ion occupancy
      ion_occ      1  s   0.5
  ################################################################################
  #
  #  Suggested additional basis functions. For production calculations,
  #  uncomment them one after another (the most important basis functions are
  #  listed first).
  #
  ################################################################################
  #  "First tier" - improvements: -1014.90 meV to -62.69 meV
       hydro 2 s 2.1
       hydro 2 p 3.5
  #  "Second tier" - improvements: -12.89 meV to -1.83 meV
       hydro 1 s 0.85
       hydro 2 p 3.7
       hydro 2 s 1.2
       hydro 3 d 7
  #  "Third tier" - improvements: -0.25 meV to -0.12 meV
  #     hydro 4 f 11.2
  #     hydro 3 p 4.8
  #     hydro 4 d 9
  #     hydro 3 s 3.2
  
  ################################################################################
  #
  #  FHI-aims code project
  #  VB, Fritz-Haber Institut, 2007
  #
  #  Suggested "safe" defaults for O atom (to be pasted into control.in file)
  #  All values have been tested for a non-relativistic, non-spinpolarized O2
  #  molecule using the PW-LDA functional. Validity for PBE is expected.
  #
  #  Constructed for dimers: 1.0 A, 1.208 A, 1.5 A, 2.0 A, 3.0 A
  #
  ################################################################################
    species        O
  #     global species definitions
      nucleus             8
      mass                15.9994
      l_hartree           4
      cut_pot             4.0  2.0  1.0
      cut_free_atom       finite 8.0
      basis_dep_cutoff    1d-4  # 1d-4 is safe default - please check 5d-4 if you wish!
      logarithmic         0.00010000 100.00  1.0123
      radial_base         36 7.0
      radial_multiplier   2
       angular_grids specified
        division   0.4087  110
        division   0.5181  194
        division   0.6184  302
  #      division   0.7315  434
  #      division   0.7934  590
  #      division   0.9656  770
  #      division   1.4041  974
  #      outer_grid 974
        outer_grid 302
  ################################################################################
  #
  #  Definition of "minimal" basis
  #
  ################################################################################
  #     valence basis states
      valence      2  s   2.
      valence      2  p   4.
  #     ion occupancy
      ion_occ      2  s   1.
      ion_occ      2  p   3.
  ################################################################################
  #
  #  Suggested additional basis functions. For production calculations,
  #  uncomment them one after another (the most important basis functions are
  #  listed first).
  #
  ################################################################################
  #  "First tier" - improvements: -699.05 meV to -159.38 meV
       hydro 2 p 1.8
       hydro 3 d 7.6
       hydro 3 s 6.4
  #  "Second tier" - improvements: -49.91 meV to -5.39 meV
       hydro 4 f 11.6
       hydro 3 p 6.2
       hydro 3 d 5.6
       hydro 5 g 17.6
       hydro 1 s 0.75
  #  "Third tier" - improvements: -2.83 meV to -0.50 meV
  #     ionic 2 p auto
  #     hydro 4 f 10.8
  #     hydro 4 d 4.7
  #     hydro 2 s 6.8
  #  "Fourth tier" - improvements: -0.40 meV to -0.12 meV
  #     hydro 3 p 5
  #     hydro 3 s 3.3
  #     hydro 5 g 15.6
  #     hydro 4 f 17.6
  #     hydro 4 d 14
  # Further basis functions - -0.08 meV and below
  #     hydro 3 s 2.1
  #     hydro 4 d 11.6
  #     hydro 3 p 16
  #     hydro 2 s 17.2
  
  
  -----------------------------------------------------------------------
  Completed first pass over input file control.in .
  -----------------------------------------------------------------------
  
  
  -----------------------------------------------------------------------
  Parsing geometry.in (first pass over file, find array dimensions only).
  The contents of geometry.in will be repeated verbatim below
  unless switched off by setting 'verbatim_writeout .false.' .
  in the first line of geometry.in .
  -----------------------------------------------------------------------
  
  atom      -4.053030000      0.065001000     -1.525160000  O
  atom      -4.566710000      0.974813000     -1.912820000  H
  atom      -3.067820000      0.330172000     -1.477310000  H
  atom      -1.645860000      0.870179000     -1.502250000  O
  atom      -1.568890000      1.501730000     -0.721051000  H
  atom      -0.824432000      0.282220000     -1.377720000  H
  atom      -3.818880000      2.024990000      2.187990000  O
  atom      -3.690880000      1.961360000      3.202150000  H
  atom      -4.546490000      2.751300000      2.045370000  H
  atom      -4.066610000      4.258280000     -0.900064000  O
  atom      -3.224110000      3.876870000     -0.569443000  H
  atom      -3.737450000      5.116530000     -1.322720000  H
  
  -----------------------------------------------------------------------
  Completed first pass over input file geometry.in .
  -----------------------------------------------------------------------
  
 
  Basic array size parameters: 
  | Number of species                 :        2
  | Number of atoms                   :       12
  | Max. basis fn. angular momentum   :        4
  | Max. atomic/ionic basis occupied n:        2
  | Max. number of basis fn. types    :        2
  | Max. radial fns per species/type  :        8
  | Max. logarithmic grid size        :     1301
  | Max. radial integration grid size :       73
  | Max. angular integration grid size:      302
  | Max. angular grid division number :        8
  | Radial grid for Hartree potential :     1301
  | Number of spin channels           :        1

------------------------------------------------------------
          Reading file control.in.
------------------------------------------------------------
  XC: Using RPBE gradient-corrected functionals.
  Spin treatment: No spin polarisation.
  Scalar relativistic treatment of kinetic energy: on-site free-atom approximation to ZORA.
  Charge =   0.000000E+00: Neutral system requested explicitly.
  Using non-empirical van der Waals correction (Hirshfeld partitioning):
  Occupation type: Gaussian broadening, width =   0.100000E-01 eV.
  Using pulay charge density mixing.
  Pulay mixing - number of memorized iterations:   10
  Charge density mixing - mixing parameter:     0.1000
  Convergence accuracy of self-consistent charge density: 0.5000E-04
  Convergence accuracy of sum of eigenvalues: 0.5000E-02
  Convergence accuracy of total energy: 0.5000E-05
  Maximum number of s.-c. iterations  :  3000
  Kohn-Sham eigenvalues and eigenfunctions calculated by lapack diagonalisation (D&C).
  Number of empty states per atom:        8
  Threshold for basis singularities: 0.0000E+00
  Partition function in integrals calculations: rho / r^2
 Using packed matrix format           0
  Convergence accuracy of forces: 0.5000E-03
  Cleaning forces before final output.
  Hirshfeld charge analysis will be performed.
 
  Reading configuration options for species H                   .
  | Found nuclear charge :   1.0000
  | Found cutoff potl. onset [A], width [A], scale factor :    4.00000    2.00000    1.00000
  | Found cutoff specification for free atom: Cutoff potential begins at    8.00000 A.
  | Found logarithmic grid data [bohr] : 0.1000E-03 0.1000E+03 0.1012E+01
  | Threshold for basis-dependent cutoff potential is   0.100000E-03
  | Found data for basic radial integration grid :    24 points, outermost radius =    7.000 A
  | Found multiplier for basic radial grid :   2
  | Found angular grid specification: user-specified.
  | Specified grid contains     4 separate shells.
  | Check grid settings after all constraints further below.
  | Found l_max for Hartree potential  :   4
  | Found free-atom valence shell :  1 s   1.000
  | No ionic wave fns used. Skipping ion_occ.
  | Found hydrogenic basis function :  2 s   2.100
  | Found hydrogenic basis function :  2 p   3.500
  | Found hydrogenic basis function :  1 s   0.850
  | Found hydrogenic basis function :  2 p   3.700
  | Found hydrogenic basis function :  2 s   1.200
  | Found hydrogenic basis function :  3 d   7.000
  Species H                   : Missing cutoff potential type.
  Defaulting to exp(1/x)/(1-x)^2 type cutoff potential.
  Species H : On-site basis accuracy parameter (for Gram-Schmidt orthonormalisation) not specified.
  Using default value basis_acc =  0.1000000E-03.
  Species H                   : Using default innermost maximum threshold i_radial=  2 for radial functions.
  Species H                   : Basic radial grid will be enhanced according to radial_multiplier =   2, to contain    49 grid points.
 
  Reading configuration options for species O                   .
  | Found nuclear charge :   8.0000
  | Found atomic mass :    15.9994000000000      amu
  | Found l_max for Hartree potential  :   4
  | Found cutoff potl. onset [A], width [A], scale factor :    4.00000    2.00000    1.00000
  | Found cutoff specification for free atom: Cutoff potential begins at    8.00000 A.
  | Threshold for basis-dependent cutoff potential is   0.100000E-03
  | Found logarithmic grid data [bohr] : 0.1000E-03 0.1000E+03 0.1012E+01
  | Found data for basic radial integration grid :    36 points, outermost radius =    7.000 A
  | Found multiplier for basic radial grid :   2
  | Found angular grid specification: user-specified.
  | Specified grid contains     4 separate shells.
  | Check grid settings after all constraints further below.
  | Found free-atom valence shell :  2 s   2.000
  | Found free-atom valence shell :  2 p   4.000
  | No ionic wave fns used. Skipping ion_occ.
  | No ionic wave fns used. Skipping ion_occ.
  | Found hydrogenic basis function :  2 p   1.800
  | Found hydrogenic basis function :  3 d   7.600
  | Found hydrogenic basis function :  3 s   6.400
  | Found hydrogenic basis function :  4 f  11.600
  | Found hydrogenic basis function :  3 p   6.200
  | Found hydrogenic basis function :  3 d   5.600
  | Found hydrogenic basis function :  5 g  17.600
  | Found hydrogenic basis function :  1 s   0.750
  Species O                   : Missing cutoff potential type.
  Defaulting to exp(1/x)/(1-x)^2 type cutoff potential.
  Species O : On-site basis accuracy parameter (for Gram-Schmidt orthonormalisation) not specified.
  Using default value basis_acc =  0.1000000E-03.
  Species O                   : Using default innermost maximum threshold i_radial=  2 for radial functions.
  Species O                   : Basic radial grid will be enhanced according to radial_multiplier =   2, to contain    73 grid points.
 
  Finished reading input file 'control.in'. Consistency checks are next.
 
  Target number of points in a grid batch is not set. Defaulting to  100
  Method for grid partitioning is not set. Defaulting to parallel hash+maxmin partitioning.
  Batch size limit is not set. Defaulting to    200
  By default, will store active basis functions for each batch.
  If in need of memory, prune_basis_once .false. can be used to disable this option.
  communication_type for Hartree potential was not specified.
  Defaulting to calc_hartree .
  Pulay mixer: Number of initial linear mixing iterations not set.
  Defaulting to    0 iterations.
  Work space size for distributed Hartree potential not set.
  Defaulting to   0.200000E+03 MB.
  Algorithm-dependent basis array size parameters:
  | n_max_pulay                         :       10
  Geometry relaxation not requested: no relaxation will be performed.
  Handling of forces: Unphysical translation and rotation will be removed from forces.
  No accuracy limit for integral partition fn. given. Defaulting to 0.1000E-14.
  No threshold value for u(r) in integrations given. Defaulting to 0.1000E-05.
  No accuracy for occupation numbers given. Defaulting to 0.1000E-07.
  No threshold value for occupation numbers given. Defaulting to 0.0000E+00.
  No accuracy for fermi level given. Defaulting to 0.1000E-19.
  Maximum # of iterations to find E_F not set. Defaulting to  200.
  Will not use alltoall communication since running on < 1024 CPUs.
  Partitioning for Hartree potential was not defined. Using partition_type for integrals.
  | Reporting present value of keyword multip_moments_threshold  :       0.10000000E-09
  | This value may affect high angular momentum components of the Hartree potential in periodic systems.
  No q(lm)/r^(l+1) cutoff set for long-range Hartree potential.
  | Using default value of  0.100000E-09 .
  | Verify using the multipole_threshold keyword.
  Defaulting to new monopole extrapolation.
  Density update method: Loop over occupied states selected for charge density update.
------------------------------------------------------------


------------------------------------------------------------
          Reading geometry description geometry.in.
------------------------------------------------------------
  Input structure read successfully.
  The structure contains       12 atoms,  and a total of         40.000 electrons.

  Input geometry:
  | No unit cell requested.
  | Atomic structure:
  |       Atom                x [A]            y [A]            z [A]
  |    1: Species O             -4.053030         0.065001        -1.525160
  |    2: Species H             -4.566710         0.974813        -1.912820
  |    3: Species H             -3.067820         0.330172        -1.477310
  |    4: Species O             -1.645860         0.870179        -1.502250
  |    5: Species H             -1.568890         1.501730        -0.721051
  |    6: Species H             -0.824432         0.282220        -1.377720
  |    7: Species O             -3.818880         2.024990         2.187990
  |    8: Species H             -3.690880         1.961360         3.202150
  |    9: Species H             -4.546490         2.751300         2.045370
  |   10: Species O             -4.066610         4.258280        -0.900064
  |   11: Species H             -3.224110         3.876870        -0.569443
  |   12: Species H             -3.737450         5.116530        -1.322720
  |

  | The smallest distance between any two atoms is         0.98213547 AA.
  |
  | The first atom of this pair is atom number                     10 .
  | The second atom of this pair is atom number                    11 .

  Structure-dependent array size parameters: 
  | Maximum number of distinct radial functions  :       18
  | Maximum number of basis functions            :      276
  | Number of Kohn-Sham states (occupied + empty):       68
------------------------------------------------------------

------------------------------------------------------------
          Preparing all fixed parts of the calculation.
------------------------------------------------------------
  Determining machine precision:
    2.225073858507201E-308
  Setting up grids for atomic and cluster calculations.

  Creating wave function, potential, and density for free atoms.

  Species: H

  List of occupied orbitals and eigenvalues:
    n    l              occ      energy [Ha]    energy [eV]
    1    0           1.0000        -0.241408        -6.5691


  Species: O

  List of occupied orbitals and eigenvalues:
    n    l              occ      energy [Ha]    energy [eV]
    1    0           2.0000       -18.944147      -515.4965
    2    0           2.0000        -0.883529       -24.0421
    2    1           4.0000        -0.330176        -8.9845

  Creating fixed part of basis set: Ionic, confined, hydrogenic.
 
  H                    hydrogenic:
 
  List of hydrogenic basis orbitals: 
    n    l      effective z      eigenvalue [eV]  inner max. [A]     outer max. [A]     outer radius [A]   
    2    0         2.100000       -14.9965           0.193241           1.317192           5.372934
    2    1         3.500000       -41.6672           0.602363           0.602363           4.056010
    1    0         0.850000        -9.8292           0.624864           0.624864           5.372934
    2    1         3.700000       -46.5653           0.573616           0.573616           3.909951
    2    0         1.200000        -4.5995           0.334977           2.228160           5.505921
    3    2         7.000000       -74.0753           0.680692           0.680692           3.769152
 
 
  O                    hydrogenic:
 
  List of hydrogenic basis orbitals: 
    n    l      effective z      eigenvalue [eV]  inner max. [A]     outer max. [A]     outer radius [A]   
    2    1         1.800000       -11.0118           1.178546           1.178546           5.432516
    3    2         7.600000       -87.3182           0.624117           0.624117           3.541422
    3    0         6.400000       -61.9209           0.061166           1.081887           4.306510
    4    3        11.600000      -114.4238           0.731621           0.731621           3.584982
    3    1         6.200000       -58.1113           0.255677           1.030255           4.306510
    3    2         5.600000       -47.4081           0.847222           0.847222           4.413102
    5    4        17.600000      -168.5799           0.749730           0.749730           3.372413
    1    0         0.750000        -7.6499           0.705275           0.705275           5.366508
 

  Adding cutoff potential to free-atom effective potential.
  Creating atomic-like basis functions for current effective potential.

  Species H                   :

  List of atomic basis orbitals and eigenvalues:
    n    l      energy [Ha]    energy [eV]    outer radius [A]
    1    0        -0.241374        -6.5681       5.372934


  Species O                   :

  List of atomic basis orbitals and eigenvalues:
    n    l      energy [Ha]    energy [eV]    outer radius [A]
    1    0       -18.944147      -515.4965       1.415745
    2    0        -0.883529       -24.0421       5.048305
    2    1        -0.330173        -8.9845       5.301302

  Assembling full basis from fixed parts.
  | Species H :   atomic orbital   1 s accepted.
  | Species H :    hydro orbital   2 s accepted.
  | Species H :    hydro orbital   1 s accepted.
  | Species H :    hydro orbital   2 s accepted.
  | Species H :    hydro orbital   2 p accepted.
  | Species H :    hydro orbital   2 p accepted.
  | Species H :    hydro orbital   3 d accepted.
  | Species O :   atomic orbital   1 s accepted.
  | Species O :    hydro orbital   3 s accepted.
  | Species O :   atomic orbital   2 s accepted.
  | Species O :    hydro orbital   1 s accepted.
  | Species O :    hydro orbital   3 p accepted.
  | Species O :   atomic orbital   2 p accepted.
  | Species O :    hydro orbital   2 p accepted.
  | Species O :    hydro orbital   3 d accepted.
  | Species O :    hydro orbital   3 d accepted.
  | Species O :    hydro orbital   4 f accepted.
  | Species O :    hydro orbital   5 g accepted.
 
  Basis size parameters after reduction:
  | Total number of radial functions:       18
  | Total number of basis functions :      276
 
  Testing on-site integration grid accuracy.
  |  Species  Function  <phi|h_atom|phi> (log., in eV)  <phi|h_atom|phi> (rad., in eV)
           1        1                 -6.5683835025                 -6.5684759159
           1        2                 13.3711789951                 13.3708738703
           1        3                 23.6590910787                 23.6532055418
           1        4                 16.2963827186                 16.1870710655 ***
           1        5                 28.7627214838                 28.7627215090
           1        6                 59.5965249172                 59.5965950857
           1        7                 60.2220506392                 60.2220503827
           2        8               -515.4964576505               -515.4964530710
           2        9                 15.3030791347                 15.3030722972
           2       10                -21.7296094581                -21.7296135470
           2       11                 14.2969371730                 14.2969701621
           2       12                 21.0679693190                 21.0679697493
           2       13                 -2.3833606469                 -2.3833613176
           2       14                 13.7067136422                 13.7066766629
           2       15                 45.8013116808                 45.8013116965
           2       16                 52.2309815402                 52.2309831494
           2       17                 85.4120732416                 85.4120732763
           2       18                142.1019167745                142.1019167817
 * Note: Onsite integrals marked "***" above are less accurate than
 * onsite_accuracy_threshold =    0.03000 eV. Usually, this is harmless.
 * When in doubt, tighten the "radial" and/or "radial_multiplier" flags to check.

  Preparing densities etc. for the partition functions (integrals / Hartree potential).

  Preparations completed.
  max(cpu_time)          :      0.171 s.
  Wall clock time (cpu1) :      0.591 s.
------------------------------------------------------------

------------------------------------------------------------
          Begin self-consistency loop: Initialization.

          Date     :  20150727, Time     :  123430.608
------------------------------------------------------------

  Initializing index lists of integration centers etc. from given atomic structure:
  | Number of centers in hartree potential         :        12
  | Number of centers in hartree multipole         :        12
  | Number of centers in electron density summation:        12
  | Number of centers in basis integrals           :        12
  | Number of centers in integrals                 :        12
  Partitioning the integration grid into batches with parallel hashing+maxmin method.
  | Number of batches:     1633
  | Maximal batch size:     199
  | Minimal batch size:      53
  | Average batch size:      96.367
  | Standard deviation of batch sizes:      33.941

  Integration load balanced across     8 MPI tasks.
  Work distribution over tasks is as follows:
  Task     0 has      19709 integration points.
  Task     1 has      19634 integration points.
  Task     2 has      19709 integration points.
  Task     3 has      19640 integration points.
  Task     4 has      19621 integration points.
  Task     5 has      19717 integration points.
  Task     6 has      19669 integration points.
  Task     7 has      19669 integration points.
  Initializing partition tables, free-atom densities, potentials, etc. across the integration grid (initialize_grid_storage).
  | Net number of integration points:   157368
  | of which are non-zero points    :   156820
  Obtaining max. number of non-zero basis functions in each batch (get_n_compute_maxes).
  | Maximal number of non-zero basis functions:      274 in task     0
  | Maximal number of non-zero basis functions:      273 in task     1
  | Maximal number of non-zero basis functions:      273 in task     2
  | Maximal number of non-zero basis functions:      273 in task     3
  | Maximal number of non-zero basis functions:      273 in task     4
  | Maximal number of non-zero basis functions:      273 in task     5
  | Maximal number of non-zero basis functions:      274 in task     6
  | Maximal number of non-zero basis functions:      273 in task     7
  Integrating Hamiltonian matrix: batch-based integration.
  Time summed over all CPUs for integration: real work        4.136 s, elapsed        4.207 s
  Integrating overlap matrix.
  Time summed over all CPUs for integration: real work        2.166 s, elapsed        2.216 s

  Updating Kohn-Sham eigenvalues, eigenvectors, occupation numbers, and Fermi level.
  Solving generalized eigenproblem
  Updating Kohn-Sham eigenvalues and eigenfunctions.
  Transforming overlap matrix and checking for singularities.
  Overlap matrix is nonsingular:
  | Lowest eigenvalue:  0.314261E-03
  Solving real generalised eigenvalue problem by standard LAPACK (fast)
  Determining occupation numbers for Kohn-Sham eigenstates.
  | Chemical potential (Fermi level) in eV                 : -.50966967E+01
  | Error in electron count due to remaining E_F inaccuracy: 0.00000000E+00
  | Maximum occupation number of highest empty state:  0.00E+00

  Writing Kohn-Sham eigenvalues.

  State    Occupation    Eigenvalue [Ha]    Eigenvalue [eV]
      1       2.00000         -19.042424         -518.17073
      2       2.00000         -19.040029         -518.10555
      3       2.00000         -19.028683         -517.79682
      4       2.00000         -19.019450         -517.54557
      5       2.00000          -1.086742          -29.57176
      6       2.00000          -1.083058          -29.47151
      7       2.00000          -1.060064          -28.84582
      8       2.00000          -1.041668          -28.34522
      9       2.00000          -0.605190          -16.46806
     10       2.00000          -0.603025          -16.40915
     11       2.00000          -0.590370          -16.06478
     12       2.00000          -0.588830          -16.02289
     13       2.00000          -0.516276          -14.04858
     14       2.00000          -0.504863          -13.73802
     15       2.00000          -0.487789          -13.27341
     16       2.00000          -0.471527          -12.83091
     17       2.00000          -0.431585          -11.74402
     18       2.00000          -0.426945          -11.61777
     19       2.00000          -0.417423          -11.35865
     20       2.00000          -0.409323          -11.13824
     21       0.00000          -0.100797           -2.74284
     22       0.00000          -0.072161           -1.96360
     23       0.00000          -0.061162           -1.66429
     24       0.00000          -0.057986           -1.57787
     25       0.00000          -0.018920           -0.51484
     26       0.00000          -0.012233           -0.33286
     27       0.00000           0.027855            0.75798
     28       0.00000           0.041612            1.13232
     29       0.00000           0.068318            1.85902
     30       0.00000           0.073807            2.00838
     31       0.00000           0.083879            2.28245
     32       0.00000           0.094429            2.56954
     33       0.00000           0.099851            2.71708
     34       0.00000           0.104171            2.83463
     35       0.00000           0.107785            2.93298
     36       0.00000           0.115707            3.14854
     37       0.00000           0.132788            3.61334
     38       0.00000           0.143816            3.91343
     39       0.00000           0.151451            4.12118
     40       0.00000           0.165538            4.50453
     41       0.00000           0.173774            4.72863
     42       0.00000           0.182178            4.95732
     43       0.00000           0.209464            5.69981
     44       0.00000           0.223904            6.09273
     45       0.00000           0.246269            6.70132
     46       0.00000           0.269388            7.33043
     47       0.00000           0.289713            7.88349
     48       0.00000           0.310740            8.45568
     49       0.00000           0.329576            8.96822
     50       0.00000           0.343128            9.33700
     51       0.00000           0.356248            9.69399
     52       0.00000           0.363964            9.90396
     53       0.00000           0.370575           10.08386
     54       0.00000           0.390168           10.61702
     55       0.00000           0.397546           10.81778
     56       0.00000           0.412238           11.21756
     57       0.00000           0.417140           11.35096
     58       0.00000           0.434492           11.82312
     59       0.00000           0.435845           11.85996
     60       0.00000           0.464310           12.63451
     61       0.00000           0.487765           13.27277
     62       0.00000           0.504232           13.72086
     63       0.00000           0.506290           13.77684
     64       0.00000           0.520687           14.16862
     65       0.00000           0.534221           14.53688
     66       0.00000           0.560012           15.23871
     67       0.00000           0.627507           17.07534
     68       0.00000           0.686900           18.69151

  Highest occupied state (VBM) at    -11.13824287 eV
  | Occupation number:      2.00000000

  Lowest unoccupied state (CBM) at    -2.74283943 eV
  | Occupation number:      0.00000000

  Overall HOMO-LUMO gap:      8.39540344 eV.
  Calculating total energy contributions from superposition of free atom densities.

  Total energy components:
  | Sum of eigenvalues            :        -172.91052995 Ha       -4705.13491452 eV
  | XC energy correction          :         -36.37111224 Ha        -989.70831973 eV
  | XC potential correction       :          46.46300686 Ha        1264.32274471 eV
  | Free-atom electrostatic energy:        -143.62726979 Ha       -3908.29686292 eV
  | Hartree energy correction     :           0.00000000 Ha           0.00000000 eV
  | van der Waals energy corr.    :           0.00000000 Ha           0.00000000 eV
  | Entropy correction            :           0.00000000 Ha           0.00000000 eV
  | ---------------------------
  | Total energy                  :        -306.44590511 Ha       -8338.81735247 eV
  | Total energy, T -> 0          :        -306.44590511 Ha       -8338.81735247 eV  <-- do not rely on this value for anything but (periodic) metals
  | Electronic free energy        :        -306.44590511 Ha       -8338.81735247 eV

  Derived energy quantities:
  | Kinetic energy                :         303.18627175 Ha        8250.11821573 eV
  | Electrostatic energy          :        -573.26106463 Ha      -15599.22724847 eV
  | Energy correction for multipole
  | error in Hartree potential    :           0.00000000 Ha           0.00000000 eV
  | Sum of eigenvalues per atom                           :        -392.09457621 eV
  | Total energy (T->0) per atom                          :        -694.90144604 eV  <-- do not rely on this value for anything but (periodic) metals
  | Electronic free energy per atom                       :        -694.90144604 eV
  Initialize hartree_potential_storage
  Max. number of atoms included in rho_multipole:           12

  End scf initialization - timings             :  max(cpu_time)    wall_clock(cpu1)
  | Time for scf. initialization               :        1.195 s           1.195 s
  | Boundary condition initialization          :        0.000 s           0.001 s
  | Integration                                :        0.806 s           0.806 s
  | Solution of K.-S. eqns.                    :        0.118 s           0.118 s
  | Grid partitioning                          :        0.124 s           0.123 s
  | Preloading free-atom quantities on grid    :        0.014 s           0.013 s
  | Free-atom superposition energy             :        0.045 s           0.045 s
  | Total energy evaluation                    :        0.000 s           0.000 s
------------------------------------------------------------

------------------------------------------------------------
          Begin self-consistency iteration #    1

  Date     :  20150727, Time     :  123431.804
------------------------------------------------------------
  Evaluating new KS density.
  Integration grid: deviation in total charge (<rho> - N_e) =   1.421085E-14
  Pulay mixing of updated and previous charge densities.

  Evaluating partitioned Hartree potential by multipole expansion.
  | Analytical far-field extrapolation by fixed multipoles:
  | Hartree multipole sum: apparent total charge =  -0.162776E-05
  Summing up the Hartree potential.
  Time summed over all CPUs for potential: real work        1.653 s, elapsed        1.659 s
  | RMS charge density error from multipole expansion :   0.134047E-02

  Integrating Hamiltonian matrix: batch-based integration.
  Time summed over all CPUs for integration: real work        4.109 s, elapsed        4.192 s

  Updating Kohn-Sham eigenvalues, eigenvectors, occupation numbers, and Fermi level.
  Solving generalized eigenproblem
  Updating Kohn-Sham eigenvalues and eigenfunctions.
  Solving real generalised eigenvalue problem by standard LAPACK (fast)
  Determining occupation numbers for Kohn-Sham eigenstates.
  | Chemical potential (Fermi level) in eV                 : -.46589116E+01
  | Error in electron count due to remaining E_F inaccuracy: 0.00000000E+00
  | Maximum occupation number of highest empty state:  0.00E+00

  Writing Kohn-Sham eigenvalues.

  State    Occupation    Eigenvalue [Ha]    Eigenvalue [eV]
      1       2.00000         -18.977958         -516.41652
      2       2.00000         -18.965240         -516.07044
      3       2.00000         -18.954691         -515.78340
      4       2.00000         -18.933764         -515.21393
      5       2.00000          -1.055558          -28.72320
      6       2.00000          -1.046721          -28.48273
      7       2.00000          -1.023237          -27.84370
      8       2.00000          -0.995265          -27.08254
      9       2.00000          -0.578939          -15.75372
     10       2.00000          -0.572442          -15.57694
     11       2.00000          -0.559779          -15.23236
     12       2.00000          -0.552880          -15.04462
     13       2.00000          -0.481094          -13.09124
     14       2.00000          -0.468389          -12.74550
     15       2.00000          -0.451177          -12.27716
     16       2.00000          -0.429970          -11.70008
     17       2.00000          -0.395075          -10.75053
     18       2.00000          -0.388514          -10.57199
     19       2.00000          -0.378606          -10.30241
     20       2.00000          -0.361159           -9.82765
     21       0.00000          -0.092823           -2.52584
     22       0.00000          -0.064058           -1.74309
     23       0.00000          -0.052538           -1.42962
     24       0.00000          -0.048217           -1.31204
     25       0.00000          -0.012446           -0.33868
     26       0.00000          -0.004054           -0.11031
     27       0.00000           0.036005            0.97976
     28       0.00000           0.050545            1.37539
     29       0.00000           0.076721            2.08768
     30       0.00000           0.083442            2.27058
     31       0.00000           0.091499            2.48982
     32       0.00000           0.101355            2.75801
     33       0.00000           0.107596            2.92784
     34       0.00000           0.110494            3.00668
     35       0.00000           0.114868            3.12572
     36       0.00000           0.122642            3.33727
     37       0.00000           0.141702            3.85592
     38       0.00000           0.152426            4.14772
     39       0.00000           0.165009            4.49011
     40       0.00000           0.176083            4.79147
     41       0.00000           0.182388            4.96302
     42       0.00000           0.196312            5.34192
     43       0.00000           0.217123            5.90821
     44       0.00000           0.232160            6.31739
     45       0.00000           0.256896            6.99049
     46       0.00000           0.278041            7.56588
     47       0.00000           0.298127            8.11244
     48       0.00000           0.317947            8.65178
     49       0.00000           0.336610            9.15963
     50       0.00000           0.353576            9.62128
     51       0.00000           0.364652            9.92270
     52       0.00000           0.373921           10.17491
     53       0.00000           0.377733           10.27863
     54       0.00000           0.397698           10.82192
     55       0.00000           0.406393           11.05852
     56       0.00000           0.420928           11.45402
     57       0.00000           0.425293           11.57281
     58       0.00000           0.443486           12.06787
     59       0.00000           0.444152           12.08599
     60       0.00000           0.474530           12.91261
     61       0.00000           0.499680           13.59699
     62       0.00000           0.514030           13.98746
     63       0.00000           0.515561           14.02914
     64       0.00000           0.531949           14.47507
     65       0.00000           0.544284           14.81071
     66       0.00000           0.571095           15.54027
     67       0.00000           0.640172           17.41996
     68       0.00000           0.700746           19.06826

  Highest occupied state (VBM) at     -9.82764805 eV
  | Occupation number:      2.00000000

  Lowest unoccupied state (CBM) at    -2.52584187 eV
  | Occupation number:      0.00000000

  Overall HOMO-LUMO gap:      7.30180618 eV.

  Total energy components:
  | Sum of eigenvalues            :        -171.14091685 Ha       -4656.98129209 eV
  | XC energy correction          :         -36.56131634 Ha        -994.88403668 eV
  | XC potential correction       :          46.71257885 Ha        1271.11394396 eV
  | Free-atom electrostatic energy:        -143.62726979 Ha       -3908.29686292 eV
  | Hartree energy correction     :          -1.71303324 Ha         -46.61400611 eV
  | van der Waals energy corr.    :           0.00000000 Ha           0.00000000 eV
  | Entropy correction            :           0.00000000 Ha           0.00000000 eV
  | ---------------------------
  | Total energy                  :        -306.32995737 Ha       -8335.66225384 eV
  | Total energy, T -> 0          :        -306.32995737 Ha       -8335.66225384 eV  <-- do not rely on this value for anything but (periodic) metals
  | Electronic free energy        :        -306.32995737 Ha       -8335.66225384 eV

  Derived energy quantities:
  | Kinetic energy                :         304.29763778 Ha        8280.36002397 eV
  | Electrostatic energy          :        -574.06627881 Ha      -15621.13824113 eV
  | Energy correction for multipole
  | error in Hartree potential    :          -0.00026694 Ha          -0.00726368 eV
  | Sum of eigenvalues per atom                           :        -388.08177434 eV
  | Total energy (T->0) per atom                          :        -694.63852115 eV  <-- do not rely on this value for anything but (periodic) metals
  | Electronic free energy per atom                       :        -694.63852115 eV

  Self-consistency convergence accuracy:
  | Change of charge density      : 0.5826E+00
  | Change of sum of eigenvalues  : 0.4815E+02 eV
  | Change of total energy        : 0.3155E+01 eV

  End self-consistency iteration #     1       :  max(cpu_time)    wall_clock(cpu1)
  | Time for this iteration                    :        1.136 s           1.135 s
  | Charge density update                      :        0.364 s           0.363 s
  | Density mixing                             :        0.003 s           0.002 s
  | Hartree multipole update                   :        0.005 s           0.005 s
  | Hartree multipole summation                :        0.208 s           0.208 s
  | Integration                                :        0.525 s           0.525 s
  | Solution of K.-S. eqns.                    :        0.031 s           0.031 s
  | Total energy evaluation                    :        0.000 s           0.000 s
------------------------------------------------------------

------------------------------------------------------------
          Begin self-consistency iteration #    2

  Date     :  20150727, Time     :  123432.940
------------------------------------------------------------
  Evaluating new KS density.
  Integration grid: deviation in total charge (<rho> - N_e) =  -2.131628E-14
  Pulay mixing of updated and previous charge densities.

  Evaluating partitioned Hartree potential by multipole expansion.
  | Analytical far-field extrapolation by fixed multipoles:
  | Hartree multipole sum: apparent total charge =  -0.449823E-05
  Summing up the Hartree potential.
  Time summed over all CPUs for potential: real work        1.653 s, elapsed        1.659 s
  | RMS charge density error from multipole expansion :   0.520084E-02

  Integrating Hamiltonian matrix: batch-based integration.
  Time summed over all CPUs for integration: real work        4.108 s, elapsed        4.185 s

  Updating Kohn-Sham eigenvalues, eigenvectors, occupation numbers, and Fermi level.
  Solving generalized eigenproblem
  Updating Kohn-Sham eigenvalues and eigenfunctions.
  Solving real generalised eigenvalue problem by standard LAPACK (fast)
  Determining occupation numbers for Kohn-Sham eigenstates.
  | Chemical potential (Fermi level) in eV                 : -.36085860E+01
  | Error in electron count due to remaining E_F inaccuracy: 0.00000000E+00
  | Maximum occupation number of highest empty state:  0.00E+00

  Highest occupied state (VBM) at     -6.87290890 eV
  | Occupation number:      2.00000000

  Lowest unoccupied state (CBM) at    -2.06754651 eV
  | Occupation number:      0.00000000

  Overall HOMO-LUMO gap:      4.80536240 eV.

  Total energy components:
  | Sum of eigenvalues            :        -167.21983843 Ha       -4550.28331944 eV
  | XC energy correction          :         -37.00151383 Ha       -1006.86241990 eV
  | XC potential correction       :          47.28975478 Ha        1286.81970012 eV
  | Free-atom electrostatic energy:        -143.62726979 Ha       -3908.29686292 eV
  | Hartree energy correction     :          -5.64431907 Ha        -153.58973639 eV
  | van der Waals energy corr.    :           0.00000000 Ha           0.00000000 eV
  | Entropy correction            :           0.00000000 Ha           0.00000000 eV
  | ---------------------------
  | Total energy                  :        -306.20318634 Ha       -8332.21263854 eV
  | Total energy, T -> 0          :        -306.20318634 Ha       -8332.21263854 eV  <-- do not rely on this value for anything but (periodic) metals
  | Electronic free energy        :        -306.20318634 Ha       -8332.21263854 eV

  Derived energy quantities:
  | Kinetic energy                :         306.37634606 Ha        8336.92455432 eV
  | Electrostatic energy          :        -575.57801857 Ha      -15662.27477295 eV
  | Energy correction for multipole
  | error in Hartree potential    :          -0.00154208 Ha          -0.04196214 eV
  | Sum of eigenvalues per atom                           :        -379.19027662 eV
  | Total energy (T->0) per atom                          :        -694.35105321 eV  <-- do not rely on this value for anything but (periodic) metals
  | Electronic free energy per atom                       :        -694.35105321 eV

  Self-consistency convergence accuracy:
  | Change of charge density      : 0.4376E+00
  | Change of sum of eigenvalues  : 0.1067E+03 eV
  | Change of total energy        : 0.3450E+01 eV

  End self-consistency iteration #     2       :  max(cpu_time)    wall_clock(cpu1)
  | Time for this iteration                    :        1.132 s           1.132 s
  | Charge density update                      :        0.360 s           0.360 s
  | Density mixing                             :        0.004 s           0.004 s
  | Hartree multipole update                   :        0.005 s           0.005 s
  | Hartree multipole summation                :        0.208 s           0.208 s
  | Integration                                :        0.524 s           0.524 s
  | Solution of K.-S. eqns.                    :        0.031 s           0.030 s
  | Total energy evaluation                    :        0.000 s           0.000 s
------------------------------------------------------------

------------------------------------------------------------
          Begin self-consistency iteration #    3

  Date     :  20150727, Time     :  123434.072
------------------------------------------------------------
  Evaluating new KS density.
  Integration grid: deviation in total charge (<rho> - N_e) =   7.105427E-15
  Pulay mixing of updated and previous charge densities.

  Evaluating partitioned Hartree potential by multipole expansion.
  | Analytical far-field extrapolation by fixed multipoles:
  | Hartree multipole sum: apparent total charge =  -0.443811E-05
  Summing up the Hartree potential.
  Time summed over all CPUs for potential: real work        1.653 s, elapsed        1.659 s
  | RMS charge density error from multipole expansion :   0.112179E-01

  Integrating Hamiltonian matrix: batch-based integration.
  Time summed over all CPUs for integration: real work        4.112 s, elapsed        4.179 s

  Updating Kohn-Sham eigenvalues, eigenvectors, occupation numbers, and Fermi level.
  Solving generalized eigenproblem
  Updating Kohn-Sham eigenvalues and eigenfunctions.
  Solving real generalised eigenvalue problem by standard LAPACK (fast)
  Determining occupation numbers for Kohn-Sham eigenstates.
  | Chemical potential (Fermi level) in eV                 : -.33609777E+01
  | Error in electron count due to remaining E_F inaccuracy: 0.00000000E+00
  | Maximum occupation number of highest empty state:  0.00E+00

  Highest occupied state (VBM) at     -6.57778167 eV
  | Occupation number:      2.00000000

  Lowest unoccupied state (CBM) at    -1.97791826 eV
  | Occupation number:      0.00000000

  Overall HOMO-LUMO gap:      4.59986341 eV.

  Total energy components:
  | Sum of eigenvalues            :        -167.42677612 Ha       -4555.91438060 eV
  | XC energy correction          :         -36.97938148 Ha       -1006.26016803 eV
  | XC potential correction       :          47.25722815 Ha        1285.93460553 eV
  | Free-atom electrostatic energy:        -143.62726979 Ha       -3908.29686292 eV
  | Hartree energy correction     :          -5.42218257 Ha        -147.54509474 eV
  | van der Waals energy corr.    :           0.00000000 Ha           0.00000000 eV
  | Entropy correction            :           0.00000000 Ha           0.00000000 eV
  | ---------------------------
  | Total energy                  :        -306.19838181 Ha       -8332.08190077 eV
  | Total energy, T -> 0          :        -306.19838181 Ha       -8332.08190077 eV  <-- do not rely on this value for anything but (periodic) metals
  | Electronic free energy        :        -306.19838181 Ha       -8332.08190077 eV

  Derived energy quantities:
  | Kinetic energy                :         304.66623152 Ha        8290.38997018 eV
  | Electrostatic energy          :        -573.88523186 Ha      -15616.21170292 eV
  | Energy correction for multipole
  | error in Hartree potential    :          -0.00568247 Ha          -0.15462799 eV
  | Sum of eigenvalues per atom                           :        -379.65953172 eV
  | Total energy (T->0) per atom                          :        -694.34015840 eV  <-- do not rely on this value for anything but (periodic) metals
  | Electronic free energy per atom                       :        -694.34015840 eV

  Self-consistency convergence accuracy:
  | Change of charge density      : 0.2308E+00
  | Change of sum of eigenvalues  : -.5631E+01 eV
  | Change of total energy        : 0.1307E+00 eV

  End self-consistency iteration #     3       :  max(cpu_time)    wall_clock(cpu1)
  | Time for this iteration                    :        1.129 s           1.129 s
  | Charge density update                      :        0.357 s           0.357 s
  | Density mixing                             :        0.005 s           0.005 s
  | Hartree multipole update                   :        0.005 s           0.004 s
  | Hartree multipole summation                :        0.208 s           0.208 s
  | Integration                                :        0.523 s           0.523 s
  | Solution of K.-S. eqns.                    :        0.031 s           0.031 s
  | Total energy evaluation                    :        0.000 s           0.000 s
------------------------------------------------------------

------------------------------------------------------------
          Begin self-consistency iteration #    4

  Date     :  20150727, Time     :  123435.201
------------------------------------------------------------
  Evaluating new KS density.
  Integration grid: deviation in total charge (<rho> - N_e) =  -1.421085E-14
  Pulay mixing of updated and previous charge densities.

  Evaluating partitioned Hartree potential by multipole expansion.
  | Analytical far-field extrapolation by fixed multipoles:
  | Hartree multipole sum: apparent total charge =  -0.540710E-05
  Summing up the Hartree potential.
  Time summed over all CPUs for potential: real work        1.652 s, elapsed        1.658 s
  | RMS charge density error from multipole expansion :   0.145027E-01

  Integrating Hamiltonian matrix: batch-based integration.
  Time summed over all CPUs for integration: real work        4.095 s, elapsed        4.162 s

  Updating Kohn-Sham eigenvalues, eigenvectors, occupation numbers, and Fermi level.
  Solving generalized eigenproblem
  Updating Kohn-Sham eigenvalues and eigenfunctions.
  Solving real generalised eigenvalue problem by standard LAPACK (fast)
  Determining occupation numbers for Kohn-Sham eigenstates.
  | Chemical potential (Fermi level) in eV                 : -.29248222E+01
  | Error in electron count due to remaining E_F inaccuracy: 0.00000000E+00
  | Maximum occupation number of highest empty state:  0.00E+00

  Highest occupied state (VBM) at     -5.41256755 eV
  | Occupation number:      2.00000000

  Lowest unoccupied state (CBM) at    -1.81829266 eV
  | Occupation number:      0.00000000

  Overall HOMO-LUMO gap:      3.59427489 eV.

  Total energy components:
  | Sum of eigenvalues            :        -166.07814612 Ha       -4519.21629121 eV
  | XC energy correction          :         -37.14817411 Ha       -1010.85324915 eV
  | XC potential correction       :          47.47818442 Ha        1291.94713151 eV
  | Free-atom electrostatic energy:        -143.62726979 Ha       -3908.29686292 eV
  | Hartree energy correction     :          -6.81296331 Ha        -185.39016432 eV
  | van der Waals energy corr.    :           0.00000000 Ha           0.00000000 eV
  | Entropy correction            :           0.00000000 Ha           0.00000000 eV
  | ---------------------------
  | Total energy                  :        -306.18836892 Ha       -8331.80943609 eV
  | Total energy, T -> 0          :        -306.18836892 Ha       -8331.80943609 eV  <-- do not rely on this value for anything but (periodic) metals
  | Electronic free energy        :        -306.18836892 Ha       -8331.80943609 eV

  Derived energy quantities:
  | Kinetic energy                :         304.85992622 Ha        8295.66067114 eV
  | Electrostatic energy          :        -573.90012104 Ha      -15616.61685809 eV
  | Energy correction for multipole
  | error in Hartree potential    :          -0.00746723 Ha          -0.20319375 eV
  | Sum of eigenvalues per atom                           :        -376.60135760 eV
  | Total energy (T->0) per atom                          :        -694.31745301 eV  <-- do not rely on this value for anything but (periodic) metals
  | Electronic free energy per atom                       :        -694.31745301 eV

  Self-consistency convergence accuracy:
  | Change of charge density      : 0.1247E+00
  | Change of sum of eigenvalues  : 0.3670E+02 eV
  | Change of total energy        : 0.2725E+00 eV

  End self-consistency iteration #     4       :  max(cpu_time)    wall_clock(cpu1)
  | Time for this iteration                    :        1.127 s           1.128 s
  | Charge density update                      :        0.356 s           0.357 s
  | Density mixing                             :        0.007 s           0.006 s
  | Hartree multipole update                   :        0.004 s           0.004 s
  | Hartree multipole summation                :        0.208 s           0.208 s
  | Integration                                :        0.521 s           0.522 s
  | Solution of K.-S. eqns.                    :        0.031 s           0.030 s
  | Total energy evaluation                    :        0.000 s           0.001 s
------------------------------------------------------------

------------------------------------------------------------
          Begin self-consistency iteration #    5

  Date     :  20150727, Time     :  123436.329
------------------------------------------------------------
  Evaluating new KS density.
  Integration grid: deviation in total charge (<rho> - N_e) =   3.552714E-14
  Pulay mixing of updated and previous charge densities.

  Evaluating partitioned Hartree potential by multipole expansion.
  | Analytical far-field extrapolation by fixed multipoles:
  | Hartree multipole sum: apparent total charge =  -0.534852E-05
  Summing up the Hartree potential.
  Time summed over all CPUs for potential: real work        1.653 s, elapsed        1.658 s
  | RMS charge density error from multipole expansion :   0.146749E-01

  Integrating Hamiltonian matrix: batch-based integration.
  Time summed over all CPUs for integration: real work        4.097 s, elapsed        4.166 s

  Updating Kohn-Sham eigenvalues, eigenvectors, occupation numbers, and Fermi level.
  Solving generalized eigenproblem
  Updating Kohn-Sham eigenvalues and eigenfunctions.
  Solving real generalised eigenvalue problem by standard LAPACK (fast)
  Determining occupation numbers for Kohn-Sham eigenstates.
  | Chemical potential (Fermi level) in eV                 : -.29350395E+01
  | Error in electron count due to remaining E_F inaccuracy: 0.00000000E+00
  | Maximum occupation number of highest empty state:  0.00E+00

  Highest occupied state (VBM) at     -5.38112696 eV
  | Occupation number:      2.00000000

  Lowest unoccupied state (CBM) at    -1.82396893 eV
  | Occupation number:      0.00000000

  Overall HOMO-LUMO gap:      3.55715803 eV.

  Total energy components:
  | Sum of eigenvalues            :        -166.09060293 Ha       -4519.55525814 eV
  | XC energy correction          :         -37.14795206 Ha       -1010.84720676 eV
  | XC potential correction       :          47.47757390 Ha        1291.93051854 eV
  | Free-atom electrostatic energy:        -143.62726979 Ha       -3908.29686292 eV
  | Hartree energy correction     :          -6.80000937 Ha        -185.03766966 eV
  | van der Waals energy corr.    :           0.00000000 Ha           0.00000000 eV
  | Entropy correction            :           0.00000000 Ha           0.00000000 eV
  | ---------------------------
  | Total energy                  :        -306.18826025 Ha       -8331.80647895 eV
  | Total energy, T -> 0          :        -306.18826025 Ha       -8331.80647895 eV  <-- do not rely on this value for anything but (periodic) metals
  | Electronic free energy        :        -306.18826025 Ha       -8331.80647895 eV

  Derived energy quantities:
  | Kinetic energy                :         304.89779624 Ha        8296.69116679 eV
  | Electrostatic energy          :        -573.93810443 Ha      -15617.65043898 eV
  | Energy correction for multipole
  | error in Hartree potential    :          -0.00743331 Ha          -0.20227067 eV
  | Sum of eigenvalues per atom                           :        -376.62960484 eV
  | Total energy (T->0) per atom                          :        -694.31720658 eV  <-- do not rely on this value for anything but (periodic) metals
  | Electronic free energy per atom                       :        -694.31720658 eV

  Self-consistency convergence accuracy:
  | Change of charge density      : 0.1880E-01
  | Change of sum of eigenvalues  : -.3390E+00 eV
  | Change of total energy        : 0.2957E-02 eV

  End self-consistency iteration #     5       :  max(cpu_time)    wall_clock(cpu1)
  | Time for this iteration                    :        1.130 s           1.130 s
  | Charge density update                      :        0.357 s           0.357 s
  | Density mixing                             :        0.008 s           0.007 s
  | Hartree multipole update                   :        0.004 s           0.005 s
  | Hartree multipole summation                :        0.208 s           0.208 s
  | Integration                                :        0.522 s           0.522 s
  | Solution of K.-S. eqns.                    :        0.031 s           0.030 s
  | Total energy evaluation                    :        0.000 s           0.001 s
------------------------------------------------------------

------------------------------------------------------------
          Begin self-consistency iteration #    6

  Date     :  20150727, Time     :  123437.459
------------------------------------------------------------
  Evaluating new KS density.
  Integration grid: deviation in total charge (<rho> - N_e) =   7.105427E-15
  Pulay mixing of updated and previous charge densities.

  Evaluating partitioned Hartree potential by multipole expansion.
  | Analytical far-field extrapolation by fixed multipoles:
  | Hartree multipole sum: apparent total charge =  -0.536739E-05
  Summing up the Hartree potential.
  Time summed over all CPUs for potential: real work        1.652 s, elapsed        1.658 s
  | RMS charge density error from multipole expansion :   0.150158E-01

  Integrating Hamiltonian matrix: batch-based integration.
  Time summed over all CPUs for integration: real work        4.098 s, elapsed        4.165 s

  Updating Kohn-Sham eigenvalues, eigenvectors, occupation numbers, and Fermi level.
  Solving generalized eigenproblem
  Updating Kohn-Sham eigenvalues and eigenfunctions.
  Solving real generalised eigenvalue problem by standard LAPACK (fast)
  Determining occupation numbers for Kohn-Sham eigenstates.
  | Chemical potential (Fermi level) in eV                 : -.29087228E+01
  | Error in electron count due to remaining E_F inaccuracy: 0.00000000E+00
  | Maximum occupation number of highest empty state:  0.00E+00

  Highest occupied state (VBM) at     -5.31114112 eV
  | Occupation number:      2.00000000

  Lowest unoccupied state (CBM) at    -1.81319789 eV
  | Occupation number:      0.00000000

  Overall HOMO-LUMO gap:      3.49794324 eV.

  Total energy components:
  | Sum of eigenvalues            :        -166.01269663 Ha       -4517.43531984 eV
  | XC energy correction          :         -37.15875929 Ha       -1011.14128647 eV
  | XC potential correction       :          47.49156512 Ha        1292.31123904 eV
  | Free-atom electrostatic energy:        -143.62726979 Ha       -3908.29686292 eV
  | Hartree energy correction     :          -6.88121284 Ha        -187.24732841 eV
  | van der Waals energy corr.    :           0.00000000 Ha           0.00000000 eV
  | Entropy correction            :           0.00000000 Ha           0.00000000 eV
  | ---------------------------
  | Total energy                  :        -306.18837342 Ha       -8331.80955860 eV
  | Total energy, T -> 0          :        -306.18837342 Ha       -8331.80955860 eV  <-- do not rely on this value for anything but (periodic) metals
  | Electronic free energy        :        -306.18837342 Ha       -8331.80955860 eV

  Derived energy quantities:
  | Kinetic energy                :         304.91641047 Ha        8297.19768567 eV
  | Electrostatic energy          :        -573.94602461 Ha      -15617.86595780 eV
  | Energy correction for multipole
  | error in Hartree potential    :          -0.00755558 Ha          -0.20559784 eV
  | Sum of eigenvalues per atom                           :        -376.45294332 eV
  | Total energy (T->0) per atom                          :        -694.31746322 eV  <-- do not rely on this value for anything but (periodic) metals
  | Electronic free energy per atom                       :        -694.31746322 eV

  Self-consistency convergence accuracy:
  | Change of charge density      : 0.8661E-02
  | Change of sum of eigenvalues  : 0.2120E+01 eV
  | Change of total energy        : -.3080E-02 eV

  End self-consistency iteration #     6       :  max(cpu_time)    wall_clock(cpu1)
  | Time for this iteration                    :        1.129 s           1.129 s
  | Charge density update                      :        0.355 s           0.355 s
  | Density mixing                             :        0.009 s           0.008 s
  | Hartree multipole update                   :        0.004 s           0.004 s
  | Hartree multipole summation                :        0.208 s           0.208 s
  | Integration                                :        0.522 s           0.522 s
  | Solution of K.-S. eqns.                    :        0.031 s           0.031 s
  | Total energy evaluation                    :        0.000 s           0.000 s
------------------------------------------------------------

------------------------------------------------------------
          Begin self-consistency iteration #    7

  Date     :  20150727, Time     :  123438.588
------------------------------------------------------------
  Evaluating new KS density.
  Integration grid: deviation in total charge (<rho> - N_e) =  -7.105427E-15
  Pulay mixing of updated and previous charge densities.

  Evaluating partitioned Hartree potential by multipole expansion.
  | Analytical far-field extrapolation by fixed multipoles:
  | Hartree multipole sum: apparent total charge =  -0.518591E-05
  Summing up the Hartree potential.
  Time summed over all CPUs for potential: real work        1.652 s, elapsed        1.658 s
  | RMS charge density error from multipole expansion :   0.149164E-01

  Integrating Hamiltonian matrix: batch-based integration.
  Time summed over all CPUs for integration: real work        4.097 s, elapsed        4.166 s

  Updating Kohn-Sham eigenvalues, eigenvectors, occupation numbers, and Fermi level.
  Solving generalized eigenproblem
  Updating Kohn-Sham eigenvalues and eigenfunctions.
  Solving real generalised eigenvalue problem by standard LAPACK (fast)
  Determining occupation numbers for Kohn-Sham eigenstates.
  | Chemical potential (Fermi level) in eV                 : -.29547371E+01
  | Error in electron count due to remaining E_F inaccuracy: 0.00000000E+00
  | Maximum occupation number of highest empty state:  0.00E+00

  Highest occupied state (VBM) at     -5.46088562 eV
  | Occupation number:      2.00000000

  Lowest unoccupied state (CBM) at    -1.82796468 eV
  | Occupation number:      0.00000000

  Overall HOMO-LUMO gap:      3.63292095 eV.

  Total energy components:
  | Sum of eigenvalues            :        -166.14724959 Ha       -4521.09669230 eV
  | XC energy correction          :         -37.14254806 Ha       -1010.70015664 eV
  | XC potential correction       :          47.46991526 Ha        1291.72211625 eV
  | Free-atom electrostatic energy:        -143.62726979 Ha       -3908.29686292 eV
  | Hartree energy correction     :          -6.74108182 Ha        -183.43416922 eV
  | van der Waals energy corr.    :           0.00000000 Ha           0.00000000 eV
  | Entropy correction            :           0.00000000 Ha           0.00000000 eV
  | ---------------------------
  | Total energy                  :        -306.18823400 Ha       -8331.80576483 eV
  | Total energy, T -> 0          :        -306.18823400 Ha       -8331.80576483 eV  <-- do not rely on this value for anything but (periodic) metals
  | Electronic free energy        :        -306.18823400 Ha       -8331.80576483 eV

  Derived energy quantities:
  | Kinetic energy                :         304.95404464 Ha        8298.22176354 eV
  | Electrostatic energy          :        -573.99973058 Ha      -15619.32737172 eV
  | Energy correction for multipole
  | error in Hartree potential    :          -0.00731537 Ha          -0.19906122 eV
  | Sum of eigenvalues per atom                           :        -376.75805769 eV
  | Total energy (T->0) per atom                          :        -694.31714707 eV  <-- do not rely on this value for anything but (periodic) metals
  | Electronic free energy per atom                       :        -694.31714707 eV

  Self-consistency convergence accuracy:
  | Change of charge density      : 0.1156E-01
  | Change of sum of eigenvalues  : -.3661E+01 eV
  | Change of total energy        : 0.3794E-02 eV

  End self-consistency iteration #     7       :  max(cpu_time)    wall_clock(cpu1)
  | Time for this iteration                    :        1.132 s           1.131 s
  | Charge density update                      :        0.356 s           0.356 s
  | Density mixing                             :        0.009 s           0.009 s
  | Hartree multipole update                   :        0.004 s           0.004 s
  | Hartree multipole summation                :        0.208 s           0.208 s
  | Integration                                :        0.522 s           0.522 s
  | Solution of K.-S. eqns.                    :        0.031 s           0.031 s
  | Total energy evaluation                    :        0.000 s           0.000 s
------------------------------------------------------------

------------------------------------------------------------
          Begin self-consistency iteration #    8

  Date     :  20150727, Time     :  123439.720
------------------------------------------------------------
  Evaluating new KS density.
  Integration grid: deviation in total charge (<rho> - N_e) =   0.000000E+00
  Pulay mixing of updated and previous charge densities.

  Evaluating partitioned Hartree potential by multipole expansion.
  | Analytical far-field extrapolation by fixed multipoles:
  | Hartree multipole sum: apparent total charge =  -0.518396E-05
  Summing up the Hartree potential.
  Time summed over all CPUs for potential: real work        1.652 s, elapsed        1.658 s
  | RMS charge density error from multipole expansion :   0.149380E-01

  Integrating Hamiltonian matrix: batch-based integration.
  Time summed over all CPUs for integration: real work        4.099 s, elapsed        4.177 s

  Updating Kohn-Sham eigenvalues, eigenvectors, occupation numbers, and Fermi level.
  Solving generalized eigenproblem
  Updating Kohn-Sham eigenvalues and eigenfunctions.
  Solving real generalised eigenvalue problem by standard LAPACK (fast)
  Determining occupation numbers for Kohn-Sham eigenstates.
  | Chemical potential (Fermi level) in eV                 : -.29535912E+01
  | Error in electron count due to remaining E_F inaccuracy: 0.00000000E+00
  | Maximum occupation number of highest empty state:  0.00E+00

  Highest occupied state (VBM) at     -5.44904949 eV
  | Occupation number:      2.00000000

  Lowest unoccupied state (CBM) at    -1.82798807 eV
  | Occupation number:      0.00000000

  Overall HOMO-LUMO gap:      3.62106142 eV.

  Total energy components:
  | Sum of eigenvalues            :        -166.14259545 Ha       -4520.97004674 eV
  | XC energy correction          :         -37.14309992 Ha       -1010.71517339 eV
  | XC potential correction       :          47.47062527 Ha        1291.74143673 eV
  | Free-atom electrostatic energy:        -143.62726979 Ha       -3908.29686292 eV
  | Hartree energy correction     :          -6.74589362 Ha        -183.56510521 eV
  | van der Waals energy corr.    :           0.00000000 Ha           0.00000000 eV
  | Entropy correction            :           0.00000000 Ha           0.00000000 eV
  | ---------------------------
  | Total energy                  :        -306.18823351 Ha       -8331.80575153 eV
  | Total energy, T -> 0          :        -306.18823351 Ha       -8331.80575153 eV  <-- do not rely on this value for anything but (periodic) metals
  | Electronic free energy        :        -306.18823351 Ha       -8331.80575153 eV

  Derived energy quantities:
  | Kinetic energy                :         304.95534796 Ha        8298.25722881 eV
  | Electrostatic energy          :        -574.00048156 Ha      -15619.34780695 eV
  | Energy correction for multipole
  | error in Hartree potential    :          -0.00732528 Ha          -0.19933100 eV
  | Sum of eigenvalues per atom                           :        -376.74750389 eV
  | Total energy (T->0) per atom                          :        -694.31714596 eV  <-- do not rely on this value for anything but (periodic) metals
  | Electronic free energy per atom                       :        -694.31714596 eV

  Self-consistency convergence accuracy:
  | Change of charge density      : 0.1247E-02
  | Change of sum of eigenvalues  : 0.1266E+00 eV
  | Change of total energy        : 0.1329E-04 eV

  End self-consistency iteration #     8       :  max(cpu_time)    wall_clock(cpu1)
  | Time for this iteration                    :        1.133 s           1.133 s
  | Charge density update                      :        0.356 s           0.356 s
  | Density mixing                             :        0.010 s           0.010 s
  | Hartree multipole update                   :        0.004 s           0.005 s
  | Hartree multipole summation                :        0.208 s           0.207 s
  | Integration                                :        0.523 s           0.523 s
  | Solution of K.-S. eqns.                    :        0.031 s           0.030 s
  | Total energy evaluation                    :        0.000 s           0.001 s
------------------------------------------------------------

------------------------------------------------------------
          Begin self-consistency iteration #    9

  Date     :  20150727, Time     :  123440.853
------------------------------------------------------------
  Evaluating new KS density.
  Integration grid: deviation in total charge (<rho> - N_e) =   1.421085E-14
  Pulay mixing of updated and previous charge densities.

  Evaluating partitioned Hartree potential by multipole expansion.
  | Analytical far-field extrapolation by fixed multipoles:
  | Hartree multipole sum: apparent total charge =  -0.518128E-05
  Summing up the Hartree potential.
  Time summed over all CPUs for potential: real work        1.652 s, elapsed        1.658 s
  | RMS charge density error from multipole expansion :   0.149459E-01

  Integrating Hamiltonian matrix: batch-based integration.
  Time summed over all CPUs for integration: real work        4.097 s, elapsed        4.186 s

  Updating Kohn-Sham eigenvalues, eigenvectors, occupation numbers, and Fermi level.
  Solving generalized eigenproblem
  Updating Kohn-Sham eigenvalues and eigenfunctions.
  Solving real generalised eigenvalue problem by standard LAPACK (fast)
  Determining occupation numbers for Kohn-Sham eigenstates.
  | Chemical potential (Fermi level) in eV                 : -.29531212E+01
  | Error in electron count due to remaining E_F inaccuracy: 0.00000000E+00
  | Maximum occupation number of highest empty state:  0.00E+00

  Highest occupied state (VBM) at     -5.44772899 eV
  | Occupation number:      2.00000000

  Lowest unoccupied state (CBM) at    -1.82785102 eV
  | Occupation number:      0.00000000

  Overall HOMO-LUMO gap:      3.61987797 eV.

  Total energy components:
  | Sum of eigenvalues            :        -166.14054720 Ha       -4520.91431096 eV
  | XC energy correction          :         -37.14332503 Ha       -1010.72129906 eV
  | XC potential correction       :          47.47090976 Ha        1291.74917805 eV
  | Free-atom electrostatic energy:        -143.62726979 Ha       -3908.29686292 eV
  | Hartree energy correction     :          -6.74800110 Ha        -183.62245253 eV
  | van der Waals energy corr.    :           0.00000000 Ha           0.00000000 eV
  | Entropy correction            :           0.00000000 Ha           0.00000000 eV
  | ---------------------------
  | Total energy                  :        -306.18823336 Ha       -8331.80574743 eV
  | Total energy, T -> 0          :        -306.18823336 Ha       -8331.80574743 eV  <-- do not rely on this value for anything but (periodic) metals
  | Electronic free energy        :        -306.18823336 Ha       -8331.80574743 eV

  Derived energy quantities:
  | Kinetic energy                :         304.95819189 Ha        8298.33461587 eV
  | Electrostatic energy          :        -574.00310022 Ha      -15619.41906424 eV
  | Energy correction for multipole
  | error in Hartree potential    :          -0.00732458 Ha          -0.19931184 eV
  | Sum of eigenvalues per atom                           :        -376.74285925 eV
  | Total energy (T->0) per atom                          :        -694.31714562 eV  <-- do not rely on this value for anything but (periodic) metals
  | Electronic free energy per atom                       :        -694.31714562 eV

  Self-consistency convergence accuracy:
  | Change of charge density      : 0.7096E-03
  | Change of sum of eigenvalues  : 0.5574E-01 eV
  | Change of total energy        : 0.4106E-05 eV

  End self-consistency iteration #     9       :  max(cpu_time)    wall_clock(cpu1)
  | Time for this iteration                    :        1.137 s           1.136 s
  | Charge density update                      :        0.357 s           0.357 s
  | Density mixing                             :        0.012 s           0.011 s
  | Hartree multipole update                   :        0.004 s           0.004 s
  | Hartree multipole summation                :        0.208 s           0.208 s
  | Integration                                :        0.524 s           0.524 s
  | Solution of K.-S. eqns.                    :        0.031 s           0.031 s
  | Total energy evaluation                    :        0.001 s           0.000 s
------------------------------------------------------------

------------------------------------------------------------
          Begin self-consistency iteration #   10

  Date     :  20150727, Time     :  123441.989
------------------------------------------------------------
  Evaluating new KS density.
  Integration grid: deviation in total charge (<rho> - N_e) =   7.105427E-15
  Pulay mixing of updated and previous charge densities.

  Evaluating partitioned Hartree potential by multipole expansion.
  | Analytical far-field extrapolation by fixed multipoles:
  | Hartree multipole sum: apparent total charge =  -0.517329E-05
  Summing up the Hartree potential.
  Time summed over all CPUs for potential: real work        1.652 s, elapsed        1.658 s
  | RMS charge density error from multipole expansion :   0.149452E-01

  Integrating Hamiltonian matrix: batch-based integration.
  Time summed over all CPUs for integration: real work        4.085 s, elapsed        4.168 s

  Updating Kohn-Sham eigenvalues, eigenvectors, occupation numbers, and Fermi level.
  Solving generalized eigenproblem
[...]
  |                                 -0.01020583       0.11653706      -0.00925102
  |                                  0.00990399      -0.00925102       0.10781826
  ----------------------------------------------------------------------


  Total energy components:
  | Sum of eigenvalues            :        -166.14418052 Ha       -4521.01317849 eV
  | XC energy correction          :         -37.14285944 Ha       -1010.70862978 eV
  | XC potential correction       :          47.47028342 Ha        1291.73213437 eV
  | Free-atom electrostatic energy:        -143.62726979 Ha       -3908.29686292 eV
  | Hartree energy correction     :          -6.74420622 Ha        -183.51918852 eV
  | van der Waals energy corr.    :          -0.00145035 Ha          -0.03946610 eV
  | Entropy correction            :           0.00000000 Ha           0.00000000 eV
  | ---------------------------
  | Total energy                  :        -306.18968290 Ha       -8331.84519145 eV
  | Total energy, T -> 0          :        -306.18968290 Ha       -8331.84519145 eV  <-- do not rely on this value for anything but (periodic) metals
  | Electronic free energy        :        -306.18968290 Ha       -8331.84519145 eV

  Derived energy quantities:
  | Kinetic energy                :         304.96008365 Ha        8298.38609335 eV
  | Electrostatic energy          :        -574.00545676 Ha      -15619.48318892 eV
  | Energy correction for multipole
  | error in Hartree potential    :          -0.00731945 Ha          -0.19917250 eV
  | Sum of eigenvalues per atom                           :        -376.75109821 eV
  | Total energy (T->0) per atom                          :        -694.32043262 eV  <-- do not rely on this value for anything but (periodic) metals
  | Electronic free energy per atom                       :        -694.32043262 eV

  atomic forces [eV/Ang]:
  -----------------------
  atom #    1
   Hellmann-Feynman + Multipole  : -.684347E+01 -.110766E+02 0.297900E+01
   Pulay + GGA                   : 0.522907E+01 0.144760E+02 -.436541E+01
   Van der Waals               : -.270880E-02 0.279822E-02 0.223213E-02
   ----------------------------------------------------------------
   Total forces(   1)            : -.161711E+01 0.340227E+01 -.138418E+01
  atom #    2
   Hellmann-Feynman + Multipole  : 0.222307E+01 -.362380E+01 0.157881E+01
   Pulay + GGA                   : -.353827E-01 0.957964E-01 -.446943E-01
   Van der Waals               : -.466568E-03 0.467254E-02 0.283368E-02
   ----------------------------------------------------------------
   Total forces(   2)            : 0.218722E+01 -.352333E+01 0.153695E+01
  atom #    3
   Hellmann-Feynman + Multipole  : -.180075E+01 -.297475E+00 -.270401E+00
   Pulay + GGA                   : 0.678671E-01 0.150640E-01 0.250470E-01
   Van der Waals               : -.166739E-02 0.330776E-02 0.195154E-02
   ----------------------------------------------------------------
   Total forces(   3)            : -.173455E+01 -.279103E+00 -.243402E+00
  atom #    4
   Hellmann-Feynman + Multipole  : -.620645E+01 0.788839E+00 -.102402E+02
   Pulay + GGA                   : 0.904086E+01 -.442116E+00 0.117468E+02
   Van der Waals               : 0.207332E-02 0.449230E-02 0.290547E-02
   ----------------------------------------------------------------
   Total forces(   4)            : 0.283648E+01 0.351215E+00 0.150945E+01
  atom #    5
   Hellmann-Feynman + Multipole  : -.203808E+00 -.104542E+01 -.118587E+01
   Pulay + GGA                   : 0.410652E-01 0.965788E-01 0.914939E-01
   Van der Waals               : -.960511E-03 0.337573E-02 0.222843E-02
   ----------------------------------------------------------------
   Total forces(   5)            : -.163703E+00 -.945466E+00 -.109215E+01
  atom #    6
   Hellmann-Feynman + Multipole  : -.165524E+01 0.103105E+01 -.318385E+00
   Pulay + GGA                   : 0.124356E+00 -.553816E-01 0.193592E-01
   Van der Waals               : -.165263E-02 0.472754E-03 0.137260E-03
   ----------------------------------------------------------------
   Total forces(   6)            : -.153254E+01 0.976144E+00 -.298889E+00
  atom #    7
   Hellmann-Feynman + Multipole  : 0.624434E+01 -.841513E+01 -.108398E+02
   Pulay + GGA                   : -.750599E+01 0.995302E+01 0.123791E+02
   Van der Waals               : 0.205970E-02 0.908798E-03 -.113382E-01
   ----------------------------------------------------------------
   Total forces(   7)            : -.125959E+01 0.153879E+01 0.152793E+01
  atom #    8
   Hellmann-Feynman + Multipole  : -.501577E+00 0.329195E+00 -.229809E+01
   Pulay + GGA                   : 0.254012E-01 0.740778E-02 0.142620E+00
   Van der Waals               : 0.226334E-03 0.115698E-03 -.144922E-02
   ----------------------------------------------------------------
   Total forces(   8)            : -.475949E+00 0.336718E+00 -.215692E+01
  atom #    9
   Hellmann-Feynman + Multipole  : 0.188834E+01 -.193328E+01 0.581607E+00
   Pulay + GGA                   : -.921743E-01 0.104008E+00 -.881179E-02
   Van der Waals               : 0.168198E-02 0.895843E-03 -.515348E-02
   ----------------------------------------------------------------
   Total forces(   9)            : 0.179785E+01 -.182837E+01 0.567642E+00
  atom #   10
   Hellmann-Feynman + Multipole  : -.144074E+02 -.506730E+01 0.531468E+00
   Pulay + GGA                   : 0.155650E+02 0.640474E+01 -.105697E+01
   Van der Waals               : 0.233063E-02 -.114298E-01 0.341855E-02
   ----------------------------------------------------------------
   Total forces(  10)            : 0.115993E+01 0.132601E+01 -.522083E+00
  atom #   11
   Hellmann-Feynman + Multipole  : -.644311E+00 0.123516E+00 -.127200E+00
   Pulay + GGA                   : 0.137510E+00 -.627323E-01 0.350711E-01
   Van der Waals               : -.108514E-02 -.775460E-02 0.165239E-02
   ----------------------------------------------------------------
   Total forces(  11)            : -.507886E+00 0.530286E-01 -.904764E-01
  atom #   12
   Hellmann-Feynman + Multipole  : -.737979E+00 -.152028E+01 0.717152E+00
   Pulay + GGA                   : 0.514012E-01 0.114637E+00 -.627204E-01
   Van der Waals               : 0.169074E-03 -.185523E-02 0.581464E-03
   ----------------------------------------------------------------
   Total forces(  12)            : -.686408E+00 -.140750E+01 0.655013E+00
  Timings for vdw_correction_hirshfeld (Tkatchenko-Scheffler 2009):
  | CPU time:        3.002 s, Wall clock time:        3.001 s.
  Removing unitary transformations (pure translations, rotations) from forces on atoms.
  Atomic forces before filtering:
  | Net force on center of mass :  0.374348E-02 0.404243E-03 0.888439E-02 eV/A
  | Net torque on center of mass:  -.137351E-01 0.107638E-01 -.807695E-02 eV
  Atomic forces after filtering:
  | Net force on center of mass :  -.446015E-15 -.178406E-15 0.446015E-15 eV/A
  | Net torque on center of mass:  0.000000E+00 -.453161E-14 0.302107E-14 eV
 
  Energy and forces in a compact form:
  | Total energy uncorrected      :         -0.833184519144986E+04 eV
  | Total energy corrected        :         -0.833184519144986E+04 eV  <-- do not rely on this value for anything but (periodic) metals
  | Electronic free energy        :         -0.833184519144986E+04 eV
  Total atomic forces (unitary forces cleaned) [eV/Ang]:
  |   1         -0.161693195701584E+01          0.340242985665557E+01         -0.138556589460553E+01
  |   2          0.218739614900605E+01         -0.352313046757817E+01          0.153565530196008E+01
  |   3         -0.173441292849266E+01         -0.278851207917225E+00         -0.244490623360335E+00
  |   4          0.283656999659579E+01          0.351618838240637E+00          0.150882425902749E+01
  |   5         -0.163868055921267E+00         -0.945235977894594E+00         -0.109260807579449E+01
  |   6         -0.153241897117337E+01          0.976602791732185E+00         -0.299450162329341E+00
  |   7         -0.126050775725761E+01          0.153811610550393E+01          0.152705366902994E+01
  |   8         -0.477102596556460E+00          0.335818982893773E+00         -0.215777699417449E+01
  |   9          0.179688790686813E+01         -0.182909055992282E+01          0.566760572579131E+00
  |  10          0.115952116991474E+01          0.132601984566039E+01         -0.522499214900637E+00
  |  11         -0.508332186468378E+00          0.530532180540050E-01         -0.907786856109648E-01
  |  12         -0.686800769499129E+00         -0.140735142542769E+01          0.654875848179149E+00
 
  ------------------------------------ 
  Start decomposition of the XC Energy 
  ------------------------------------ 
  Hartree-Fock part   :          0.000000000 Ha              0.000000000 eV
  ------------------------------------ 
  X Energy            :        -35.847099375 Ha           -975.449204292 eV
  C Energy GGA        :         -1.295760070 Ha            -35.259425486 eV
  Total XC Energy     :        -37.142859445 Ha          -1010.708629778 eV
  LDA X and C from self-consistent density 
  X Energy LDA        :        -32.273834587 Ha           -878.215722244 eV
  C Energy LDA        :         -2.630636641 Ha            -71.583265130 eV
  ------------------------------------ 
  End decomposition of the XC Energy 
  ------------------------------------ 
  Performing Hirshfeld analysis of fragment charges and moments.
  ----------------------------------------------------------------------
  | Atom     1: O
  |   Hirshfeld charge        :     -0.35450112
  |   Free atom volume        :     23.95238533
  |   Hirshfeld volume        :     24.01690875
  |   Hirshfeld dipole vector :      0.04038394       0.05704386      -0.01165835
  |   Hirshfeld dipole moment :      0.07085747
  |   Hirshfeld second moments:      0.00296541      -0.03556945       0.02823826
  |                                 -0.03556945      -0.03907337      -0.02866606
  |                                  0.02823826      -0.02866606      -0.09564716
  ----------------------------------------------------------------------
  | Atom     2: H
  |   Hirshfeld charge        :      0.12030944
  |   Free atom volume        :     10.44207651
  |   Hirshfeld volume        :      7.61304148
  |   Hirshfeld dipole vector :     -0.05919429       0.08966691      -0.04044764
  |   Hirshfeld dipole moment :      0.11480475
  |   Hirshfeld second moments:      0.10898521       0.00222315       0.00594005
  |                                  0.00222315       0.06328941      -0.00271752
  |                                  0.00594005      -0.00271752       0.07636472
  ----------------------------------------------------------------------
  | Atom     3: H
  |   Hirshfeld charge        :      0.05965489
  |   Free atom volume        :     10.44207651
  |   Hirshfeld volume        :      8.46944599
  |   Hirshfeld dipole vector :      0.04883122       0.00723671       0.00716113
  |   Hirshfeld dipole moment :      0.04988126
  |   Hirshfeld second moments:      0.02221014      -0.02934594       0.00509808
  |                                 -0.02934594       0.07763762      -0.00545889
  |                                  0.00509808      -0.00545889       0.05773277
  ----------------------------------------------------------------------
  | Atom     4: O
  |   Hirshfeld charge        :     -0.18111121
  |   Free atom volume        :     23.95238533
  |   Hirshfeld volume        :     20.38573363
  |   Hirshfeld dipole vector :     -0.01680729      -0.02657851       0.02858450
  |   Hirshfeld dipole moment :      0.04249677
  |   Hirshfeld second moments:      0.07480141      -0.02626031       0.00748887
  |                                 -0.02626031       0.08244179       0.03771375
  |                                  0.00748887       0.03771375       0.05094764
  ----------------------------------------------------------------------
  | Atom     5: H
  |   Hirshfeld charge        :      0.16847654
  |   Free atom volume        :     10.44207651
  |   Hirshfeld volume        :      6.28445510
  |   Hirshfeld dipole vector :      0.00710227       0.06964796       0.08728886
  |   Hirshfeld dipole moment :      0.11189560
  |   Hirshfeld second moments:      0.12703110      -0.00719173       0.01091618
  |                                 -0.00719173       0.12600863      -0.00173252
  |                                  0.01091618      -0.00173252       0.10350472
  ----------------------------------------------------------------------
  | Atom     6: H
  |   Hirshfeld charge        :      0.17711427
  |   Free atom volume        :     10.44207651
  |   Hirshfeld volume        :      5.62102271
  |   Hirshfeld dipole vector :      0.09196168      -0.07862080       0.01228393
  |   Hirshfeld dipole moment :      0.12161035
  |   Hirshfeld second moments:      0.12792818       0.00260882       0.00088930
  |                                  0.00260882       0.13333591       0.01508990
  |                                  0.00088930       0.01508990       0.13556277
  ----------------------------------------------------------------------
  | Atom     7: O
  |   Hirshfeld charge        :     -0.28887432
  |   Free atom volume        :     23.95238533
  |   Hirshfeld volume        :     22.13987199
  |   Hirshfeld dipole vector :     -0.02996975       0.02371141       0.03386782
  |   Hirshfeld dipole moment :      0.05106316
  |   Hirshfeld second moments:     -0.00798380      -0.05090003       0.02507664
  |                                 -0.05090003      -0.01474268      -0.02570782
  |                                  0.02507664      -0.02570782       0.04360314
  ----------------------------------------------------------------------
  | Atom     8: H
  |   Hirshfeld charge        :      0.14475402
  |   Free atom volume        :     10.44207651
  |   Hirshfeld volume        :      6.28259692
  |   Hirshfeld dipole vector :      0.01882041      -0.01528856       0.12329843
  |   Hirshfeld dipole moment :      0.12566006
  |   Hirshfeld second moments:      0.11490007      -0.01938842       0.00455407
  |                                 -0.01938842       0.11370650      -0.00470400
  |                                  0.00455407      -0.00470400       0.10892013
  ----------------------------------------------------------------------
  | Atom     9: H
  |   Hirshfeld charge        :      0.14799036
  |   Free atom volume        :     10.44207651
  |   Hirshfeld volume        :      6.72526385
  |   Hirshfeld dipole vector :     -0.08710060       0.07887511      -0.01730035
  |   Hirshfeld dipole moment :      0.11877331
  |   Hirshfeld second moments:      0.10334963      -0.00428937       0.00038494
  |                                 -0.00428937       0.09060963       0.00492697
  |                                  0.00038494       0.00492697       0.12030276
  ----------------------------------------------------------------------
  | Atom    10: O
  |   Hirshfeld charge        :     -0.28034965
  |   Free atom volume        :     23.95238533
  |   Hirshfeld volume        :     21.71933613
  |   Hirshfeld dipole vector :      0.04484526       0.01151762      -0.00359500
  |   Hirshfeld dipole moment :      0.04644004
  |   Hirshfeld second moments:      0.01872384      -0.01236959       0.01650825
  |                                 -0.01236959       0.05048942      -0.05139243
  |                                  0.01650825      -0.05139243      -0.01020451
  ----------------------------------------------------------------------
  | Atom    11: H
  |   Hirshfeld charge        :      0.13766131
  |   Free atom volume        :     10.44207651
  |   Hirshfeld volume        :      6.71448957
  |   Hirshfeld dipole vector :      0.09803236      -0.04390041       0.03534445
  |   Hirshfeld dipole moment :      0.11307882
  |   Hirshfeld second moments:      0.10695291       0.00995286      -0.00309495
  |                                  0.00995286       0.11415284      -0.00760240
  |                                 -0.00309495      -0.00760240       0.09421428
  ----------------------------------------------------------------------
  | Atom    12: H
  |   Hirshfeld charge        :      0.14886089
  |   Free atom volume        :     10.44207651
  |   Hirshfeld volume        :      6.11428497
  |   Hirshfeld dipole vector :      0.03665840       0.10576943      -0.05388748
  |   Hirshfeld dipole moment :      0.12423716
  |   Hirshfeld second moments:      0.12675186      -0.01020583       0.00990399
  |                                 -0.01020583       0.11653706      -0.00925102
  |                                  0.00990399      -0.00925102       0.10781826
  ----------------------------------------------------------------------


------------------------------------------------------------------------------
  Final output of selected total energy values:

  The following output summarizes some interesting total energy values
  at the end of a run (AFTER all relaxation, molecular dynamics, etc.).

  | Total energy of the DFT / Hartree-Fock s.c.f. calculation      :          -8331.845191450 eV
  | Final zero-broadening corrected energy (caution - metals only) :          -8331.845191450 eV
  | For reference only, the value of 1 Hartree used in FHI-aims is :             27.211384500 eV

  Before relying on these values, please be sure to understand exactly which
  total energy value is referred to by a given number. Different objects may
  all carry the same name 'total energy'. Definitions:

  Total energy of the DFT / Hartree-Fock s.c.f. calculation:
  | Note that this energy does not include ANY quantities calculated after the
  | s.c.f. cycle, in particular not ANY RPA, MP2, etc. many-body perturbation terms.

  Final zero-broadening corrected energy:
  | For metallic systems only, a broadening of the occupation numbers at the Fermi
  | level can be extrapolated back to zero broadening by an electron-gas inspired
  | formula. For all systems that are not real metals, this value can be
  | meaningless and should be avoided.

------------------------------------------------------------------------------

------------------------------------------------------------
          Leaving FHI-aims.
          Date     :  20150727, Time     :  123451.107

          Computational steps:
          | Number of self-consistency cycles          :           15

          Detailed time accounting                     :  max(cpu_time)    wall_clock(cpu1)
          | Total time                                 :       21.098 s          21.117 s
          | Preparation time                           :        0.171 s           0.591 s
          | Grid partitioning                          :        0.124 s           0.123 s
          | Preloading free-atom quantities on grid    :        0.014 s           0.013 s
          | Free-atom superposition energy             :        0.045 s           0.045 s
          | Total time for integrations                :        8.639 s           8.640 s
          | Total time for solution of K.-S. equations :        0.582 s           0.578 s
          | Total time for density & force components  :        6.878 s           6.879 s
          | Total time for mixing                      :        0.150 s           0.144 s
          | Total time for Hartree multipole update    :        0.063 s           0.066 s
          | Total time for Hartree multipole sum       :        3.809 s           3.809 s
          | Total time for total energy evaluation     :        0.002 s           0.005 s
          | Total time for scaled ZORA corrections     :        0.000 s           0.000 s
          | Total time for TS (2009) vdW correction    :        0.035 s           0.035 s

          Have a nice day.
------------------------------------------------------------
