  MPI-parallelism will be employed.
------------------------------------------------------------
          Invoking FHI-aims ...
          Version 081213
          Compiled on 2013/08/29 at 17:41:06 on host generoso.

          When using FHI-aims, please cite the following reference:

          Volker Blum, Ralf Gehrke, Felix Hanke, Paula Havu,
          Ville Havu, Xinguo Ren, Karsten Reuter, and Matthias Scheffler,
          'Ab Initio Molecular Simulations with Numeric Atom-Centered Orbitals: FHI-aims',
          Computer Physics Communications 180, 2175-2196 (2009)

          For any questions about FHI-aims, please visit the aimsclub website
          with its forums and wiki. Contributions to both the forums and the
          wiki are warmly encouraged - they are for you, and everyone is welcome there.

------------------------------------------------------------

  Date     :  20150727, Time     :  114527.384
  Time zero on CPU 1             :   0.469920000000000E-01  s.
  Internal wall clock time zero  :           207229527.384  s.

  Using        8 parallel tasks.
  Task        0 on host gen60 reporting.
  Task        1 on host gen60 reporting.
  Task        2 on host gen60 reporting.
  Task        3 on host gen60 reporting.
  Task        4 on host gen60 reporting.
  Task        5 on host gen60 reporting.
  Task        6 on host gen60 reporting.
  Task        7 on host gen60 reporting.

  Performing system and environment tests:
  | Environment variable OMP_NUM_THREADS correctly set to 1.
  | Checking for scalapack...
  | No scalapack compiled in.

  Obtaining array dimensions for all initial allocations:
  
  -----------------------------------------------------------------------
  Parsing control.in (first pass over file, find array dimensions only).
  The contents of control.in will be repeated verbatim below
  unless switched off by setting 'verbatim_writeout .false.' .
  in the first line of control.in .
  -----------------------------------------------------------------------
  
  #########################################################################################
  #
  #  Volker Blum, FHI 2008 : Test run input file control.in
  #
  #########################################################################################
  #
  #  Physical model
  #
    xc                 rpbe
    spin               none
    relativistic       atomic_zora scalar
    charge             0.
   vdw_correction_hirshfeld
  #
  #  SCF convergence
  #
    occupation_type    gaussian 0.01
    mixer              pulay
      n_max_pulay        10
      charge_mix_param   0.1
    sc_accuracy_rho    5E-5
    sc_accuracy_eev    5E-3
    sc_accuracy_etot   5E-6
    sc_iter_limit      3000
  #
  #  Eigenvalue solver
  #
    KS_method          lapack
      empty_states       8
      basis_threshold    0.e-5
  #
  #  Efficiency
  #
  #   all previous settings are now default, except stratmann still
  #   undecided. Continue to handle stratmann with care, if at all.
  #
  #  partition_type stratmann
    partition_type rho_r2
  #  hartree_partition_type stratmann
  #
  #  Oprions for large clusters (100's of atoms: memory saving / better scaling)
  #
  # for periodic systems:
  #
    density_update_method orbital
    packed_matrix_format none
  #  k_grid 6 6 6
  #  output k_eigenvalue 1
  #  distributed_spline_storage .true.
  #
  #  Relaxation
  #
  #  relax_geometry   bfgs 5.e-3
    sc_accuracy_forces 5.E-4
    final_forces_cleaned .true.
  #
  #  Output options
  #
  #  output mulliken
    output Hirshfeld
  #  output dipole
  
  #harmonic_length_scale 0.001
  
  ################################################################################
  #
  #  FHI-aims code project
  #  VB, Fritz-Haber Institut, 2007
  #
  #  Suggested "safe" defaults for H atom (to be pasted into control.in file)
  #  Basis constructed for a non-relativistic H2 molecule using the
  #  PW-LDA functional.
  #
  ################################################################################
    species        H
  #     global species definitions
      nucleus             1
      cut_pot             4.0  2.0  1.0
      cut_free_atom       finite 8.0
      logarithmic         0.00010000 100.00  1.0123
      basis_dep_cutoff    1d-4  # 1d-4 is safe default - please check 5d-4 if you wish!
      radial_base         24 7.0
      radial_multiplier   2
      angular_grids       specified
        division   0.2783  110
        division   0.3822  194
        division   0.5626  302
  #      division   0.5922  434
  #      division   0.6227  590
  #      division   0.7206  770
        outer_grid  302
      l_hartree           4
  ################################################################################
  #
  #  Definition of "minimal" basis
  #
  ################################################################################
  #     valence basis states
      valence      1  s   1.
  #     ion occupancy
      ion_occ      1  s   0.5
  ################################################################################
  #
  #  Suggested additional basis functions. For production calculations,
  #  uncomment them one after another (the most important basis functions are
  #  listed first).
  #
  ################################################################################
  #  "First tier" - improvements: -1014.90 meV to -62.69 meV
       hydro 2 s 2.1
       hydro 2 p 3.5
  #  "Second tier" - improvements: -12.89 meV to -1.83 meV
       hydro 1 s 0.85
       hydro 2 p 3.7
       hydro 2 s 1.2
       hydro 3 d 7
  #  "Third tier" - improvements: -0.25 meV to -0.12 meV
  #     hydro 4 f 11.2
  #     hydro 3 p 4.8
  #     hydro 4 d 9
  #     hydro 3 s 3.2
  
  ################################################################################
  #
  #  FHI-aims code project
  #  VB, Fritz-Haber Institut, 2007
  #
  #  Suggested "safe" defaults for O atom (to be pasted into control.in file)
  #  All values have been tested for a non-relativistic, non-spinpolarized O2
  #  molecule using the PW-LDA functional. Validity for PBE is expected.
  #
  #  Constructed for dimers: 1.0 A, 1.208 A, 1.5 A, 2.0 A, 3.0 A
  #
  ################################################################################
    species        O
  #     global species definitions
      nucleus             8
      mass                15.9994
      l_hartree           4
      cut_pot             4.0  2.0  1.0
      cut_free_atom       finite 8.0
      basis_dep_cutoff    1d-4  # 1d-4 is safe default - please check 5d-4 if you wish!
      logarithmic         0.00010000 100.00  1.0123
      radial_base         36 7.0
      radial_multiplier   2
       angular_grids specified
        division   0.4087  110
        division   0.5181  194
        division   0.6184  302
  #      division   0.7315  434
  #      division   0.7934  590
  #      division   0.9656  770
  #      division   1.4041  974
  #      outer_grid 974
        outer_grid 302
  ################################################################################
  #
  #  Definition of "minimal" basis
  #
  ################################################################################
  #     valence basis states
      valence      2  s   2.
      valence      2  p   4.
  #     ion occupancy
      ion_occ      2  s   1.
      ion_occ      2  p   3.
  ################################################################################
  #
  #  Suggested additional basis functions. For production calculations,
  #  uncomment them one after another (the most important basis functions are
  #  listed first).
  #
  ################################################################################
  #  "First tier" - improvements: -699.05 meV to -159.38 meV
       hydro 2 p 1.8
       hydro 3 d 7.6
       hydro 3 s 6.4
  #  "Second tier" - improvements: -49.91 meV to -5.39 meV
       hydro 4 f 11.6
       hydro 3 p 6.2
       hydro 3 d 5.6
       hydro 5 g 17.6
       hydro 1 s 0.75
  #  "Third tier" - improvements: -2.83 meV to -0.50 meV
  #     ionic 2 p auto
  #     hydro 4 f 10.8
  #     hydro 4 d 4.7
  #     hydro 2 s 6.8
  #  "Fourth tier" - improvements: -0.40 meV to -0.12 meV
  #     hydro 3 p 5
  #     hydro 3 s 3.3
  #     hydro 5 g 15.6
  #     hydro 4 f 17.6
  #     hydro 4 d 14
  # Further basis functions - -0.08 meV and below
  #     hydro 3 s 2.1
  #     hydro 4 d 11.6
  #     hydro 3 p 16
  #     hydro 2 s 17.2
  
  
  -----------------------------------------------------------------------
  Completed first pass over input file control.in .
  -----------------------------------------------------------------------
  
  
  -----------------------------------------------------------------------
  Parsing geometry.in (first pass over file, find array dimensions only).
  The contents of geometry.in will be repeated verbatim below
  unless switched off by setting 'verbatim_writeout .false.' .
  in the first line of geometry.in .
  -----------------------------------------------------------------------
  
  atom      -4.053030000      0.065001000     -1.525160000  O
  atom      -4.566710000      0.974813000     -1.912820000  H
  atom      -3.067820000      0.330172000     -1.477310000  H
  atom      -4.581760000     -0.256435000      0.939478000  O
  atom      -4.349860000      0.471090000      1.504340000  H
  atom      -5.393870000     -0.726611000      1.228070000  H
  atom      -5.293160000      2.192130000     -2.328800000  O
  atom      -4.829300000      2.988660000     -1.973850000  H
  atom      -5.428570000      2.328640000     -3.235170000  H
  atom      -1.645860000      0.870179000     -1.502250000  O
  atom      -1.568890000      1.501730000     -0.721051000  H
  atom      -0.824432000      0.282220000     -1.377720000  H
  
  -----------------------------------------------------------------------
  Completed first pass over input file geometry.in .
  -----------------------------------------------------------------------
  
 
  Basic array size parameters: 
  | Number of species                 :        2
  | Number of atoms                   :       12
  | Max. basis fn. angular momentum   :        4
  | Max. atomic/ionic basis occupied n:        2
  | Max. number of basis fn. types    :        2
  | Max. radial fns per species/type  :        8
  | Max. logarithmic grid size        :     1301
  | Max. radial integration grid size :       73
  | Max. angular integration grid size:      302
  | Max. angular grid division number :        8
  | Radial grid for Hartree potential :     1301
  | Number of spin channels           :        1

------------------------------------------------------------
          Reading file control.in.
------------------------------------------------------------
  XC: Using RPBE gradient-corrected functionals.
  Spin treatment: No spin polarisation.
  Scalar relativistic treatment of kinetic energy: on-site free-atom approximation to ZORA.
  Charge =   0.000000E+00: Neutral system requested explicitly.
  Using non-empirical van der Waals correction (Hirshfeld partitioning):
  Occupation type: Gaussian broadening, width =   0.100000E-01 eV.
  Using pulay charge density mixing.
  Pulay mixing - number of memorized iterations:   10
  Charge density mixing - mixing parameter:     0.1000
  Convergence accuracy of self-consistent charge density: 0.5000E-04
  Convergence accuracy of sum of eigenvalues: 0.5000E-02
  Convergence accuracy of total energy: 0.5000E-05
  Maximum number of s.-c. iterations  :  3000
  Kohn-Sham eigenvalues and eigenfunctions calculated by lapack diagonalisation (D&C).
  Number of empty states per atom:        8
  Threshold for basis singularities: 0.0000E+00
  Partition function in integrals calculations: rho / r^2
 Using packed matrix format           0
  Convergence accuracy of forces: 0.5000E-03
  Cleaning forces before final output.
  Hirshfeld charge analysis will be performed.
 
  Reading configuration options for species H                   .
  | Found nuclear charge :   1.0000
  | Found cutoff potl. onset [A], width [A], scale factor :    4.00000    2.00000    1.00000
  | Found cutoff specification for free atom: Cutoff potential begins at    8.00000 A.
  | Found logarithmic grid data [bohr] : 0.1000E-03 0.1000E+03 0.1012E+01
  | Threshold for basis-dependent cutoff potential is   0.100000E-03
  | Found data for basic radial integration grid :    24 points, outermost radius =    7.000 A
  | Found multiplier for basic radial grid :   2
  | Found angular grid specification: user-specified.
  | Specified grid contains     4 separate shells.
  | Check grid settings after all constraints further below.
  | Found l_max for Hartree potential  :   4
  | Found free-atom valence shell :  1 s   1.000
  | No ionic wave fns used. Skipping ion_occ.
  | Found hydrogenic basis function :  2 s   2.100
  | Found hydrogenic basis function :  2 p   3.500
  | Found hydrogenic basis function :  1 s   0.850
  | Found hydrogenic basis function :  2 p   3.700
  | Found hydrogenic basis function :  2 s   1.200
  | Found hydrogenic basis function :  3 d   7.000
  Species H                   : Missing cutoff potential type.
  Defaulting to exp(1/x)/(1-x)^2 type cutoff potential.
  Species H : On-site basis accuracy parameter (for Gram-Schmidt orthonormalisation) not specified.
  Using default value basis_acc =  0.1000000E-03.
  Species H                   : Using default innermost maximum threshold i_radial=  2 for radial functions.
  Species H                   : Basic radial grid will be enhanced according to radial_multiplier =   2, to contain    49 grid points.
 
  Reading configuration options for species O                   .
  | Found nuclear charge :   8.0000
  | Found atomic mass :    15.9994000000000      amu
  | Found l_max for Hartree potential  :   4
  | Found cutoff potl. onset [A], width [A], scale factor :    4.00000    2.00000    1.00000
  | Found cutoff specification for free atom: Cutoff potential begins at    8.00000 A.
  | Threshold for basis-dependent cutoff potential is   0.100000E-03
  | Found logarithmic grid data [bohr] : 0.1000E-03 0.1000E+03 0.1012E+01
  | Found data for basic radial integration grid :    36 points, outermost radius =    7.000 A
  | Found multiplier for basic radial grid :   2
  | Found angular grid specification: user-specified.
  | Specified grid contains     4 separate shells.
  | Check grid settings after all constraints further below.
  | Found free-atom valence shell :  2 s   2.000
  | Found free-atom valence shell :  2 p   4.000
  | No ionic wave fns used. Skipping ion_occ.
  | No ionic wave fns used. Skipping ion_occ.
  | Found hydrogenic basis function :  2 p   1.800
  | Found hydrogenic basis function :  3 d   7.600
  | Found hydrogenic basis function :  3 s   6.400
  | Found hydrogenic basis function :  4 f  11.600
  | Found hydrogenic basis function :  3 p   6.200
  | Found hydrogenic basis function :  3 d   5.600
  | Found hydrogenic basis function :  5 g  17.600
  | Found hydrogenic basis function :  1 s   0.750
  Species O                   : Missing cutoff potential type.
  Defaulting to exp(1/x)/(1-x)^2 type cutoff potential.
  Species O : On-site basis accuracy parameter (for Gram-Schmidt orthonormalisation) not specified.
  Using default value basis_acc =  0.1000000E-03.
  Species O                   : Using default innermost maximum threshold i_radial=  2 for radial functions.
  Species O                   : Basic radial grid will be enhanced according to radial_multiplier =   2, to contain    73 grid points.
 
  Finished reading input file 'control.in'. Consistency checks are next.
 
  Target number of points in a grid batch is not set. Defaulting to  100
  Method for grid partitioning is not set. Defaulting to parallel hash+maxmin partitioning.
  Batch size limit is not set. Defaulting to    200
  By default, will store active basis functions for each batch.
  If in need of memory, prune_basis_once .false. can be used to disable this option.
  communication_type for Hartree potential was not specified.
  Defaulting to calc_hartree .
  Pulay mixer: Number of initial linear mixing iterations not set.
  Defaulting to    0 iterations.
  Work space size for distributed Hartree potential not set.
  Defaulting to   0.200000E+03 MB.
  Algorithm-dependent basis array size parameters:
  | n_max_pulay                         :       10
  Geometry relaxation not requested: no relaxation will be performed.
  Handling of forces: Unphysical translation and rotation will be removed from forces.
  No accuracy limit for integral partition fn. given. Defaulting to 0.1000E-14.
  No threshold value for u(r) in integrations given. Defaulting to 0.1000E-05.
  No accuracy for occupation numbers given. Defaulting to 0.1000E-07.
  No threshold value for occupation numbers given. Defaulting to 0.0000E+00.
  No accuracy for fermi level given. Defaulting to 0.1000E-19.
  Maximum # of iterations to find E_F not set. Defaulting to  200.
  Will not use alltoall communication since running on < 1024 CPUs.
  Partitioning for Hartree potential was not defined. Using partition_type for integrals.
  | Reporting present value of keyword multip_moments_threshold  :       0.10000000E-09
  | This value may affect high angular momentum components of the Hartree potential in periodic systems.
  No q(lm)/r^(l+1) cutoff set for long-range Hartree potential.
  | Using default value of  0.100000E-09 .
  | Verify using the multipole_threshold keyword.
  Defaulting to new monopole extrapolation.
  Density update method: Loop over occupied states selected for charge density update.
------------------------------------------------------------


------------------------------------------------------------
          Reading geometry description geometry.in.
------------------------------------------------------------
  Input structure read successfully.
  The structure contains       12 atoms,  and a total of         40.000 electrons.

  Input geometry:
  | No unit cell requested.
  | Atomic structure:
  |       Atom                x [A]            y [A]            z [A]
  |    1: Species O             -4.053030         0.065001        -1.525160
  |    2: Species H             -4.566710         0.974813        -1.912820
  |    3: Species H             -3.067820         0.330172        -1.477310
  |    4: Species O             -4.581760        -0.256435         0.939478
  |    5: Species H             -4.349860         0.471090         1.504340
  |    6: Species H             -5.393870        -0.726611         1.228070
  |    7: Species O             -5.293160         2.192130        -2.328800
  |    8: Species H             -4.829300         2.988660        -1.973850
  |    9: Species H             -5.428570         2.328640        -3.235170
  |   10: Species O             -1.645860         0.870179        -1.502250
  |   11: Species H             -1.568890         1.501730        -0.721051
  |   12: Species H             -0.824432         0.282220        -1.377720
  |

  | The smallest distance between any two atoms is         0.92654057 AA.
  |
  | The first atom of this pair is atom number                      7 .
  | The second atom of this pair is atom number                     9 .

  Structure-dependent array size parameters: 
  | Maximum number of distinct radial functions  :       18
  | Maximum number of basis functions            :      276
  | Number of Kohn-Sham states (occupied + empty):       68
------------------------------------------------------------

------------------------------------------------------------
          Preparing all fixed parts of the calculation.
------------------------------------------------------------
  Determining machine precision:
    2.225073858507201E-308
  Setting up grids for atomic and cluster calculations.

  Creating wave function, potential, and density for free atoms.

  Species: H

  List of occupied orbitals and eigenvalues:
    n    l              occ      energy [Ha]    energy [eV]
    1    0           1.0000        -0.241408        -6.5691


  Species: O

  List of occupied orbitals and eigenvalues:
    n    l              occ      energy [Ha]    energy [eV]
    1    0           2.0000       -18.944147      -515.4965
    2    0           2.0000        -0.883529       -24.0421
    2    1           4.0000        -0.330176        -8.9845

  Creating fixed part of basis set: Ionic, confined, hydrogenic.
 
  H                    hydrogenic:
 
  List of hydrogenic basis orbitals: 
    n    l      effective z      eigenvalue [eV]  inner max. [A]     outer max. [A]     outer radius [A]   
    2    0         2.100000       -14.9965           0.193241           1.317192           5.372934
    2    1         3.500000       -41.6672           0.602363           0.602363           4.056010
    1    0         0.850000        -9.8292           0.624864           0.624864           5.372934
    2    1         3.700000       -46.5653           0.573616           0.573616           3.909951
    2    0         1.200000        -4.5995           0.334977           2.228160           5.505921
    3    2         7.000000       -74.0753           0.680692           0.680692           3.769152
 
 
  O                    hydrogenic:
 
  List of hydrogenic basis orbitals: 
    n    l      effective z      eigenvalue [eV]  inner max. [A]     outer max. [A]     outer radius [A]   
    2    1         1.800000       -11.0118           1.178546           1.178546           5.432516
    3    2         7.600000       -87.3182           0.624117           0.624117           3.541422
    3    0         6.400000       -61.9209           0.061166           1.081887           4.306510
    4    3        11.600000      -114.4238           0.731621           0.731621           3.584982
    3    1         6.200000       -58.1113           0.255677           1.030255           4.306510
    3    2         5.600000       -47.4081           0.847222           0.847222           4.413102
    5    4        17.600000      -168.5799           0.749730           0.749730           3.372413
    1    0         0.750000        -7.6499           0.705275           0.705275           5.366508
 

  Adding cutoff potential to free-atom effective potential.
  Creating atomic-like basis functions for current effective potential.

  Species H                   :

  List of atomic basis orbitals and eigenvalues:
    n    l      energy [Ha]    energy [eV]    outer radius [A]
    1    0        -0.241374        -6.5681       5.372934


  Species O                   :

  List of atomic basis orbitals and eigenvalues:
    n    l      energy [Ha]    energy [eV]    outer radius [A]
    1    0       -18.944147      -515.4965       1.415745
    2    0        -0.883529       -24.0421       5.048305
    2    1        -0.330173        -8.9845       5.301302

  Assembling full basis from fixed parts.
  | Species H :   atomic orbital   1 s accepted.
  | Species H :    hydro orbital   2 s accepted.
  | Species H :    hydro orbital   1 s accepted.
  | Species H :    hydro orbital   2 s accepted.
  | Species H :    hydro orbital   2 p accepted.
  | Species H :    hydro orbital   2 p accepted.
  | Species H :    hydro orbital   3 d accepted.
  | Species O :   atomic orbital   1 s accepted.
  | Species O :    hydro orbital   3 s accepted.
  | Species O :   atomic orbital   2 s accepted.
  | Species O :    hydro orbital   1 s accepted.
  | Species O :    hydro orbital   3 p accepted.
  | Species O :   atomic orbital   2 p accepted.
  | Species O :    hydro orbital   2 p accepted.
  | Species O :    hydro orbital   3 d accepted.
  | Species O :    hydro orbital   3 d accepted.
  | Species O :    hydro orbital   4 f accepted.
  | Species O :    hydro orbital   5 g accepted.
 
  Basis size parameters after reduction:
  | Total number of radial functions:       18
  | Total number of basis functions :      276
 
  Testing on-site integration grid accuracy.
  |  Species  Function  <phi|h_atom|phi> (log., in eV)  <phi|h_atom|phi> (rad., in eV)
           1        1                 -6.5683835025                 -6.5684759159
           1        2                 13.3711789951                 13.3708738703
           1        3                 23.6590910787                 23.6532055418
           1        4                 16.2963827186                 16.1870710655 ***
           1        5                 28.7627214838                 28.7627215090
           1        6                 59.5965249172                 59.5965950857
           1        7                 60.2220506392                 60.2220503827
           2        8               -515.4964576505               -515.4964530710
           2        9                 15.3030791347                 15.3030722972
           2       10                -21.7296094581                -21.7296135470
           2       11                 14.2969371730                 14.2969701621
           2       12                 21.0679693190                 21.0679697493
           2       13                 -2.3833606469                 -2.3833613176
           2       14                 13.7067136422                 13.7066766629
           2       15                 45.8013116808                 45.8013116965
           2       16                 52.2309815402                 52.2309831494
           2       17                 85.4120732416                 85.4120732763
           2       18                142.1019167745                142.1019167817
 * Note: Onsite integrals marked "***" above are less accurate than
 * onsite_accuracy_threshold =    0.03000 eV. Usually, this is harmless.
 * When in doubt, tighten the "radial" and/or "radial_multiplier" flags to check.

  Preparing densities etc. for the partition functions (integrals / Hartree potential).

  Preparations completed.
  max(cpu_time)          :      0.169 s.
  Wall clock time (cpu1) :      0.577 s.
------------------------------------------------------------

------------------------------------------------------------
          Begin self-consistency loop: Initialization.

          Date     :  20150727, Time     :  114528.004
------------------------------------------------------------

  Initializing index lists of integration centers etc. from given atomic structure:
  | Number of centers in hartree potential         :        12
  | Number of centers in hartree multipole         :        12
  | Number of centers in electron density summation:        12
  | Number of centers in basis integrals           :        12
  | Number of centers in integrals                 :        12
  Partitioning the integration grid into batches with parallel hashing+maxmin method.
  | Number of batches:     1657
  | Maximal batch size:     197
  | Minimal batch size:      61
  | Average batch size:      94.972
  | Standard deviation of batch sizes:      29.976

  Integration load balanced across     8 MPI tasks.
  Work distribution over tasks is as follows:
  Task     0 has      19631 integration points.
  Task     1 has      19636 integration points.
  Task     2 has      19756 integration points.
  Task     3 has      19627 integration points.
  Task     4 has      19630 integration points.
  Task     5 has      19682 integration points.
  Task     6 has      19766 integration points.
  Task     7 has      19640 integration points.
  Initializing partition tables, free-atom densities, potentials, etc. across the integration grid (initialize_grid_storage).
  | Net number of integration points:   157368
  | of which are non-zero points    :   156848
  Obtaining max. number of non-zero basis functions in each batch (get_n_compute_maxes).
  | Maximal number of non-zero basis functions:      274 in task     0
  | Maximal number of non-zero basis functions:      274 in task     1
  | Maximal number of non-zero basis functions:      274 in task     2
  | Maximal number of non-zero basis functions:      274 in task     3
  | Maximal number of non-zero basis functions:      274 in task     4
  | Maximal number of non-zero basis functions:      274 in task     5
  | Maximal number of non-zero basis functions:      274 in task     6
  | Maximal number of non-zero basis functions:      274 in task     7
  Integrating Hamiltonian matrix: batch-based integration.
  Time summed over all CPUs for integration: real work        4.596 s, elapsed        4.748 s
  Integrating overlap matrix.
  Time summed over all CPUs for integration: real work        2.422 s, elapsed        2.497 s

  Updating Kohn-Sham eigenvalues, eigenvectors, occupation numbers, and Fermi level.
  Solving generalized eigenproblem
  Updating Kohn-Sham eigenvalues and eigenfunctions.
  Transforming overlap matrix and checking for singularities.
  Overlap matrix is nonsingular:
  | Lowest eigenvalue:  0.242341E-03
  Solving real generalised eigenvalue problem by standard LAPACK (fast)
  Determining occupation numbers for Kohn-Sham eigenstates.
  | Chemical potential (Fermi level) in eV                 : -.34771186E+01
  | Error in electron count due to remaining E_F inaccuracy: 0.00000000E+00
  | Maximum occupation number of highest empty state:  0.00E+00

  Writing Kohn-Sham eigenvalues.

  State    Occupation    Eigenvalue [Ha]    Eigenvalue [eV]
      1       2.00000         -19.064787         -518.77924
      2       2.00000         -19.051940         -518.42967
      3       2.00000         -19.042420         -518.17062
      4       2.00000         -19.019928         -517.55856
      5       2.00000          -1.121201          -30.50943
      6       2.00000          -1.098555          -29.89319
      7       2.00000          -1.086650          -29.56926
      8       2.00000          -1.042342          -28.36356
      9       2.00000          -0.650126          -17.69084
     10       2.00000          -0.644516          -17.53818
     11       2.00000          -0.608962          -16.57069
     12       2.00000          -0.600635          -16.34410
     13       2.00000          -0.549139          -14.94283
     14       2.00000          -0.504552          -13.72957
     15       2.00000          -0.498614          -13.56798
     16       2.00000          -0.475151          -12.92953
     17       2.00000          -0.441167          -12.00476
     18       2.00000          -0.439592          -11.96192
     19       2.00000          -0.430321          -11.70963
     20       2.00000          -0.402832          -10.96161
     21       0.00000          -0.089366           -2.43177
     22       0.00000          -0.063504           -1.72803
     23       0.00000          -0.059946           -1.63122
     24       0.00000          -0.020823           -0.56663
     25       0.00000           0.000120            0.00325
     26       0.00000           0.003939            0.10720
     27       0.00000           0.020960            0.57036
     28       0.00000           0.058216            1.58413
     29       0.00000           0.080442            2.18895
     30       0.00000           0.082328            2.24027
     31       0.00000           0.093125            2.53407
     32       0.00000           0.101273            2.75579
     33       0.00000           0.108879            2.96274
     34       0.00000           0.115942            3.15495
     35       0.00000           0.124850            3.39735
     36       0.00000           0.125674            3.41975
     37       0.00000           0.149745            4.07476
     38       0.00000           0.162361            4.41807
     39       0.00000           0.176167            4.79375
     40       0.00000           0.177540            4.83111
     41       0.00000           0.197864            5.38414
     42       0.00000           0.229260            6.23847
     43       0.00000           0.242223            6.59123
     44       0.00000           0.246025            6.69467
     45       0.00000           0.250509            6.81669
     46       0.00000           0.269128            7.32335
     47       0.00000           0.310518            8.44963
     48       0.00000           0.315381            8.58195
     49       0.00000           0.337797            9.19193
     50       0.00000           0.357877            9.73834
     51       0.00000           0.373143           10.15373
     52       0.00000           0.397654           10.82072
     53       0.00000           0.404048           10.99472
     54       0.00000           0.408609           11.11882
     55       0.00000           0.427377           11.62952
     56       0.00000           0.430489           11.71420
     57       0.00000           0.446851           12.15943
     58       0.00000           0.464325           12.63492
     59       0.00000           0.499052           13.57990
     60       0.00000           0.520838           14.17272
     61       0.00000           0.529808           14.41682
     62       0.00000           0.546081           14.85963
     63       0.00000           0.568166           15.46059
     64       0.00000           0.591292           16.08987
     65       0.00000           0.645400           17.56222
     66       0.00000           0.682790           18.57966
     67       0.00000           0.700948           19.07377
     68       0.00000           0.750215           20.41439

  Highest occupied state (VBM) at    -10.96161226 eV
  | Occupation number:      2.00000000

  Lowest unoccupied state (CBM) at    -2.43176925 eV
  | Occupation number:      0.00000000

  Overall HOMO-LUMO gap:      8.52984302 eV.
  Calculating total energy contributions from superposition of free atom densities.

  Total energy components:
  | Sum of eigenvalues            :        -173.54686078 Ha       -4722.45035758 eV
  | XC energy correction          :         -36.46255134 Ha        -992.19650437 eV
  | XC potential correction       :          46.59319660 Ha        1267.86538770 eV
  | Free-atom electrostatic energy:        -143.04660490 Ha       -3892.49616727 eV
  | Hartree energy correction     :           0.00000000 Ha           0.00000000 eV
  | van der Waals energy corr.    :           0.00000000 Ha           0.00000000 eV
  | Entropy correction            :           0.00000000 Ha           0.00000000 eV
  | ---------------------------
  | Total energy                  :        -306.46282042 Ha       -8339.27764152 eV
  | Total energy, T -> 0          :        -306.46282042 Ha       -8339.27764152 eV  <-- do not rely on this value for anything but (periodic) metals
  | Electronic free energy        :        -306.46282042 Ha       -8339.27764152 eV

  Derived energy quantities:
  | Kinetic energy                :         303.34508460 Ha        8254.43973313 eV
  | Electrostatic energy          :        -573.34535368 Ha      -15601.52087028 eV
  | Energy correction for multipole
  | error in Hartree potential    :           0.00000000 Ha           0.00000000 eV
  | Sum of eigenvalues per atom                           :        -393.53752980 eV
  | Total energy (T->0) per atom                          :        -694.93980346 eV  <-- do not rely on this value for anything but (periodic) metals
  | Electronic free energy per atom                       :        -694.93980346 eV
  Initialize hartree_potential_storage
  Max. number of atoms included in rho_multipole:           12

  End scf initialization - timings             :  max(cpu_time)    wall_clock(cpu1)
  | Time for scf. initialization               :        1.296 s           1.295 s
  | Boundary condition initialization          :        0.000 s           0.000 s
  | Integration                                :        0.909 s           0.908 s
  | Solution of K.-S. eqns.                    :        0.118 s           0.118 s
  | Grid partitioning                          :        0.121 s           0.120 s
  | Preloading free-atom quantities on grid    :        0.014 s           0.013 s
  | Free-atom superposition energy             :        0.045 s           0.046 s
  | Total energy evaluation                    :        0.001 s           0.000 s
------------------------------------------------------------

------------------------------------------------------------
          Begin self-consistency iteration #    1

  Date     :  20150727, Time     :  114529.299
------------------------------------------------------------
  Evaluating new KS density.
  Integration grid: deviation in total charge (<rho> - N_e) =   1.421085E-14
  Pulay mixing of updated and previous charge densities.

  Evaluating partitioned Hartree potential by multipole expansion.
  | Analytical far-field extrapolation by fixed multipoles:
  | Hartree multipole sum: apparent total charge =  -0.171889E-05
  Summing up the Hartree potential.
  Time summed over all CPUs for potential: real work        1.655 s, elapsed        1.670 s
  | RMS charge density error from multipole expansion :   0.146236E-02

  Integrating Hamiltonian matrix: batch-based integration.
  Time summed over all CPUs for integration: real work        4.577 s, elapsed        4.705 s

  Updating Kohn-Sham eigenvalues, eigenvectors, occupation numbers, and Fermi level.
  Solving generalized eigenproblem
  Updating Kohn-Sham eigenvalues and eigenfunctions.
  Solving real generalised eigenvalue problem by standard LAPACK (fast)
  Determining occupation numbers for Kohn-Sham eigenstates.
  | Chemical potential (Fermi level) in eV                 : -.30692940E+01
  | Error in electron count due to remaining E_F inaccuracy: 0.00000000E+00
  | Maximum occupation number of highest empty state:  0.00E+00

  Writing Kohn-Sham eigenvalues.

  State    Occupation    Eigenvalue [Ha]    Eigenvalue [eV]
      1       2.00000         -18.996399         -516.91831
      2       2.00000         -18.976229         -516.36945
      3       2.00000         -18.964580         -516.05247
      4       2.00000         -18.919198         -514.81757
      5       2.00000          -1.088590          -29.62203
      6       2.00000          -1.053982          -28.68031
      7       2.00000          -1.052608          -28.64293
      8       2.00000          -0.985804          -26.82508
      9       2.00000          -0.622206          -16.93110
     10       2.00000          -0.604995          -16.46274
     11       2.00000          -0.577513          -15.71494
     12       2.00000          -0.563914          -15.34487
     13       2.00000          -0.512462          -13.94480
     14       2.00000          -0.462483          -12.58480
     15       2.00000          -0.453998          -12.35391
     16       2.00000          -0.433942          -11.80815
     17       2.00000          -0.398958          -10.85619
     18       2.00000          -0.392282          -10.67455
     19       2.00000          -0.385319          -10.48508
     20       2.00000          -0.344328           -9.36965
     21       0.00000          -0.081640           -2.22154
     22       0.00000          -0.057372           -1.56117
     23       0.00000          -0.050096           -1.36318
     24       0.00000          -0.014418           -0.39233
     25       0.00000           0.005720            0.15565
     26       0.00000           0.012014            0.32691
     27       0.00000           0.035371            0.96250
     28       0.00000           0.067858            1.84650
     29       0.00000           0.090338            2.45821
     30       0.00000           0.093954            2.55663
     31       0.00000           0.100978            2.74774
     32       0.00000           0.114990            3.12903
     33       0.00000           0.117951            3.20961
     34       0.00000           0.124677            3.39263
     35       0.00000           0.136410            3.71190
     36       0.00000           0.141440            3.84878
     37       0.00000           0.173267            4.71483
     38       0.00000           0.177193            4.82167
     39       0.00000           0.187551            5.10353
     40       0.00000           0.188955            5.14174
     41       0.00000           0.210551            5.72939
     42       0.00000           0.240065            6.53251
     43       0.00000           0.252311            6.86574
     44       0.00000           0.255590            6.95495
     45       0.00000           0.261473            7.11505
     46       0.00000           0.280694            7.63807
     47       0.00000           0.321112            8.73790
     48       0.00000           0.328392            8.93599
     49       0.00000           0.349104            9.49961
     50       0.00000           0.368988           10.04066
     51       0.00000           0.384686           10.46784
     52       0.00000           0.410238           11.16315
     53       0.00000           0.414795           11.28715
     54       0.00000           0.421941           11.48160
     55       0.00000           0.436267           11.87142
     56       0.00000           0.441289           12.00807
     57       0.00000           0.455969           12.40755
     58       0.00000           0.473772           12.89198
     59       0.00000           0.511070           13.90692
     60       0.00000           0.534417           14.54223
     61       0.00000           0.545702           14.84930
     62       0.00000           0.560584           15.25427
     63       0.00000           0.581916           15.83475
     64       0.00000           0.609437           16.58363
     65       0.00000           0.663112           18.04420
     66       0.00000           0.698715           19.01301
     67       0.00000           0.717119           19.51379
     68       0.00000           0.762726           20.75484

  Highest occupied state (VBM) at     -9.36965342 eV
  | Occupation number:      2.00000000

  Lowest unoccupied state (CBM) at    -2.22154002 eV
  | Occupation number:      0.00000000

  Overall HOMO-LUMO gap:      7.14811340 eV.

  Total energy components:
  | Sum of eigenvalues            :        -171.57957710 Ha       -4668.91784481 eV
  | XC energy correction          :         -36.65842159 Ha        -997.52640508 eV
  | XC potential correction       :          46.84961600 Ha        1274.84291458 eV
  | Free-atom electrostatic energy:        -143.04660490 Ha       -3892.49616727 eV
  | Hartree energy correction     :          -1.90027148 Ha         -51.70901789 eV
  | van der Waals energy corr.    :           0.00000000 Ha           0.00000000 eV
  | Entropy correction            :           0.00000000 Ha           0.00000000 eV
  | ---------------------------
  | Total energy                  :        -306.33525907 Ha       -8335.80652046 eV
  | Total energy, T -> 0          :        -306.33525907 Ha       -8335.80652046 eV  <-- do not rely on this value for anything but (periodic) metals
  | Electronic free energy        :        -306.33525907 Ha       -8335.80652046 eV

  Derived energy quantities:
  | Kinetic energy                :         304.51954219 Ha        8286.39835036 eV
  | Electrostatic energy          :        -574.19637967 Ha      -15624.67846575 eV
  | Energy correction for multipole
  | error in Hartree potential    :          -0.00016704 Ha          -0.00454543 eV
  | Sum of eigenvalues per atom                           :        -389.07648707 eV
  | Total energy (T->0) per atom                          :        -694.65054337 eV  <-- do not rely on this value for anything but (periodic) metals
  | Electronic free energy per atom                       :        -694.65054337 eV

  Self-consistency convergence accuracy:
  | Change of charge density      : 0.5996E+00
  | Change of sum of eigenvalues  : 0.5353E+02 eV
  | Change of total energy        : 0.3471E+01 eV

  End self-consistency iteration #     1       :  max(cpu_time)    wall_clock(cpu1)
  | Time for this iteration                    :        1.222 s           1.222 s
  | Charge density update                      :        0.385 s           0.385 s
  | Density mixing                             :        0.002 s           0.003 s
  | Hartree multipole update                   :        0.005 s           0.004 s
  | Hartree multipole summation                :        0.209 s           0.209 s
  | Integration                                :        0.590 s           0.590 s
  | Solution of K.-S. eqns.                    :        0.030 s           0.030 s
  | Total energy evaluation                    :        0.001 s           0.001 s
------------------------------------------------------------

------------------------------------------------------------
          Begin self-consistency iteration #    2

  Date     :  20150727, Time     :  114530.521
------------------------------------------------------------
  Evaluating new KS density.
  Integration grid: deviation in total charge (<rho> - N_e) =   1.421085E-14
  Pulay mixing of updated and previous charge densities.

  Evaluating partitioned Hartree potential by multipole expansion.
  | Analytical far-field extrapolation by fixed multipoles:
  | Hartree multipole sum: apparent total charge =  -0.502618E-05
  Summing up the Hartree potential.
  Time summed over all CPUs for potential: real work        1.655 s, elapsed        1.670 s
  | RMS charge density error from multipole expansion :   0.586863E-02

  Integrating Hamiltonian matrix: batch-based integration.
  Time summed over all CPUs for integration: real work        4.567 s, elapsed        4.711 s

  Updating Kohn-Sham eigenvalues, eigenvectors, occupation numbers, and Fermi level.
  Solving generalized eigenproblem
  Updating Kohn-Sham eigenvalues and eigenfunctions.
  Solving real generalised eigenvalue problem by standard LAPACK (fast)
  Determining occupation numbers for Kohn-Sham eigenstates.
  | Chemical potential (Fermi level) in eV                 : -.20985484E+01
  | Error in electron count due to remaining E_F inaccuracy: 0.00000000E+00
  | Maximum occupation number of highest empty state:  0.00E+00

  Highest occupied state (VBM) at     -5.50979220 eV
  | Occupation number:      2.00000000

  Lowest unoccupied state (CBM) at    -1.76501592 eV
  | Occupation number:      0.00000000

  Overall HOMO-LUMO gap:      3.74477628 eV.

  Total energy components:
  | Sum of eigenvalues            :        -166.87322800 Ha       -4540.85156988 eV
  | XC energy correction          :         -37.14409163 Ha       -1010.74215917 eV
  | XC potential correction       :          47.48495601 Ha        1292.13139609 eV
  | Free-atom electrostatic energy:        -143.04660490 Ha       -3892.49616727 eV
  | Hartree energy correction     :          -6.60361411 Ha        -179.69348257 eV
  | van der Waals energy corr.    :           0.00000000 Ha           0.00000000 eV
  | Entropy correction            :           0.00000000 Ha           0.00000000 eV
  | ---------------------------
  | Total energy                  :        -306.18258262 Ha       -8331.65198280 eV
  | Total energy, T -> 0          :        -306.18258262 Ha       -8331.65198280 eV  <-- do not rely on this value for anything but (periodic) metals
  | Electronic free energy        :        -306.18258262 Ha       -8331.65198280 eV

  Derived energy quantities:
  | Kinetic energy                :         306.88628375 Ha        8350.80066481 eV
  | Electrostatic energy          :        -575.92477474 Ha      -15671.71048844 eV
  | Energy correction for multipole
  | error in Hartree potential    :          -0.00124034 Ha          -0.03375145 eV
  | Sum of eigenvalues per atom                           :        -378.40429749 eV
  | Total energy (T->0) per atom                          :        -694.30433190 eV  <-- do not rely on this value for anything but (periodic) metals
  | Electronic free energy per atom                       :        -694.30433190 eV

  Self-consistency convergence accuracy:
  | Change of charge density      : 0.4533E+00
  | Change of sum of eigenvalues  : 0.1281E+03 eV
  | Change of total energy        : 0.4155E+01 eV

  End self-consistency iteration #     2       :  max(cpu_time)    wall_clock(cpu1)
  | Time for this iteration                    :        1.221 s           1.221 s
  | Charge density update                      :        0.382 s           0.382 s
  | Density mixing                             :        0.004 s           0.004 s
  | Hartree multipole update                   :        0.004 s           0.004 s
  | Hartree multipole summation                :        0.210 s           0.210 s
  | Integration                                :        0.590 s           0.590 s
  | Solution of K.-S. eqns.                    :        0.030 s           0.030 s
  | Total energy evaluation                    :        0.000 s           0.001 s
------------------------------------------------------------

------------------------------------------------------------
          Begin self-consistency iteration #    3

  Date     :  20150727, Time     :  114531.742
------------------------------------------------------------
  Evaluating new KS density.
  Integration grid: deviation in total charge (<rho> - N_e) =   4.263256E-14
  Pulay mixing of updated and previous charge densities.

  Evaluating partitioned Hartree potential by multipole expansion.
  | Analytical far-field extrapolation by fixed multipoles:
  | Hartree multipole sum: apparent total charge =  -0.500616E-05
  Summing up the Hartree potential.
  Time summed over all CPUs for potential: real work        1.655 s, elapsed        1.670 s
  | RMS charge density error from multipole expansion :   0.114402E-01

  Integrating Hamiltonian matrix: batch-based integration.
  Time summed over all CPUs for integration: real work        4.566 s, elapsed        4.713 s

  Updating Kohn-Sham eigenvalues, eigenvectors, occupation numbers, and Fermi level.
  Solving generalized eigenproblem
  Updating Kohn-Sham eigenvalues and eigenfunctions.
  Solving real generalised eigenvalue problem by standard LAPACK (fast)
  Determining occupation numbers for Kohn-Sham eigenstates.
  | Chemical potential (Fermi level) in eV                 : -.19353394E+01
  | Error in electron count due to remaining E_F inaccuracy: 0.00000000E+00
  | Maximum occupation number of highest empty state:  0.00E+00

  Highest occupied state (VBM) at     -5.37635208 eV
  | Occupation number:      2.00000000

  Lowest unoccupied state (CBM) at    -1.68794877 eV
  | Occupation number:      0.00000000

  Overall HOMO-LUMO gap:      3.68840330 eV.

  Total energy components:
  | Sum of eigenvalues            :        -167.10559764 Ha       -4547.17466947 eV
  | XC energy correction          :         -37.09717897 Ha       -1009.46560088 eV
  | XC potential correction       :          47.42011288 Ha        1290.36692462 eV
  | Free-atom electrostatic energy:        -143.04660490 Ha       -3892.49616727 eV
  | Hartree energy correction     :          -6.34967869 Ha        -172.78354835 eV
  | van der Waals energy corr.    :           0.00000000 Ha           0.00000000 eV
  | Entropy correction            :           0.00000000 Ha           0.00000000 eV
  | ---------------------------
  | Total energy                  :        -306.17894732 Ha       -8331.55306135 eV
  | Total energy, T -> 0          :        -306.17894732 Ha       -8331.55306135 eV  <-- do not rely on this value for anything but (periodic) metals
  | Electronic free energy        :        -306.17894732 Ha       -8331.55306135 eV

  Derived energy quantities:
  | Kinetic energy                :         305.18902473 Ha        8304.61589714 eV
  | Electrostatic energy          :        -574.27079308 Ha      -15626.70335761 eV
  | Energy correction for multipole
  | error in Hartree potential    :          -0.00461249 Ha          -0.12551218 eV
  | Sum of eigenvalues per atom                           :        -378.93122246 eV
  | Total energy (T->0) per atom                          :        -694.29608845 eV  <-- do not rely on this value for anything but (periodic) metals
  | Electronic free energy per atom                       :        -694.29608845 eV

  Self-consistency convergence accuracy:
  | Change of charge density      : 0.2260E+00
  | Change of sum of eigenvalues  : -.6323E+01 eV
  | Change of total energy        : 0.9892E-01 eV

  End self-consistency iteration #     3       :  max(cpu_time)    wall_clock(cpu1)
  | Time for this iteration                    :        1.218 s           1.217 s
  | Charge density update                      :        0.377 s           0.377 s
  | Density mixing                             :        0.006 s           0.005 s
  | Hartree multipole update                   :        0.004 s           0.005 s
  | Hartree multipole summation                :        0.209 s           0.209 s
  | Integration                                :        0.591 s           0.590 s
  | Solution of K.-S. eqns.                    :        0.030 s           0.031 s
  | Total energy evaluation                    :        0.000 s           0.000 s
------------------------------------------------------------

------------------------------------------------------------
          Begin self-consistency iteration #    4

  Date     :  20150727, Time     :  114532.959
------------------------------------------------------------
  Evaluating new KS density.
  Integration grid: deviation in total charge (<rho> - N_e) =   2.842171E-14
  Pulay mixing of updated and previous charge densities.

  Evaluating partitioned Hartree potential by multipole expansion.
  | Analytical far-field extrapolation by fixed multipoles:
  | Hartree multipole sum: apparent total charge =  -0.627088E-05
  Summing up the Hartree potential.
  Time summed over all CPUs for potential: real work        1.654 s, elapsed        1.669 s
  | RMS charge density error from multipole expansion :   0.154983E-01

  Integrating Hamiltonian matrix: batch-based integration.
  Time summed over all CPUs for integration: real work        4.553 s, elapsed        4.683 s

  Updating Kohn-Sham eigenvalues, eigenvectors, occupation numbers, and Fermi level.
  Solving generalized eigenproblem
  Updating Kohn-Sham eigenvalues and eigenfunctions.
  Solving real generalised eigenvalue problem by standard LAPACK (fast)
  Determining occupation numbers for Kohn-Sham eigenstates.
  | Chemical potential (Fermi level) in eV                 : -.29923052E+01
  | Error in electron count due to remaining E_F inaccuracy: 0.00000000E+00
  | Maximum occupation number of highest empty state:  0.00E+00

  Highest occupied state (VBM) at     -3.83856365 eV
  | Occupation number:      2.00000000

  Lowest unoccupied state (CBM) at    -1.48124200 eV
  | Occupation number:      0.00000000

  Overall HOMO-LUMO gap:      2.35732165 eV.

  Total energy components:
  | Sum of eigenvalues            :        -165.40478145 Ha       -4500.89310620 eV
  | XC energy correction          :         -37.28278865 Ha       -1014.51629728 eV
  | XC potential correction       :          47.66215584 Ha        1296.95324858 eV
  | Free-atom electrostatic energy:        -143.04660490 Ha       -3892.49616727 eV
  | Hartree energy correction     :          -8.09397401 Ha        -220.24823879 eV
  | van der Waals energy corr.    :           0.00000000 Ha           0.00000000 eV
  | Entropy correction            :           0.00000000 Ha           0.00000000 eV
  | ---------------------------
  | Total energy                  :        -306.16599317 Ha       -8331.20056096 eV
  | Total energy, T -> 0          :        -306.16599317 Ha       -8331.20056096 eV  <-- do not rely on this value for anything but (periodic) metals
  | Electronic free energy        :        -306.16599317 Ha       -8331.20056096 eV

  Derived energy quantities:
  | Kinetic energy                :         305.35200920 Ha        8309.05093027 eV
  | Electrostatic energy          :        -574.23521372 Ha      -15625.73519395 eV
  | Energy correction for multipole
  | error in Hartree potential    :          -0.00651069 Ha          -0.17716497 eV
  | Sum of eigenvalues per atom                           :        -375.07442552 eV
  | Total energy (T->0) per atom                          :        -694.26671341 eV  <-- do not rely on this value for anything but (periodic) metals
  | Electronic free energy per atom                       :        -694.26671341 eV

  Self-consistency convergence accuracy:
  | Change of charge density      : 0.1391E+00
  | Change of sum of eigenvalues  : 0.4628E+02 eV
  | Change of total energy        : 0.3525E+00 eV

  End self-consistency iteration #     4       :  max(cpu_time)    wall_clock(cpu1)
  | Time for this iteration                    :        1.214 s           1.214 s
  | Charge density update                      :        0.376 s           0.377 s
  | Density mixing                             :        0.007 s           0.006 s
  | Hartree multipole update                   :        0.004 s           0.005 s
  | Hartree multipole summation                :        0.210 s           0.209 s
  | Integration                                :        0.586 s           0.587 s
  | Solution of K.-S. eqns.                    :        0.031 s           0.030 s
  | Total energy evaluation                    :        0.000 s           0.000 s
------------------------------------------------------------

------------------------------------------------------------
          Begin self-consistency iteration #    5

  Date     :  20150727, Time     :  114534.174
------------------------------------------------------------
  Evaluating new KS density.
  Integration grid: deviation in total charge (<rho> - N_e) =   7.105427E-15
  Pulay mixing of updated and previous charge densities.

  Evaluating partitioned Hartree potential by multipole expansion.
  | Analytical far-field extrapolation by fixed multipoles:
  | Hartree multipole sum: apparent total charge =  -0.622304E-05
  Summing up the Hartree potential.
  Time summed over all CPUs for potential: real work        1.654 s, elapsed        1.669 s
  | RMS charge density error from multipole expansion :   0.159484E-01

  Integrating Hamiltonian matrix: batch-based integration.
  Time summed over all CPUs for integration: real work        4.555 s, elapsed        4.684 s

  Updating Kohn-Sham eigenvalues, eigenvectors, occupation numbers, and Fermi level.
  Solving generalized eigenproblem
  Updating Kohn-Sham eigenvalues and eigenfunctions.
  Solving real generalised eigenvalue problem by standard LAPACK (fast)
  Determining occupation numbers for Kohn-Sham eigenstates.
  | Chemical potential (Fermi level) in eV                 : -.15314771E+01
  | Error in electron count due to remaining E_F inaccuracy: 0.71054274E-14
  | Maximum occupation number of highest empty state:  0.00E+00

  Highest occupied state (VBM) at     -3.77832663 eV
  | Occupation number:      2.00000000

  Lowest unoccupied state (CBM) at    -1.47678267 eV
  | Occupation number:      0.00000000

  Overall HOMO-LUMO gap:      2.30154397 eV.

  Total energy components:
  | Sum of eigenvalues            :        -165.36033667 Ha       -4499.68370211 eV
  | XC energy correction          :         -37.29339350 Ha       -1014.80486990 eV
  | XC potential correction       :          47.67552936 Ha        1297.31716068 eV
  | Free-atom electrostatic energy:        -143.04660490 Ha       -3892.49616727 eV
  | Hartree energy correction     :          -8.14104078 Ha        -221.52899093 eV
  | van der Waals energy corr.    :           0.00000000 Ha           0.00000000 eV
  | Entropy correction            :           0.00000000 Ha           0.00000000 eV
  | ---------------------------
  | Total energy                  :        -306.16584649 Ha       -8331.19656953 eV
  | Total energy, T -> 0          :        -306.16584649 Ha       -8331.19656953 eV  <-- do not rely on this value for anything but (periodic) metals
  | Electronic free energy        :        -306.16584649 Ha       -8331.19656953 eV

  Derived energy quantities:
  | Kinetic energy                :         305.40653954 Ha        8310.53477631 eV
  | Electrostatic energy          :        -574.27899253 Ha      -15626.92647594 eV
  | Energy correction for multipole
  | error in Hartree potential    :          -0.00651543 Ha          -0.17729399 eV
  | Sum of eigenvalues per atom                           :        -374.97364184 eV
  | Total energy (T->0) per atom                          :        -694.26638079 eV  <-- do not rely on this value for anything but (periodic) metals
  | Electronic free energy per atom                       :        -694.26638079 eV

  Self-consistency convergence accuracy:
  | Change of charge density      : 0.2573E-01
  | Change of sum of eigenvalues  : 0.1209E+01 eV
  | Change of total energy        : 0.3991E-02 eV

  End self-consistency iteration #     5       :  max(cpu_time)    wall_clock(cpu1)
  | Time for this iteration                    :        1.216 s           1.216 s
  | Charge density update                      :        0.378 s           0.377 s
  | Density mixing                             :        0.007 s           0.008 s
  | Hartree multipole update                   :        0.004 s           0.004 s
  | Hartree multipole summation                :        0.210 s           0.209 s
  | Integration                                :        0.586 s           0.587 s
  | Solution of K.-S. eqns.                    :        0.031 s           0.030 s
  | Total energy evaluation                    :        0.000 s           0.000 s
------------------------------------------------------------

------------------------------------------------------------
          Begin self-consistency iteration #    6

  Date     :  20150727, Time     :  114535.390
------------------------------------------------------------
  Evaluating new KS density.
  Integration grid: deviation in total charge (<rho> - N_e) =   2.842171E-14
  Pulay mixing of updated and previous charge densities.

  Evaluating partitioned Hartree potential by multipole expansion.
  | Analytical far-field extrapolation by fixed multipoles:
  | Hartree multipole sum: apparent total charge =  -0.620547E-05
  Summing up the Hartree potential.
  Time summed over all CPUs for potential: real work        1.654 s, elapsed        1.669 s
  | RMS charge density error from multipole expansion :   0.161832E-01

  Integrating Hamiltonian matrix: batch-based integration.
  Time summed over all CPUs for integration: real work        4.553 s, elapsed        4.687 s

  Updating Kohn-Sham eigenvalues, eigenvectors, occupation numbers, and Fermi level.
  Solving generalized eigenproblem
  Updating Kohn-Sham eigenvalues and eigenfunctions.
  Solving real generalised eigenvalue problem by standard LAPACK (fast)
  Determining occupation numbers for Kohn-Sham eigenstates.
  | Chemical potential (Fermi level) in eV                 : -.29825069E+01
  | Error in electron count due to remaining E_F inaccuracy: 0.00000000E+00
  | Maximum occupation number of highest empty state:  0.00E+00

  Highest occupied state (VBM) at     -3.76147061 eV
  | Occupation number:      2.00000000

  Lowest unoccupied state (CBM) at    -1.47277252 eV
  | Occupation number:      0.00000000

  Overall HOMO-LUMO gap:      2.28869809 eV.

  Total energy components:
  | Sum of eigenvalues            :        -165.33399688 Ha       -4498.96696010 eV
  | XC energy correction          :         -37.29893749 Ha       -1014.95572953 eV
  | XC potential correction       :          47.68254197 Ha        1297.50798340 eV
  | Free-atom electrostatic energy:        -143.04660490 Ha       -3892.49616727 eV
  | Hartree energy correction     :          -8.16889316 Ha        -222.28689277 eV
  | van der Waals energy corr.    :           0.00000000 Ha           0.00000000 eV
  | Entropy correction            :           0.00000000 Ha           0.00000000 eV
  | ---------------------------
  | Total energy                  :        -306.16589047 Ha       -8331.19776628 eV
  | Total energy, T -> 0          :        -306.16589047 Ha       -8331.19776628 eV  <-- do not rely on this value for anything but (periodic) metals
  | Electronic free energy        :        -306.16589047 Ha       -8331.19776628 eV

  Derived energy quantities:
  | Kinetic energy                :         305.43228541 Ha        8311.23535698 eV
  | Electrostatic energy          :        -574.29923838 Ha      -15627.47739372 eV
  | Energy correction for multipole
  | error in Hartree potential    :          -0.00652197 Ha          -0.17747189 eV
  | Sum of eigenvalues per atom                           :        -374.91391334 eV
  | Total energy (T->0) per atom                          :        -694.26648052 eV  <-- do not rely on this value for anything but (periodic) metals
  | Electronic free energy per atom                       :        -694.26648052 eV

  Self-consistency convergence accuracy:
  | Change of charge density      : 0.1171E-01
  | Change of sum of eigenvalues  : 0.7167E+00 eV
  | Change of total energy        : -.1197E-02 eV

  End self-consistency iteration #     6       :  max(cpu_time)    wall_clock(cpu1)
  | Time for this iteration                    :        1.245 s           1.244 s
  | Charge density update                      :        0.405 s           0.404 s
  | Density mixing                             :        0.009 s           0.009 s
  | Hartree multipole update                   :        0.004 s           0.004 s
  | Hartree multipole summation                :        0.209 s           0.210 s
  | Integration                                :        0.587 s           0.587 s
  | Solution of K.-S. eqns.                    :        0.030 s           0.030 s
  | Total energy evaluation                    :        0.000 s           0.000 s
------------------------------------------------------------

------------------------------------------------------------
          Begin self-consistency iteration #    7

  Date     :  20150727, Time     :  114536.635
------------------------------------------------------------
  Evaluating new KS density.
  Integration grid: deviation in total charge (<rho> - N_e) =  -2.842171E-14
  Pulay mixing of updated and previous charge densities.

  Evaluating partitioned Hartree potential by multipole expansion.
  | Analytical far-field extrapolation by fixed multipoles:
  | Hartree multipole sum: apparent total charge =  -0.598656E-05
  Summing up the Hartree potential.
  Time summed over all CPUs for potential: real work        1.654 s, elapsed        1.669 s
  | RMS charge density error from multipole expansion :   0.160493E-01

  Integrating Hamiltonian matrix: batch-based integration.
  Time summed over all CPUs for integration: real work        4.554 s, elapsed        4.690 s

  Updating Kohn-Sham eigenvalues, eigenvectors, occupation numbers, and Fermi level.
  Solving generalized eigenproblem
  Updating Kohn-Sham eigenvalues and eigenfunctions.
  Solving real generalised eigenvalue problem by standard LAPACK (fast)
  Determining occupation numbers for Kohn-Sham eigenstates.
  | Chemical potential (Fermi level) in eV                 : -.15428091E+01
  | Error in electron count due to remaining E_F inaccuracy: 0.77464577E-08
  | Maximum occupation number of highest empty state:  0.00E+00

  Highest occupied state (VBM) at     -3.98485552 eV
  | Occupation number:      2.00000000

  Lowest unoccupied state (CBM) at    -1.50198155 eV
  | Occupation number:      0.00000001

  Overall HOMO-LUMO gap:      2.48287397 eV.

  Total energy components:
  | Sum of eigenvalues            :        -165.52133287 Ha       -4504.06463174 eV
  | XC energy correction          :         -37.28224638 Ha       -1014.50154128 eV
  | XC potential correction       :          47.66030267 Ha        1296.90282124 eV
  | Free-atom electrostatic energy:        -143.04660490 Ha       -3892.49616727 eV
  | Hartree energy correction     :          -7.97583789 Ha        -217.03359165 eV
  | van der Waals energy corr.    :           0.00000000 Ha           0.00000000 eV
  | Entropy correction            :           0.00000000 Ha           0.00000000 eV
  | ---------------------------
  | Total energy                  :        -306.16571938 Ha       -8331.19311070 eV
  | Total energy, T -> 0          :        -306.16571938 Ha       -8331.19311070 eV  <-- do not rely on this value for anything but (periodic) metals
  | Electronic free energy        :        -306.16571938 Ha       -8331.19311070 eV

  Derived energy quantities:
  | Kinetic energy                :         305.47180278 Ha        8312.31067947 eV
  | Electrostatic energy          :        -574.35527578 Ha      -15629.00224889 eV
  | Energy correction for multipole
  | error in Hartree potential    :          -0.00623657 Ha          -0.16970563 eV
  | Sum of eigenvalues per atom                           :        -375.33871931 eV
  | Total energy (T->0) per atom                          :        -694.26609256 eV  <-- do not rely on this value for anything but (periodic) metals
  | Electronic free energy per atom                       :        -694.26609256 eV

  Self-consistency convergence accuracy:
  | Change of charge density      : 0.1216E-01
  | Change of sum of eigenvalues  : -.5098E+01 eV
  | Change of total energy        : 0.4656E-02 eV

  End self-consistency iteration #     7       :  max(cpu_time)    wall_clock(cpu1)
  | Time for this iteration                    :        1.219 s           1.218 s
  | Charge density update                      :        0.378 s           0.377 s
  | Density mixing                             :        0.009 s           0.009 s
  | Hartree multipole update                   :        0.005 s           0.005 s
  | Hartree multipole summation                :        0.209 s           0.209 s
  | Integration                                :        0.587 s           0.587 s
  | Solution of K.-S. eqns.                    :        0.031 s           0.031 s
  | Total energy evaluation                    :        0.000 s           0.000 s
------------------------------------------------------------

------------------------------------------------------------
          Begin self-consistency iteration #    8

  Date     :  20150727, Time     :  114537.853
------------------------------------------------------------
  Evaluating new KS density.
  Integration grid: deviation in total charge (<rho> - N_e) =   7.746465E-09
  Pulay mixing of updated and previous charge densities.

  Evaluating partitioned Hartree potential by multipole expansion.
  | Analytical far-field extrapolation by fixed multipoles:
  | Hartree multipole sum: apparent total charge =  -0.601440E-05
  Summing up the Hartree potential.
  Time summed over all CPUs for potential: real work        1.654 s, elapsed        1.669 s
  | RMS charge density error from multipole expansion :   0.161168E-01

  Integrating Hamiltonian matrix: batch-based integration.
  Time summed over all CPUs for integration: real work        4.553 s, elapsed        4.688 s

  Updating Kohn-Sham eigenvalues, eigenvectors, occupation numbers, and Fermi level.
  Solving generalized eigenproblem
  Updating Kohn-Sham eigenvalues and eigenfunctions.
  Solving real generalised eigenvalue problem by standard LAPACK (fast)
  Determining occupation numbers for Kohn-Sham eigenstates.
  | Chemical potential (Fermi level) in eV                 : -.15612999E+01
  | Error in electron count due to remaining E_F inaccuracy: 0.00000000E+00
  | Maximum occupation number of highest empty state:  0.00E+00

  Highest occupied state (VBM) at     -3.93900904 eV
  | Occupation number:      2.00000000

  Lowest unoccupied state (CBM) at    -1.49824379 eV
  | Occupation number:      0.00000000

  Overall HOMO-LUMO gap:      2.44076525 eV.

  Total energy components:
  | Sum of eigenvalues            :        -165.49065108 Ha       -4503.22973782 eV
  | XC energy correction          :         -37.28496341 Ha       -1014.57547543 eV
  | XC potential correction       :          47.66385729 Ha        1296.99954759 eV
  | Free-atom electrostatic energy:        -143.04660490 Ha       -3892.49616727 eV
  | Hartree energy correction     :          -8.00735196 Ha        -217.89113313 eV
  | van der Waals energy corr.    :           0.00000000 Ha           0.00000000 eV
  | Entropy correction            :           0.00000000 Ha           0.00000000 eV
  | ---------------------------
  | Total energy                  :        -306.16571406 Ha       -8331.19296607 eV
  | Total energy, T -> 0          :        -306.16571406 Ha       -8331.19296607 eV  <-- do not rely on this value for anything but (periodic) metals
  | Electronic free energy        :        -306.16571406 Ha       -8331.19296607 eV

  Derived energy quantities:
  | Kinetic energy                :         305.47305804 Ha        8312.34483662 eV
  | Electrostatic energy          :        -574.35380869 Ha      -15628.96232726 eV
  | Energy correction for multipole
  | error in Hartree potential    :          -0.00628714 Ha          -0.17108165 eV
  | Sum of eigenvalues per atom                           :        -375.26914482 eV
  | Total energy (T->0) per atom                          :        -694.26608051 eV  <-- do not rely on this value for anything but (periodic) metals
  | Electronic free energy per atom                       :        -694.26608051 eV

  Self-consistency convergence accuracy:
  | Change of charge density      : 0.2895E-02
  | Change of sum of eigenvalues  : 0.8349E+00 eV
  | Change of total energy        : 0.1446E-03 eV

  End self-consistency iteration #     8       :  max(cpu_time)    wall_clock(cpu1)
  | Time for this iteration                    :        1.248 s           1.248 s
  | Charge density update                      :        0.405 s           0.405 s
  | Density mixing                             :        0.011 s           0.011 s
  | Hartree multipole update                   :        0.004 s           0.004 s
  | Hartree multipole summation                :        0.210 s           0.209 s
  | Integration                                :        0.587 s           0.588 s
  | Solution of K.-S. eqns.                    :        0.030 s           0.030 s
  | Total energy evaluation                    :        0.001 s           0.000 s
------------------------------------------------------------

------------------------------------------------------------
          Begin self-consistency iteration #    9

  Date     :  20150727, Time     :  114539.101
------------------------------------------------------------
  Evaluating new KS density.
  Integration grid: deviation in total charge (<rho> - N_e) =  -2.842171E-14
  Pulay mixing of updated and previous charge densities.

  Evaluating partitioned Hartree potential by multipole expansion.
  | Analytical far-field extrapolation by fixed multipoles:
  | Hartree multipole sum: apparent total charge =  -0.601488E-05
  Summing up the Hartree potential.
  Time summed over all CPUs for potential: real work        1.654 s, elapsed        1.669 s
  | RMS charge density error from multipole expansion :   0.161286E-01

  Integrating Hamiltonian matrix: batch-based integration.
  Time summed over all CPUs for integration: real work        4.553 s, elapsed        4.678 s

  Updating Kohn-Sham eigenvalues, eigenvectors, occupation numbers, and Fermi level.
  Solving generalized eigenproblem
  Updating Kohn-Sham eigenvalues and eigenfunctions.
  Solving real generalised eigenvalue problem by standard LAPACK (fast)
  Determining occupation numbers for Kohn-Sham eigenstates.
  | Chemical potential (Fermi level) in eV                 : -.16343064E+01
  | Error in electron count due to remaining E_F inaccuracy: 0.00000000E+00
  | Maximum occupation number of highest empty state:  0.00E+00

  Highest occupied state (VBM) at     -3.93703623 eV
  | Occupation number:      2.00000000

  Lowest unoccupied state (CBM) at    -1.49767365 eV
  | Occupation number:      0.00000000

  Overall HOMO-LUMO gap:      2.43936257 eV.

  Total energy components:
  | Sum of eigenvalues            :        -165.48643792 Ha       -4503.11509179 eV
  | XC energy correction          :         -37.28534301 Ha       -1014.58580488 eV
  | XC potential correction       :          47.66434777 Ha        1297.01289416 eV
  | Free-atom electrostatic energy:        -143.04660490 Ha       -3892.49616727 eV
  | Hartree energy correction     :          -8.01167632 Ha        -218.00880490 eV
  | van der Waals energy corr.    :           0.00000000 Ha           0.00000000 eV
  | Entropy correction            :           0.00000000 Ha           0.00000000 eV
  | ---------------------------
  | Total energy                  :        -306.16571438 Ha       -8331.19297469 eV
  | Total energy, T -> 0          :        -306.16571438 Ha       -8331.19297469 eV  <-- do not rely on this value for anything but (periodic) metals
  | Electronic free energy        :        -306.16571438 Ha       -8331.19297469 eV

  Derived energy quantities:
  | Kinetic energy                :         305.47540402 Ha        8312.40867405 eV
  | Electrostatic energy          :        -574.35577539 Ha      -15629.01584385 eV
  | Energy correction for multipole
  | error in Hartree potential    :          -0.00629100 Ha          -0.17118684 eV
  | Sum of eigenvalues per atom                           :        -375.25959098 eV
  | Total energy (T->0) per atom                          :        -694.26608122 eV  <-- do not rely on this value for anything but (periodic) metals
  | Electronic free energy per atom                       :        -694.26608122 eV

  Self-consistency convergence accuracy:
  | Change of charge density      : 0.9548E-03
  | Change of sum of eigenvalues  : 0.1146E+00 eV
  | Change of total energy        : -.8625E-05 eV

  End self-consistency iteration #     9       :  max(cpu_time)    wall_clock(cpu1)
  | Time for this iteration                    :        1.220 s           1.220 s
  | Charge density update                      :        0.378 s           0.377 s
  | Density mixing                             :        0.012 s           0.012 s
  | Hartree multipole update                   :        0.004 s           0.005 s
  | Hartree multipole summation                :        0.209 s           0.209 s
  | Integration                                :        0.586 s           0.586 s
  | Solution of K.-S. eqns.                    :        0.031 s           0.030 s
  | Total energy evaluation                    :        0.000 s           0.000 s
------------------------------------------------------------

------------------------------------------------------------
          Begin self-consistency iteration #   10

  Date     :  20150727, Time     :  114540.321
------------------------------------------------------------
  Evaluating new KS density.
  Integration grid: deviation in total charge (<rho> - N_e) =  -7.105427E-15
  Pulay mixing of updated and previous charge densities.

  Evaluating partitioned Hartree potential by multipole expansion.
  | Analytical far-field extrapolation by fixed multipoles:
  | Hartree multipole sum: apparent total charge =  -0.600289E-05
  Summing up the Hartree potential.
  Time summed over all CPUs for potential: real work        1.654 s, elapsed        1.669 s
  | RMS charge density error from multipole expansion :   0.161261E-01

  Integrating Hamiltonian matrix: batch-based integration.
  Time summed over all CPUs for integration: real work        4.556 s, elapsed        4.683 s

  Updating Kohn-Sham eigenvalues, eigenvectors, occupation numbers, and Fermi level.
  Solving generalized eigenproblem
[...]
  |                                  0.00039864       0.12804158       0.01592948
  |                                  0.00034739       0.01592948       0.13055018
  ----------------------------------------------------------------------


  Total energy components:
  | Sum of eigenvalues            :        -165.49292042 Ha       -4503.29148964 eV
  | XC energy correction          :         -37.28440494 Ha       -1014.56027856 eV
  | XC potential correction       :          47.66310033 Ha        1296.97894943 eV
  | Free-atom electrostatic energy:        -143.04660490 Ha       -3892.49616727 eV
  | Hartree energy correction     :          -8.00488286 Ha        -217.82394545 eV
  | van der Waals energy corr.    :          -0.00151873 Ha          -0.04132666 eV
  | Entropy correction            :           0.00000000 Ha           0.00000000 eV
  | ---------------------------
  | Total energy                  :        -306.16723152 Ha       -8331.23425816 eV
  | Total energy, T -> 0          :        -306.16723152 Ha       -8331.23425816 eV  <-- do not rely on this value for anything but (periodic) metals
  | Electronic free energy        :        -306.16723152 Ha       -8331.23425816 eV

  Derived energy quantities:
  | Kinetic energy                :         305.47698526 Ha        8312.45170174 eV
  | Electrostatic energy          :        -574.35829311 Ha      -15629.08435468 eV
  | Energy correction for multipole
  | error in Hartree potential    :          -0.00629287 Ha          -0.17123774 eV
  | Sum of eigenvalues per atom                           :        -375.27429080 eV
  | Total energy (T->0) per atom                          :        -694.26952151 eV  <-- do not rely on this value for anything but (periodic) metals
  | Electronic free energy per atom                       :        -694.26952151 eV

  atomic forces [eV/Ang]:
  -----------------------
  atom #    1
   Hellmann-Feynman + Multipole  : -.683548E+01 -.101491E+02 0.313381E+01
   Pulay + GGA                   : 0.642567E+01 0.128294E+02 -.488403E+01
   Van der Waals               : -.514289E-03 -.590602E-02 -.571211E-02
   ----------------------------------------------------------------
   Total forces(   1)            : -.410327E+00 0.267442E+01 -.175594E+01
  atom #    2
   Hellmann-Feynman + Multipole  : 0.199292E+01 -.347682E+01 0.136644E+01
   Pulay + GGA                   : 0.131644E-02 0.575024E-01 -.280916E-01
   Van der Waals               : -.154120E-02 0.374368E-03 -.158923E-04
   ----------------------------------------------------------------
   Total forces(   2)            : 0.199270E+01 -.341894E+01 0.133834E+01
  atom #    3
   Hellmann-Feynman + Multipole  : -.223532E+01 -.700006E+00 -.262977E+00
   Pulay + GGA                   : 0.606811E-01 0.233655E-01 0.171839E-01
   Van der Waals               : 0.737781E-03 0.761113E-04 -.679256E-03
   ----------------------------------------------------------------
   Total forces(   3)            : -.217390E+01 -.676564E+00 -.246472E+00
  atom #    4
   Hellmann-Feynman + Multipole  : 0.851656E+01 -.506615E+01 -.159984E+02
   Pulay + GGA                   : -.886202E+01 0.366861E+01 0.156634E+02
   Van der Waals               : 0.955410E-03 0.886440E-03 0.263772E-02
   ----------------------------------------------------------------
   Total forces(   4)            : -.344506E+00 -.139665E+01 -.332324E+00
  atom #    5
   Hellmann-Feynman + Multipole  : -.434467E+00 0.408833E+00 0.870408E+00
   Pulay + GGA                   : 0.353056E-01 0.935018E-01 0.115668E+00
   Van der Waals               : 0.152961E-02 0.150009E-02 -.216701E-02
   ----------------------------------------------------------------
   Total forces(   5)            : -.397632E+00 0.503835E+00 0.983909E+00
  atom #    6
   Hellmann-Feynman + Multipole  : 0.668828E+00 0.826502E+00 0.243457E+00
   Pulay + GGA                   : -.111987E+00 -.579225E-01 0.678208E-01
   Van der Waals               : 0.677631E-03 0.103577E-02 -.118713E-02
   ----------------------------------------------------------------
   Total forces(   6)            : 0.557519E+00 0.769616E+00 0.310091E+00
  atom #    7
   Hellmann-Feynman + Multipole  : -.596748E+01 -.929942E+01 0.926302E+01
   Pulay + GGA                   : 0.602823E+01 0.105201E+02 -.672559E+01
   Van der Waals               : 0.107608E-03 0.828626E-03 0.184412E-02
   ----------------------------------------------------------------
   Total forces(   7)            : 0.608587E-01 0.122151E+01 0.253927E+01
  atom #    8
   Hellmann-Feynman + Multipole  : -.489274E+00 -.750282E+00 -.492175E+00
   Pulay + GGA                   : 0.538370E-01 0.119508E+00 0.373087E-01
   Van der Waals               : 0.211142E-02 -.515392E-03 0.104305E-02
   ----------------------------------------------------------------
   Total forces(   8)            : -.433326E+00 -.631289E+00 -.453823E+00
  atom #    9
   Hellmann-Feynman + Multipole  : -.231852E+00 0.405861E+00 -.232511E+01
   Pulay + GGA                   : -.382502E-01 0.450863E-01 -.127043E+00
   Van der Waals               : 0.119278E-02 -.591582E-03 0.741913E-03
   ----------------------------------------------------------------
   Total forces(   9)            : -.268910E+00 0.450356E+00 -.245141E+01
  atom #   10
   Hellmann-Feynman + Multipole  : -.656867E+01 0.458086E+00 -.101645E+02
   Pulay + GGA                   : 0.961882E+01 0.144088E-01 0.116641E+02
   Van der Waals               : -.157922E-02 0.978541E-03 0.224878E-02
   ----------------------------------------------------------------
   Total forces(  10)            : 0.304857E+01 0.473473E+00 0.150188E+01
  atom #   11
   Hellmann-Feynman + Multipole  : -.154560E+00 -.103016E+01 -.123896E+01
   Pulay + GGA                   : 0.357381E-01 0.941637E-01 0.957094E-01
   Van der Waals               : -.169656E-02 0.119792E-02 0.104290E-02
   ----------------------------------------------------------------
   Total forces(  11)            : -.120518E+00 -.934801E+00 -.114220E+01
  atom #   12
   Hellmann-Feynman + Multipole  : -.163217E+01 0.101973E+01 -.310628E+00
   Pulay + GGA                   : 0.128892E+00 -.517864E-01 0.216745E-01
   Van der Waals               : -.198098E-02 0.135127E-03 0.202918E-03
   ----------------------------------------------------------------
   Total forces(  12)            : -.150525E+01 0.968083E+00 -.288751E+00
  Timings for vdw_correction_hirshfeld (Tkatchenko-Scheffler 2009):
  | CPU time:        3.203 s, Wall clock time:        3.203 s.
  Removing unitary transformations (pure translations, rotations) from forces on atoms.
  Atomic forces before filtering:
  | Net force on center of mass :  0.527556E-02 0.305032E-02 0.255607E-02 eV/A
  | Net torque on center of mass:  0.139812E-01 0.696242E-03 -.359101E-02 eV
  Atomic forces after filtering:
  | Net force on center of mass :  0.000000E+00 -.178406E-15 -.178406E-15 eV/A
  | Net torque on center of mass:  -.113290E-14 -.113290E-14 0.151054E-14 eV
 
  Energy and forces in a compact form:
  | Total energy uncorrected      :         -0.833123425816055E+04 eV
  | Total energy corrected        :         -0.833123425816055E+04 eV  <-- do not rely on this value for anything but (periodic) metals
  | Electronic free energy        :         -0.833123425816055E+04 eV
  Total atomic forces (unitary forces cleaned) [eV/Ang]:
  |   1         -0.410680188314467E+00          0.267396628846452E+01         -0.175584288734705E+01
  |   2          0.199226345283785E+01         -0.341958845891401E+01          0.133809405217908E+01
  |   3         -0.217427754871571E+01         -0.676911445419400E+00         -0.246462488870790E+00
  |   4         -0.344857585148541E+00         -0.139626124000269E+01         -0.332117901542474E+00
  |   5         -0.398059051247443E+00          0.504451954702022E+00          0.983852334045608E+00
  |   6          0.557208087728325E+00          0.770033683751023E+00          0.310457985239099E+00
  |   7          0.603138379971826E-01          0.122064248053182E+01          0.253857473253183E+01
  |   8         -0.433950022840789E+00         -0.631984072178271E+00         -0.454802532228952E+00
  |   9         -0.269456797129535E+00          0.449145084083926E+00         -0.245215883974220E+01
  |  10          0.304814256149518E+01          0.473251543113679E+00          0.150170594804575E+01
  |  11         -0.121016553874355E+00         -0.934730513877266E+00         -0.114260355271795E+01
  |  12         -0.150563019278769E+01          0.967984695744657E+00         -0.288696849591948E+00
 
  ------------------------------------ 
  Start decomposition of the XC Energy 
  ------------------------------------ 
  Hartree-Fock part   :          0.000000000 Ha              0.000000000 eV
  ------------------------------------ 
  X Energy            :        -35.972431482 Ha           -978.859664458 eV
  C Energy GGA        :         -1.311973454 Ha            -35.700614106 eV
  Total XC Energy     :        -37.284404936 Ha          -1014.560278564 eV
  LDA X and C from self-consistent density 
  X Energy LDA        :        -32.424662621 Ha           -882.319961869 eV
  C Energy LDA        :         -2.640660133 Ha            -71.856018226 eV
  ------------------------------------ 
  End decomposition of the XC Energy 
  ------------------------------------ 
  Performing Hirshfeld analysis of fragment charges and moments.
  ----------------------------------------------------------------------
  | Atom     1: O
  |   Hirshfeld charge        :     -0.39943710
  |   Free atom volume        :     23.95238533
  |   Hirshfeld volume        :     24.44496704
  |   Hirshfeld dipole vector :      0.02345793       0.06358736       0.02758408
  |   Hirshfeld dipole moment :      0.07317451
  |   Hirshfeld second moments:     -0.00938940      -0.02109999       0.01448664
  |                                 -0.02109999      -0.07181691      -0.03455162
  |                                  0.01448664      -0.03455162      -0.09178054
  ----------------------------------------------------------------------
  | Atom     2: H
  |   Hirshfeld charge        :      0.05344871
  |   Free atom volume        :     10.44207651
  |   Hirshfeld volume        :      8.59715350
  |   Hirshfeld dipole vector :     -0.02339159       0.04374203      -0.01017711
  |   Hirshfeld dipole moment :      0.05063699
  |   Hirshfeld second moments:      0.06340098       0.02839922       0.00280417
  |                                  0.02839922       0.02226867       0.00794956
  |                                  0.00280417       0.00794956       0.05787638
  ----------------------------------------------------------------------
  | Atom     3: H
  |   Hirshfeld charge        :      0.04122010
  |   Free atom volume        :     10.44207651
  |   Hirshfeld volume        :      8.75471945
  |   Hirshfeld dipole vector :      0.04881567       0.01482594       0.01686782
  |   Hirshfeld dipole moment :      0.05373361
  |   Hirshfeld second moments:      0.02022323      -0.02758042      -0.00138356
  |                                 -0.02758042       0.06330592      -0.00539720
  |                                 -0.00138356      -0.00539720       0.04940746
  ----------------------------------------------------------------------
  | Atom     4: O
  |   Hirshfeld charge        :     -0.28232765
  |   Free atom volume        :     23.95238533
  |   Hirshfeld volume        :     21.94836059
  |   Hirshfeld dipole vector :     -0.03056970       0.01882959       0.01508730
  |   Hirshfeld dipole moment :      0.03894466
  |   Hirshfeld second moments:      0.02668760       0.05776329      -0.00790582
  |                                  0.05776329       0.03163411       0.02723685
  |                                 -0.00790582       0.02723685      -0.00371043
  ----------------------------------------------------------------------
  | Atom     5: H
  |   Hirshfeld charge        :      0.12410468
  |   Free atom volume        :     10.44207651
  |   Hirshfeld volume        :      6.75847868
  |   Hirshfeld dipole vector :      0.03587398       0.09660951       0.05765606
  |   Hirshfeld dipole moment :      0.11808709
  |   Hirshfeld second moments:      0.11145924       0.01781027      -0.00686986
  |                                  0.01781027       0.09933927       0.00380795
  |                                 -0.00686986       0.00380795       0.09365784
  ----------------------------------------------------------------------
  | Atom     6: H
  |   Hirshfeld charge        :      0.13805277
  |   Free atom volume        :     10.44207651
  |   Hirshfeld volume        :      6.68689748
  |   Hirshfeld dipole vector :     -0.10254285      -0.06339954       0.01945258
  |   Hirshfeld dipole moment :      0.12211855
  |   Hirshfeld second moments:      0.09901216       0.01355344       0.00023949
  |                                  0.01355344       0.11469572       0.01337335
  |                                  0.00023949       0.01337335       0.10056112
  ----------------------------------------------------------------------
  | Atom     7: O
  |   Hirshfeld charge        :     -0.17547851
  |   Free atom volume        :     23.95238533
  |   Hirshfeld volume        :     20.00027525
  |   Hirshfeld dipole vector :      0.03062645      -0.01090879      -0.01627242
  |   Hirshfeld dipole moment :      0.03635620
  |   Hirshfeld second moments:      0.04742316       0.02136190       0.02954066
  |                                  0.02136190       0.09185110       0.01334592
  |                                  0.02954066       0.01334592       0.10983333
  ----------------------------------------------------------------------
  | Atom     8: H
  |   Hirshfeld charge        :      0.17836632
  |   Free atom volume        :     10.44207651
  |   Hirshfeld volume        :      5.78050550
  |   Hirshfeld dipole vector :      0.05965666       0.09173519       0.04716023
  |   Hirshfeld dipole moment :      0.11915683
  |   Hirshfeld second moments:      0.11742170      -0.00003115       0.00482308
  |                                 -0.00003115       0.12557910      -0.00138167
  |                                  0.00482308      -0.00138167       0.14726689
  ----------------------------------------------------------------------
  | Atom     9: H
  |   Hirshfeld charge        :      0.17220929
  |   Free atom volume        :     10.44207651
  |   Hirshfeld volume        :      5.75079298
  |   Hirshfeld dipole vector :     -0.01791745       0.00825785      -0.11963358
  |   Hirshfeld dipole moment :      0.12124941
  |   Hirshfeld second moments:      0.12513869       0.01198153       0.00873439
  |                                  0.01198153       0.13863955       0.00438352
  |                                  0.00873439       0.00438352       0.12898924
  ----------------------------------------------------------------------
  | Atom    10: O
  |   Hirshfeld charge        :     -0.18528775
  |   Free atom volume        :     23.95238533
  |   Hirshfeld volume        :     20.58991249
  |   Hirshfeld dipole vector :     -0.01912827      -0.03020873       0.03047945
  |   Hirshfeld dipole moment :      0.04698356
  |   Hirshfeld second moments:      0.06831593      -0.02884347       0.00632125
  |                                 -0.02884347       0.07746687       0.03893506
  |                                  0.00632125       0.03893506       0.04581737
  ----------------------------------------------------------------------
  | Atom    11: H
  |   Hirshfeld charge        :      0.16443546
  |   Free atom volume        :     10.44207651
  |   Hirshfeld volume        :      5.97787070
  |   Hirshfeld dipole vector :      0.00010900       0.07178344       0.09394678
  |   Hirshfeld dipole moment :      0.11823228
  |   Hirshfeld second moments:      0.12929757      -0.01210019       0.00520450
  |                                 -0.01210019       0.12839451       0.00239407
  |                                  0.00520450       0.00239407       0.11336282
  ----------------------------------------------------------------------
  | Atom    12: H
  |   Hirshfeld charge        :      0.17075469
  |   Free atom volume        :     10.44207651
  |   Hirshfeld volume        :      5.84310600
  |   Hirshfeld dipole vector :      0.08934937      -0.07930155       0.01270234
  |   Hirshfeld dipole moment :      0.12013907
  |   Hirshfeld second moments:      0.12297740       0.00039864       0.00034739
  |                                  0.00039864       0.12804158       0.01592948
  |                                  0.00034739       0.01592948       0.13055018
  ----------------------------------------------------------------------


------------------------------------------------------------------------------
  Final output of selected total energy values:

  The following output summarizes some interesting total energy values
  at the end of a run (AFTER all relaxation, molecular dynamics, etc.).

  | Total energy of the DFT / Hartree-Fock s.c.f. calculation      :          -8331.234258161 eV
  | Final zero-broadening corrected energy (caution - metals only) :          -8331.234258161 eV
  | For reference only, the value of 1 Hartree used in FHI-aims is :             27.211384500 eV

  Before relying on these values, please be sure to understand exactly which
  total energy value is referred to by a given number. Different objects may
  all carry the same name 'total energy'. Definitions:

  Total energy of the DFT / Hartree-Fock s.c.f. calculation:
  | Note that this energy does not include ANY quantities calculated after the
  | s.c.f. cycle, in particular not ANY RPA, MP2, etc. many-body perturbation terms.

  Final zero-broadening corrected energy:
  | For metallic systems only, a broadening of the occupation numbers at the Fermi
  | level can be extrapolated back to zero broadening by an electron-gas inspired
  | formula. For all systems that are not real metals, this value can be
  | meaningless and should be avoided.

------------------------------------------------------------------------------

------------------------------------------------------------
          Leaving FHI-aims.
          Date     :  20150727, Time     :  114552.064

          Computational steps:
          | Number of self-consistency cycles          :           15

          Detailed time accounting                     :  max(cpu_time)    wall_clock(cpu1)
          | Total time                                 :       24.650 s          24.680 s
          | Preparation time                           :        0.169 s           0.577 s
          | Grid partitioning                          :        0.121 s           0.120 s
          | Preloading free-atom quantities on grid    :        0.014 s           0.013 s
          | Free-atom superposition energy             :        0.045 s           0.046 s
          | Total time for integrations                :        9.724 s           9.726 s
          | Total time for solution of K.-S. equations :        0.575 s           0.571 s
          | Total time for density & force components  :        8.995 s           8.995 s
          | Total time for mixing                      :        0.148 s           0.147 s
          | Total time for Hartree multipole update    :        0.064 s           0.065 s
          | Total time for Hartree multipole sum       :        4.178 s           4.175 s
          | Total time for total energy evaluation     :        0.004 s           0.003 s
          | Total time for scaled ZORA corrections     :        0.000 s           0.000 s
          | Total time for TS (2009) vdW correction    :        0.034 s           0.034 s

          Have a nice day.
------------------------------------------------------------
