  MPI-parallelism will be employed.
------------------------------------------------------------
          Invoking FHI-aims ...
          Version 081213
          Compiled on 2013/08/29 at 17:41:06 on host generoso.

          When using FHI-aims, please cite the following reference:

          Volker Blum, Ralf Gehrke, Felix Hanke, Paula Havu,
          Ville Havu, Xinguo Ren, Karsten Reuter, and Matthias Scheffler,
          'Ab Initio Molecular Simulations with Numeric Atom-Centered Orbitals: FHI-aims',
          Computer Physics Communications 180, 2175-2196 (2009)

          For any questions about FHI-aims, please visit the aimsclub website
          with its forums and wiki. Contributions to both the forums and the
          wiki are warmly encouraged - they are for you, and everyone is welcome there.

------------------------------------------------------------

  Date     :  20150727, Time     :  115632.925
  Time zero on CPU 1             :   0.399930000000000E-01  s.
  Internal wall clock time zero  :           207230192.925  s.

  Using        8 parallel tasks.
  Task        0 on host gen60 reporting.
  Task        1 on host gen60 reporting.
  Task        2 on host gen60 reporting.
  Task        3 on host gen60 reporting.
  Task        4 on host gen60 reporting.
  Task        5 on host gen60 reporting.
  Task        6 on host gen60 reporting.
  Task        7 on host gen60 reporting.

  Performing system and environment tests:
  | Environment variable OMP_NUM_THREADS correctly set to 1.
  | Checking for scalapack...
  | No scalapack compiled in.

  Obtaining array dimensions for all initial allocations:
  
  -----------------------------------------------------------------------
  Parsing control.in (first pass over file, find array dimensions only).
  The contents of control.in will be repeated verbatim below
  unless switched off by setting 'verbatim_writeout .false.' .
  in the first line of control.in .
  -----------------------------------------------------------------------
  
  #########################################################################################
  #
  #  Volker Blum, FHI 2008 : Test run input file control.in
  #
  #########################################################################################
  #
  #  Physical model
  #
    xc                 rpbe
    spin               none
    relativistic       atomic_zora scalar
    charge             0.
   vdw_correction_hirshfeld
  #
  #  SCF convergence
  #
    occupation_type    gaussian 0.01
    mixer              pulay
      n_max_pulay        10
      charge_mix_param   0.1
    sc_accuracy_rho    5E-5
    sc_accuracy_eev    5E-3
    sc_accuracy_etot   5E-6
    sc_iter_limit      3000
  #
  #  Eigenvalue solver
  #
    KS_method          lapack
      empty_states       8
      basis_threshold    0.e-5
  #
  #  Efficiency
  #
  #   all previous settings are now default, except stratmann still
  #   undecided. Continue to handle stratmann with care, if at all.
  #
  #  partition_type stratmann
    partition_type rho_r2
  #  hartree_partition_type stratmann
  #
  #  Oprions for large clusters (100's of atoms: memory saving / better scaling)
  #
  # for periodic systems:
  #
    density_update_method orbital
    packed_matrix_format none
  #  k_grid 6 6 6
  #  output k_eigenvalue 1
  #  distributed_spline_storage .true.
  #
  #  Relaxation
  #
  #  relax_geometry   bfgs 5.e-3
    sc_accuracy_forces 5.E-4
    final_forces_cleaned .true.
  #
  #  Output options
  #
  #  output mulliken
    output Hirshfeld
  #  output dipole
  
  #harmonic_length_scale 0.001
  
  ################################################################################
  #
  #  FHI-aims code project
  #  VB, Fritz-Haber Institut, 2007
  #
  #  Suggested "safe" defaults for H atom (to be pasted into control.in file)
  #  Basis constructed for a non-relativistic H2 molecule using the
  #  PW-LDA functional.
  #
  ################################################################################
    species        H
  #     global species definitions
      nucleus             1
      cut_pot             4.0  2.0  1.0
      cut_free_atom       finite 8.0
      logarithmic         0.00010000 100.00  1.0123
      basis_dep_cutoff    1d-4  # 1d-4 is safe default - please check 5d-4 if you wish!
      radial_base         24 7.0
      radial_multiplier   2
      angular_grids       specified
        division   0.2783  110
        division   0.3822  194
        division   0.5626  302
  #      division   0.5922  434
  #      division   0.6227  590
  #      division   0.7206  770
        outer_grid  302
      l_hartree           4
  ################################################################################
  #
  #  Definition of "minimal" basis
  #
  ################################################################################
  #     valence basis states
      valence      1  s   1.
  #     ion occupancy
      ion_occ      1  s   0.5
  ################################################################################
  #
  #  Suggested additional basis functions. For production calculations,
  #  uncomment them one after another (the most important basis functions are
  #  listed first).
  #
  ################################################################################
  #  "First tier" - improvements: -1014.90 meV to -62.69 meV
       hydro 2 s 2.1
       hydro 2 p 3.5
  #  "Second tier" - improvements: -12.89 meV to -1.83 meV
       hydro 1 s 0.85
       hydro 2 p 3.7
       hydro 2 s 1.2
       hydro 3 d 7
  #  "Third tier" - improvements: -0.25 meV to -0.12 meV
  #     hydro 4 f 11.2
  #     hydro 3 p 4.8
  #     hydro 4 d 9
  #     hydro 3 s 3.2
  
  ################################################################################
  #
  #  FHI-aims code project
  #  VB, Fritz-Haber Institut, 2007
  #
  #  Suggested "safe" defaults for O atom (to be pasted into control.in file)
  #  All values have been tested for a non-relativistic, non-spinpolarized O2
  #  molecule using the PW-LDA functional. Validity for PBE is expected.
  #
  #  Constructed for dimers: 1.0 A, 1.208 A, 1.5 A, 2.0 A, 3.0 A
  #
  ################################################################################
    species        O
  #     global species definitions
      nucleus             8
      mass                15.9994
      l_hartree           4
      cut_pot             4.0  2.0  1.0
      cut_free_atom       finite 8.0
      basis_dep_cutoff    1d-4  # 1d-4 is safe default - please check 5d-4 if you wish!
      logarithmic         0.00010000 100.00  1.0123
      radial_base         36 7.0
      radial_multiplier   2
       angular_grids specified
        division   0.4087  110
        division   0.5181  194
        division   0.6184  302
  #      division   0.7315  434
  #      division   0.7934  590
  #      division   0.9656  770
  #      division   1.4041  974
  #      outer_grid 974
        outer_grid 302
  ################################################################################
  #
  #  Definition of "minimal" basis
  #
  ################################################################################
  #     valence basis states
      valence      2  s   2.
      valence      2  p   4.
  #     ion occupancy
      ion_occ      2  s   1.
      ion_occ      2  p   3.
  ################################################################################
  #
  #  Suggested additional basis functions. For production calculations,
  #  uncomment them one after another (the most important basis functions are
  #  listed first).
  #
  ################################################################################
  #  "First tier" - improvements: -699.05 meV to -159.38 meV
       hydro 2 p 1.8
       hydro 3 d 7.6
       hydro 3 s 6.4
  #  "Second tier" - improvements: -49.91 meV to -5.39 meV
       hydro 4 f 11.6
       hydro 3 p 6.2
       hydro 3 d 5.6
       hydro 5 g 17.6
       hydro 1 s 0.75
  #  "Third tier" - improvements: -2.83 meV to -0.50 meV
  #     ionic 2 p auto
  #     hydro 4 f 10.8
  #     hydro 4 d 4.7
  #     hydro 2 s 6.8
  #  "Fourth tier" - improvements: -0.40 meV to -0.12 meV
  #     hydro 3 p 5
  #     hydro 3 s 3.3
  #     hydro 5 g 15.6
  #     hydro 4 f 17.6
  #     hydro 4 d 14
  # Further basis functions - -0.08 meV and below
  #     hydro 3 s 2.1
  #     hydro 4 d 11.6
  #     hydro 3 p 16
  #     hydro 2 s 17.2
  
  
  -----------------------------------------------------------------------
  Completed first pass over input file control.in .
  -----------------------------------------------------------------------
  
  
  -----------------------------------------------------------------------
  Parsing geometry.in (first pass over file, find array dimensions only).
  The contents of geometry.in will be repeated verbatim below
  unless switched off by setting 'verbatim_writeout .false.' .
  in the first line of geometry.in .
  -----------------------------------------------------------------------
  
  atom      -4.053030000      0.065001000     -1.525160000  O
  atom      -4.566710000      0.974813000     -1.912820000  H
  atom      -3.067820000      0.330172000     -1.477310000  H
  atom      -4.581760000     -0.256435000      0.939478000  O
  atom      -4.349860000      0.471090000      1.504340000  H
  atom      -5.393870000     -0.726611000      1.228070000  H
  atom      -1.645860000      0.870179000     -1.502250000  O
  atom      -1.568890000      1.501730000     -0.721051000  H
  atom      -0.824432000      0.282220000     -1.377720000  H
  atom      -3.818880000      2.024990000      2.187990000  O
  atom      -3.690880000      1.961360000      3.202150000  H
  atom      -4.546490000      2.751300000      2.045370000  H
  atom      -1.975360000      2.858040000      0.453140000  O
  atom      -1.223550000      3.375850000      0.786238000  H
  atom      -2.537520000      2.567960000      1.156120000  H
  atom      -4.066610000      4.258280000     -0.900064000  O
  atom      -3.224110000      3.876870000     -0.569443000  H
  atom      -3.737450000      5.116530000     -1.322720000  H
  atom      -5.628340000      3.730740000      1.385610000  O
  atom      -6.090650000      4.418470000      1.860350000  H
  atom      -5.158540000      4.200260000      0.615875000  H
  
  -----------------------------------------------------------------------
  Completed first pass over input file geometry.in .
  -----------------------------------------------------------------------
  
 
  Basic array size parameters: 
  | Number of species                 :        2
  | Number of atoms                   :       21
  | Max. basis fn. angular momentum   :        4
  | Max. atomic/ionic basis occupied n:        2
  | Max. number of basis fn. types    :        2
  | Max. radial fns per species/type  :        8
  | Max. logarithmic grid size        :     1301
  | Max. radial integration grid size :       73
  | Max. angular integration grid size:      302
  | Max. angular grid division number :        8
  | Radial grid for Hartree potential :     1301
  | Number of spin channels           :        1

------------------------------------------------------------
          Reading file control.in.
------------------------------------------------------------
  XC: Using RPBE gradient-corrected functionals.
  Spin treatment: No spin polarisation.
  Scalar relativistic treatment of kinetic energy: on-site free-atom approximation to ZORA.
  Charge =   0.000000E+00: Neutral system requested explicitly.
  Using non-empirical van der Waals correction (Hirshfeld partitioning):
  Occupation type: Gaussian broadening, width =   0.100000E-01 eV.
  Using pulay charge density mixing.
  Pulay mixing - number of memorized iterations:   10
  Charge density mixing - mixing parameter:     0.1000
  Convergence accuracy of self-consistent charge density: 0.5000E-04
  Convergence accuracy of sum of eigenvalues: 0.5000E-02
  Convergence accuracy of total energy: 0.5000E-05
  Maximum number of s.-c. iterations  :  3000
  Kohn-Sham eigenvalues and eigenfunctions calculated by lapack diagonalisation (D&C).
  Number of empty states per atom:        8
  Threshold for basis singularities: 0.0000E+00
  Partition function in integrals calculations: rho / r^2
 Using packed matrix format           0
  Convergence accuracy of forces: 0.5000E-03
  Cleaning forces before final output.
  Hirshfeld charge analysis will be performed.
 
  Reading configuration options for species H                   .
  | Found nuclear charge :   1.0000
  | Found cutoff potl. onset [A], width [A], scale factor :    4.00000    2.00000    1.00000
  | Found cutoff specification for free atom: Cutoff potential begins at    8.00000 A.
  | Found logarithmic grid data [bohr] : 0.1000E-03 0.1000E+03 0.1012E+01
  | Threshold for basis-dependent cutoff potential is   0.100000E-03
  | Found data for basic radial integration grid :    24 points, outermost radius =    7.000 A
  | Found multiplier for basic radial grid :   2
  | Found angular grid specification: user-specified.
  | Specified grid contains     4 separate shells.
  | Check grid settings after all constraints further below.
  | Found l_max for Hartree potential  :   4
  | Found free-atom valence shell :  1 s   1.000
  | No ionic wave fns used. Skipping ion_occ.
  | Found hydrogenic basis function :  2 s   2.100
  | Found hydrogenic basis function :  2 p   3.500
  | Found hydrogenic basis function :  1 s   0.850
  | Found hydrogenic basis function :  2 p   3.700
  | Found hydrogenic basis function :  2 s   1.200
  | Found hydrogenic basis function :  3 d   7.000
  Species H                   : Missing cutoff potential type.
  Defaulting to exp(1/x)/(1-x)^2 type cutoff potential.
  Species H : On-site basis accuracy parameter (for Gram-Schmidt orthonormalisation) not specified.
  Using default value basis_acc =  0.1000000E-03.
  Species H                   : Using default innermost maximum threshold i_radial=  2 for radial functions.
  Species H                   : Basic radial grid will be enhanced according to radial_multiplier =   2, to contain    49 grid points.
 
  Reading configuration options for species O                   .
  | Found nuclear charge :   8.0000
  | Found atomic mass :    15.9994000000000      amu
  | Found l_max for Hartree potential  :   4
  | Found cutoff potl. onset [A], width [A], scale factor :    4.00000    2.00000    1.00000
  | Found cutoff specification for free atom: Cutoff potential begins at    8.00000 A.
  | Threshold for basis-dependent cutoff potential is   0.100000E-03
  | Found logarithmic grid data [bohr] : 0.1000E-03 0.1000E+03 0.1012E+01
  | Found data for basic radial integration grid :    36 points, outermost radius =    7.000 A
  | Found multiplier for basic radial grid :   2
  | Found angular grid specification: user-specified.
  | Specified grid contains     4 separate shells.
  | Check grid settings after all constraints further below.
  | Found free-atom valence shell :  2 s   2.000
  | Found free-atom valence shell :  2 p   4.000
  | No ionic wave fns used. Skipping ion_occ.
  | No ionic wave fns used. Skipping ion_occ.
  | Found hydrogenic basis function :  2 p   1.800
  | Found hydrogenic basis function :  3 d   7.600
  | Found hydrogenic basis function :  3 s   6.400
  | Found hydrogenic basis function :  4 f  11.600
  | Found hydrogenic basis function :  3 p   6.200
  | Found hydrogenic basis function :  3 d   5.600
  | Found hydrogenic basis function :  5 g  17.600
  | Found hydrogenic basis function :  1 s   0.750
  Species O                   : Missing cutoff potential type.
  Defaulting to exp(1/x)/(1-x)^2 type cutoff potential.
  Species O : On-site basis accuracy parameter (for Gram-Schmidt orthonormalisation) not specified.
  Using default value basis_acc =  0.1000000E-03.
  Species O                   : Using default innermost maximum threshold i_radial=  2 for radial functions.
  Species O                   : Basic radial grid will be enhanced according to radial_multiplier =   2, to contain    73 grid points.
 
  Finished reading input file 'control.in'. Consistency checks are next.
 
  Target number of points in a grid batch is not set. Defaulting to  100
  Method for grid partitioning is not set. Defaulting to parallel hash+maxmin partitioning.
  Batch size limit is not set. Defaulting to    200
  By default, will store active basis functions for each batch.
  If in need of memory, prune_basis_once .false. can be used to disable this option.
  communication_type for Hartree potential was not specified.
  Defaulting to calc_hartree .
  Pulay mixer: Number of initial linear mixing iterations not set.
  Defaulting to    0 iterations.
  Work space size for distributed Hartree potential not set.
  Defaulting to   0.200000E+03 MB.
  Algorithm-dependent basis array size parameters:
  | n_max_pulay                         :       10
  Geometry relaxation not requested: no relaxation will be performed.
  Handling of forces: Unphysical translation and rotation will be removed from forces.
  No accuracy limit for integral partition fn. given. Defaulting to 0.1000E-14.
  No threshold value for u(r) in integrations given. Defaulting to 0.1000E-05.
  No accuracy for occupation numbers given. Defaulting to 0.1000E-07.
  No threshold value for occupation numbers given. Defaulting to 0.0000E+00.
  No accuracy for fermi level given. Defaulting to 0.1000E-19.
  Maximum # of iterations to find E_F not set. Defaulting to  200.
  Will not use alltoall communication since running on < 1024 CPUs.
  Partitioning for Hartree potential was not defined. Using partition_type for integrals.
  | Reporting present value of keyword multip_moments_threshold  :       0.10000000E-09
  | This value may affect high angular momentum components of the Hartree potential in periodic systems.
  No q(lm)/r^(l+1) cutoff set for long-range Hartree potential.
  | Using default value of  0.100000E-09 .
  | Verify using the multipole_threshold keyword.
  Defaulting to new monopole extrapolation.
  Density update method: Loop over occupied states selected for charge density update.
------------------------------------------------------------


------------------------------------------------------------
          Reading geometry description geometry.in.
------------------------------------------------------------
  Input structure read successfully.
  The structure contains       21 atoms,  and a total of         70.000 electrons.

  Input geometry:
  | No unit cell requested.
  | Atomic structure:
  |       Atom                x [A]            y [A]            z [A]
  |    1: Species O             -4.053030         0.065001        -1.525160
  |    2: Species H             -4.566710         0.974813        -1.912820
  |    3: Species H             -3.067820         0.330172        -1.477310
  |    4: Species O             -4.581760        -0.256435         0.939478
  |    5: Species H             -4.349860         0.471090         1.504340
  |    6: Species H             -5.393870        -0.726611         1.228070
  |    7: Species O             -1.645860         0.870179        -1.502250
  |    8: Species H             -1.568890         1.501730        -0.721051
  |    9: Species H             -0.824432         0.282220        -1.377720
  |   10: Species O             -3.818880         2.024990         2.187990
  |   11: Species H             -3.690880         1.961360         3.202150
  |   12: Species H             -4.546490         2.751300         2.045370
  |   13: Species O             -1.975360         2.858040         0.453140
  |   14: Species H             -1.223550         3.375850         0.786238
  |   15: Species H             -2.537520         2.567960         1.156120
  |   16: Species O             -4.066610         4.258280        -0.900064
  |   17: Species H             -3.224110         3.876870        -0.569443
  |   18: Species H             -3.737450         5.116530        -1.322720
  |   19: Species O             -5.628340         3.730740         1.385610
  |   20: Species H             -6.090650         4.418470         1.860350
  |   21: Species H             -5.158540         4.200260         0.615875
  |

  | The smallest distance between any two atoms is         0.94570141 AA.
  |
  | The first atom of this pair is atom number                     13 .
  | The second atom of this pair is atom number                    15 .

  Structure-dependent array size parameters: 
  | Maximum number of distinct radial functions  :       18
  | Maximum number of basis functions            :      483
  | Number of Kohn-Sham states (occupied + empty):      119
------------------------------------------------------------

------------------------------------------------------------
          Preparing all fixed parts of the calculation.
------------------------------------------------------------
  Determining machine precision:
    2.225073858507201E-308
  Setting up grids for atomic and cluster calculations.

  Creating wave function, potential, and density for free atoms.

  Species: H

  List of occupied orbitals and eigenvalues:
    n    l              occ      energy [Ha]    energy [eV]
    1    0           1.0000        -0.241408        -6.5691


  Species: O

  List of occupied orbitals and eigenvalues:
    n    l              occ      energy [Ha]    energy [eV]
    1    0           2.0000       -18.944147      -515.4965
    2    0           2.0000        -0.883529       -24.0421
    2    1           4.0000        -0.330176        -8.9845

  Creating fixed part of basis set: Ionic, confined, hydrogenic.
 
  H                    hydrogenic:
 
  List of hydrogenic basis orbitals: 
    n    l      effective z      eigenvalue [eV]  inner max. [A]     outer max. [A]     outer radius [A]   
    2    0         2.100000       -14.9965           0.193241           1.317192           5.372934
    2    1         3.500000       -41.6672           0.602363           0.602363           4.056010
    1    0         0.850000        -9.8292           0.624864           0.624864           5.372934
    2    1         3.700000       -46.5653           0.573616           0.573616           3.909951
    2    0         1.200000        -4.5995           0.334977           2.228160           5.505921
    3    2         7.000000       -74.0753           0.680692           0.680692           3.769152
 
 
  O                    hydrogenic:
 
  List of hydrogenic basis orbitals: 
    n    l      effective z      eigenvalue [eV]  inner max. [A]     outer max. [A]     outer radius [A]   
    2    1         1.800000       -11.0118           1.178546           1.178546           5.432516
    3    2         7.600000       -87.3182           0.624117           0.624117           3.541422
    3    0         6.400000       -61.9209           0.061166           1.081887           4.306510
    4    3        11.600000      -114.4238           0.731621           0.731621           3.584982
    3    1         6.200000       -58.1113           0.255677           1.030255           4.306510
    3    2         5.600000       -47.4081           0.847222           0.847222           4.413102
    5    4        17.600000      -168.5799           0.749730           0.749730           3.372413
    1    0         0.750000        -7.6499           0.705275           0.705275           5.366508
 

  Adding cutoff potential to free-atom effective potential.
  Creating atomic-like basis functions for current effective potential.

  Species H                   :

  List of atomic basis orbitals and eigenvalues:
    n    l      energy [Ha]    energy [eV]    outer radius [A]
    1    0        -0.241374        -6.5681       5.372934


  Species O                   :

  List of atomic basis orbitals and eigenvalues:
    n    l      energy [Ha]    energy [eV]    outer radius [A]
    1    0       -18.944147      -515.4965       1.415745
    2    0        -0.883529       -24.0421       5.048305
    2    1        -0.330173        -8.9845       5.301302

  Assembling full basis from fixed parts.
  | Species H :   atomic orbital   1 s accepted.
  | Species H :    hydro orbital   2 s accepted.
  | Species H :    hydro orbital   1 s accepted.
  | Species H :    hydro orbital   2 s accepted.
  | Species H :    hydro orbital   2 p accepted.
  | Species H :    hydro orbital   2 p accepted.
  | Species H :    hydro orbital   3 d accepted.
  | Species O :   atomic orbital   1 s accepted.
  | Species O :    hydro orbital   3 s accepted.
  | Species O :   atomic orbital   2 s accepted.
  | Species O :    hydro orbital   1 s accepted.
  | Species O :    hydro orbital   3 p accepted.
  | Species O :   atomic orbital   2 p accepted.
  | Species O :    hydro orbital   2 p accepted.
  | Species O :    hydro orbital   3 d accepted.
  | Species O :    hydro orbital   3 d accepted.
  | Species O :    hydro orbital   4 f accepted.
  | Species O :    hydro orbital   5 g accepted.
 
  Basis size parameters after reduction:
  | Total number of radial functions:       18
  | Total number of basis functions :      483
 
  Testing on-site integration grid accuracy.
  |  Species  Function  <phi|h_atom|phi> (log., in eV)  <phi|h_atom|phi> (rad., in eV)
           1        1                 -6.5683835025                 -6.5684759159
           1        2                 13.3711789951                 13.3708738703
           1        3                 23.6590910787                 23.6532055418
           1        4                 16.2963827186                 16.1870710655 ***
           1        5                 28.7627214838                 28.7627215090
           1        6                 59.5965249172                 59.5965950857
           1        7                 60.2220506392                 60.2220503827
           2        8               -515.4964576505               -515.4964530710
           2        9                 15.3030791347                 15.3030722972
           2       10                -21.7296094581                -21.7296135470
           2       11                 14.2969371730                 14.2969701621
           2       12                 21.0679693190                 21.0679697493
           2       13                 -2.3833606469                 -2.3833613176
           2       14                 13.7067136422                 13.7066766629
           2       15                 45.8013116808                 45.8013116965
           2       16                 52.2309815402                 52.2309831494
           2       17                 85.4120732416                 85.4120732763
           2       18                142.1019167745                142.1019167817
 * Note: Onsite integrals marked "***" above are less accurate than
 * onsite_accuracy_threshold =    0.03000 eV. Usually, this is harmless.
 * When in doubt, tighten the "radial" and/or "radial_multiplier" flags to check.

  Preparing densities etc. for the partition functions (integrals / Hartree potential).

  Preparations completed.
  max(cpu_time)          :      0.172 s.
  Wall clock time (cpu1) :      0.556 s.
------------------------------------------------------------

------------------------------------------------------------
          Begin self-consistency loop: Initialization.

          Date     :  20150727, Time     :  115633.508
------------------------------------------------------------

  Initializing index lists of integration centers etc. from given atomic structure:
  | Number of centers in hartree potential         :        21
  | Number of centers in hartree multipole         :        21
  | Number of centers in electron density summation:        21
  | Number of centers in basis integrals           :        21
  | Number of centers in integrals                 :        21
  Partitioning the integration grid into batches with parallel hashing+maxmin method.
  | Number of batches:     2714
  | Maximal batch size:     190
  | Minimal batch size:      54
  | Average batch size:     101.472
  | Standard deviation of batch sizes:      33.601

  Integration load balanced across     8 MPI tasks.
  Work distribution over tasks is as follows:
  Task     0 has      34456 integration points.
  Task     1 has      34368 integration points.
  Task     2 has      34458 integration points.
  Task     3 has      34483 integration points.
  Task     4 has      34372 integration points.
  Task     5 has      34386 integration points.
  Task     6 has      34436 integration points.
  Task     7 has      34435 integration points.
  Initializing partition tables, free-atom densities, potentials, etc. across the integration grid (initialize_grid_storage).
  | Net number of integration points:   275394
  | of which are non-zero points    :   274811
  Obtaining max. number of non-zero basis functions in each batch (get_n_compute_maxes).
  | Maximal number of non-zero basis functions:      478 in task     0
  | Maximal number of non-zero basis functions:      477 in task     1
  | Maximal number of non-zero basis functions:      478 in task     2
  | Maximal number of non-zero basis functions:      478 in task     3
  | Maximal number of non-zero basis functions:      477 in task     4
  | Maximal number of non-zero basis functions:      478 in task     5
  | Maximal number of non-zero basis functions:      478 in task     6
  | Maximal number of non-zero basis functions:      477 in task     7
  Integrating Hamiltonian matrix: batch-based integration.
  Time summed over all CPUs for integration: real work       15.960 s, elapsed       16.095 s
  Integrating overlap matrix.
  Time summed over all CPUs for integration: real work        8.794 s, elapsed        8.885 s

  Updating Kohn-Sham eigenvalues, eigenvectors, occupation numbers, and Fermi level.
  Solving generalized eigenproblem
  Updating Kohn-Sham eigenvalues and eigenfunctions.
  Transforming overlap matrix and checking for singularities.
  Overlap matrix is nonsingular:
  | Lowest eigenvalue:  0.256441E-03
  Solving real generalised eigenvalue problem by standard LAPACK (fast)
  Determining occupation numbers for Kohn-Sham eigenstates.
  | Chemical potential (Fermi level) in eV                 : -.37486732E+01
  | Error in electron count due to remaining E_F inaccuracy: 0.00000000E+00
  | Maximum occupation number of highest empty state:  0.00E+00

  Writing Kohn-Sham eigenvalues.

  State    Occupation    Eigenvalue [Ha]    Eigenvalue [eV]
      1       2.00000         -19.059591         -518.63787
      2       2.00000         -19.052100         -518.43402
      3       2.00000         -19.050657         -518.39475
      4       2.00000         -19.042640         -518.17660
      5       2.00000         -19.042531         -518.17364
      6       2.00000         -19.036188         -518.00104
      7       2.00000         -19.019708         -517.55258
      8       2.00000          -1.113918          -30.31124
      9       2.00000          -1.101473          -29.97260
     10       2.00000          -1.099268          -29.91261
     11       2.00000          -1.086785          -29.57293
     12       2.00000          -1.085822          -29.54672
     13       2.00000          -1.068101          -29.06450
     14       2.00000          -1.042047          -28.35555
     15       2.00000          -0.657068          -17.87973
     16       2.00000          -0.648594          -17.64915
     17       2.00000          -0.632433          -17.20938
     18       2.00000          -0.610448          -16.61113
     19       2.00000          -0.607630          -16.53446
     20       2.00000          -0.606090          -16.49256
     21       2.00000          -0.590621          -16.07161
     22       2.00000          -0.530746          -14.44233
     23       2.00000          -0.521478          -14.19014
     24       2.00000          -0.513503          -13.97312
     25       2.00000          -0.507669          -13.81437
     26       2.00000          -0.503128          -13.69080
     27       2.00000          -0.487917          -13.27689
     28       2.00000          -0.470598          -12.80562
     29       2.00000          -0.448555          -12.20580
     30       2.00000          -0.441730          -12.02008
     31       2.00000          -0.439416          -11.95713
     32       2.00000          -0.433070          -11.78444
     33       2.00000          -0.430791          -11.72242
     34       2.00000          -0.430172          -11.70558
     35       2.00000          -0.402458          -10.95144
     36       0.00000          -0.099895           -2.71828
     37       0.00000          -0.072010           -1.95948
     38       0.00000          -0.063423           -1.72582
     39       0.00000          -0.062219           -1.69307
     40       0.00000          -0.042817           -1.16510
     41       0.00000          -0.039107           -1.06415
     42       0.00000          -0.027379           -0.74501
     43       0.00000           0.022542            0.61341
     44       0.00000           0.030386            0.82683
     45       0.00000           0.034494            0.93863
     46       0.00000           0.041071            1.11761
     47       0.00000           0.048449            1.31836
     48       0.00000           0.056301            1.53204
     49       0.00000           0.058710            1.59757
     50       0.00000           0.067926            1.84835
     51       0.00000           0.075964            2.06708
     52       0.00000           0.088983            2.42135
     53       0.00000           0.091141            2.48006
     54       0.00000           0.097928            2.66476
     55       0.00000           0.100326            2.73001
     56       0.00000           0.106376            2.89465
     57       0.00000           0.115189            3.13446
     58       0.00000           0.117826            3.20621
     59       0.00000           0.122569            3.33527
     60       0.00000           0.128962            3.50924
     61       0.00000           0.131853            3.58789
     62       0.00000           0.139875            3.80621
     63       0.00000           0.140421            3.82104
     64       0.00000           0.153099            4.16603
     65       0.00000           0.156580            4.26076
     66       0.00000           0.162679            4.42672
     67       0.00000           0.168010            4.57179
     68       0.00000           0.186054            5.06280
     69       0.00000           0.196465            5.34609
     70       0.00000           0.205748            5.59869
     71       0.00000           0.216581            5.89347
     72       0.00000           0.239859            6.52690
     73       0.00000           0.251436            6.84193
     74       0.00000           0.253838            6.90728
     75       0.00000           0.269084            7.32215
     76       0.00000           0.276044            7.51154
     77       0.00000           0.281216            7.65227
     78       0.00000           0.292811            7.96779
     79       0.00000           0.299533            8.15071
     80       0.00000           0.321182            8.73982
     81       0.00000           0.327178            8.90295
     82       0.00000           0.328043            8.92652
     83       0.00000           0.341962            9.30525
     84       0.00000           0.348145            9.47350
     85       0.00000           0.353220            9.61161
     86       0.00000           0.361462            9.83589
     87       0.00000           0.378205           10.29149
     88       0.00000           0.383854           10.44520
     89       0.00000           0.393921           10.71913
     90       0.00000           0.401945           10.93747
     91       0.00000           0.404968           11.01975
     92       0.00000           0.407997           11.10215
     93       0.00000           0.423259           11.51746
     94       0.00000           0.443422           12.06613
     95       0.00000           0.449079           12.22007
     96       0.00000           0.462333           12.58073
     97       0.00000           0.471646           12.83415
     98       0.00000           0.473778           12.89217
     99       0.00000           0.490873           13.35735
    100       0.00000           0.496170           13.50149
    101       0.00000           0.509224           13.85670
    102       0.00000           0.533640           14.52109
    103       0.00000           0.548847           14.93489
    104       0.00000           0.551693           15.01233
    105       0.00000           0.571522           15.55191
    106       0.00000           0.574387           15.62986
    107       0.00000           0.596411           16.22916
    108       0.00000           0.608628           16.56160
    109       0.00000           0.645438           17.56327
    110       0.00000           0.654440           17.80822
    111       0.00000           0.667425           18.16155
    112       0.00000           0.695439           18.92385
    113       0.00000           0.710286           19.32788
    114       0.00000           0.714056           19.43046
    115       0.00000           0.737846           20.07781
    116       0.00000           0.752437           20.47485
    117       0.00000           0.767335           20.88026
    118       0.00000           0.777228           21.14946
    119       0.00000           0.779541           21.21238

  Highest occupied state (VBM) at    -10.95144143 eV
  | Occupation number:      2.00000000

  Lowest unoccupied state (CBM) at    -2.71827743 eV
  | Occupation number:      0.00000000

  Overall HOMO-LUMO gap:      8.23316400 eV.
  Calculating total energy contributions from superposition of free atom densities.

  Total energy components:
  | Sum of eigenvalues            :        -303.62988786 Ha       -8262.18962419 eV
  | XC energy correction          :         -63.82995138 Ha       -1736.90134957 eV
  | XC potential correction       :          81.57447702 Ha        2219.75445955 eV
  | Free-atom electrostatic energy:        -250.42076815 Ha       -6814.29580884 eV
  | Hartree energy correction     :           0.00000000 Ha           0.00000000 eV
  | van der Waals energy corr.    :           0.00000000 Ha           0.00000000 eV
  | Entropy correction            :           0.00000000 Ha           0.00000000 eV
  | ---------------------------
  | Total energy                  :        -536.30613036 Ha      -14593.63232305 eV
  | Total energy, T -> 0          :        -536.30613036 Ha      -14593.63232305 eV  <-- do not rely on this value for anything but (periodic) metals
  | Electronic free energy        :        -536.30613036 Ha      -14593.63232305 eV

  Derived energy quantities:
  | Kinetic energy                :         530.89730115 Ha       14446.45059150 eV
  | Electrostatic energy          :       -1003.37348013 Ha      -27303.18156498 eV
  | Energy correction for multipole
  | error in Hartree potential    :           0.00000000 Ha           0.00000000 eV
  | Sum of eigenvalues per atom                           :        -393.43760115 eV
  | Total energy (T->0) per atom                          :        -694.93487253 eV  <-- do not rely on this value for anything but (periodic) metals
  | Electronic free energy per atom                       :        -694.93487253 eV
  Initialize hartree_potential_storage
  Max. number of atoms included in rho_multipole:           21

  End scf initialization - timings             :  max(cpu_time)    wall_clock(cpu1)
  | Time for scf. initialization               :        4.185 s           4.185 s
  | Boundary condition initialization          :        0.000 s           0.000 s
  | Integration                                :        3.130 s           3.130 s
  | Solution of K.-S. eqns.                    :        0.460 s           0.460 s
  | Grid partitioning                          :        0.203 s           0.203 s
  | Preloading free-atom quantities on grid    :        0.014 s           0.014 s
  | Free-atom superposition energy             :        0.118 s           0.117 s
  | Total energy evaluation                    :        0.000 s           0.001 s
------------------------------------------------------------

------------------------------------------------------------
          Begin self-consistency iteration #    1

  Date     :  20150727, Time     :  115637.694
------------------------------------------------------------
  Evaluating new KS density.
  Integration grid: deviation in total charge (<rho> - N_e) =   1.421085E-14
  Pulay mixing of updated and previous charge densities.

  Evaluating partitioned Hartree potential by multipole expansion.
  | Analytical far-field extrapolation by fixed multipoles:
  | Hartree multipole sum: apparent total charge =  -0.251797E-05
  Summing up the Hartree potential.
  Time summed over all CPUs for potential: real work        4.986 s, elapsed        5.007 s
  | RMS charge density error from multipole expansion :   0.193753E-02

  Integrating Hamiltonian matrix: batch-based integration.
  Time summed over all CPUs for integration: real work       15.922 s, elapsed       16.038 s

  Updating Kohn-Sham eigenvalues, eigenvectors, occupation numbers, and Fermi level.
  Solving generalized eigenproblem
  Updating Kohn-Sham eigenvalues and eigenfunctions.
  Solving real generalised eigenvalue problem by standard LAPACK (fast)
  Determining occupation numbers for Kohn-Sham eigenstates.
  | Chemical potential (Fermi level) in eV                 : -.32890174E+01
  | Error in electron count due to remaining E_F inaccuracy: 0.00000000E+00
  | Maximum occupation number of highest empty state:  0.00E+00

  Writing Kohn-Sham eigenvalues.

  State    Occupation    Eigenvalue [Ha]    Eigenvalue [eV]
      1       2.00000         -18.987657         -516.68044
      2       2.00000         -18.980217         -516.47797
      3       2.00000         -18.970662         -516.21796
      4       2.00000         -18.970392         -516.21064
      5       2.00000         -18.968649         -516.16321
      6       2.00000         -18.958265         -515.88064
      7       2.00000         -18.926785         -515.02402
      8       2.00000          -1.079391          -29.37172
      9       2.00000          -1.066504          -29.02105
     10       2.00000          -1.051447          -28.61132
     11       2.00000          -1.049351          -28.55431
     12       2.00000          -1.048657          -28.53540
     13       2.00000          -1.032977          -28.10875
     14       2.00000          -0.989026          -26.91277
     15       2.00000          -0.627195          -17.06685
     16       2.00000          -0.604094          -16.43822
     17       2.00000          -0.603048          -16.40978
     18       2.00000          -0.579735          -15.77538
     19       2.00000          -0.577379          -15.71127
     20       2.00000          -0.575743          -15.66676
     21       2.00000          -0.548058          -14.91341
     22       2.00000          -0.497298          -13.53217
     23       2.00000          -0.482908          -13.14060
     24       2.00000          -0.476737          -12.97267
     25       2.00000          -0.470082          -12.79159
     26       2.00000          -0.460415          -12.52852
     27       2.00000          -0.446686          -12.15495
     28       2.00000          -0.423023          -11.51103
     29       2.00000          -0.412001          -11.21113
     30       2.00000          -0.404889          -11.01760
     31       2.00000          -0.397283          -10.81063
     32       2.00000          -0.394236          -10.72769
     33       2.00000          -0.388590          -10.57407
     34       2.00000          -0.384262          -10.45629
     35       2.00000          -0.346613           -9.43183
     36       0.00000          -0.089303           -2.43006
     37       0.00000          -0.060569           -1.64817
     38       0.00000          -0.055121           -1.49991
     39       0.00000          -0.050215           -1.36641
     40       0.00000          -0.035548           -0.96730
     41       0.00000          -0.026700           -0.72653
     42       0.00000          -0.021144           -0.57537
     43       0.00000           0.034257            0.93218
     44       0.00000           0.039598            1.07751
     45       0.00000           0.043339            1.17933
     46       0.00000           0.050474            1.37346
     47       0.00000           0.060114            1.63578
     48       0.00000           0.065939            1.79429
     49       0.00000           0.069270            1.88493
     50       0.00000           0.078116            2.12564
     51       0.00000           0.089142            2.42568
     52       0.00000           0.096422            2.62378
     53       0.00000           0.100746            2.74145
     54       0.00000           0.108671            2.95708
     55       0.00000           0.111645            3.03802
     56       0.00000           0.118714            3.23037
     57       0.00000           0.126336            3.43779
     58       0.00000           0.128299            3.49120
     59       0.00000           0.135725            3.69325
     60       0.00000           0.139921            3.80745
     61       0.00000           0.141920            3.86184
     62       0.00000           0.155062            4.21946
     63       0.00000           0.161085            4.38335
     64       0.00000           0.166532            4.53156
     65       0.00000           0.168318            4.58015
     66       0.00000           0.173189            4.71271
     67       0.00000           0.188177            5.12056
     68       0.00000           0.199060            5.41670
     69       0.00000           0.208773            5.68101
     70       0.00000           0.221302            6.02193
     71       0.00000           0.228546            6.21906
     72       0.00000           0.253354            6.89412
     73       0.00000           0.259799            7.06950
     74       0.00000           0.264560            7.19905
     75       0.00000           0.279914            7.61683
     76       0.00000           0.289343            7.87344
     77       0.00000           0.293538            7.98757
     78       0.00000           0.303178            8.24991
     79       0.00000           0.307960            8.38002
     80       0.00000           0.330849            9.00287
     81       0.00000           0.336002            9.14308
     82       0.00000           0.340796            9.27353
     83       0.00000           0.354297            9.64090
     84       0.00000           0.356937            9.71276
     85       0.00000           0.362437            9.86242
     86       0.00000           0.373805           10.17175
     87       0.00000           0.387611           10.54744
     88       0.00000           0.394727           10.74106
     89       0.00000           0.405333           11.02967
     90       0.00000           0.412110           11.21407
     91       0.00000           0.414700           11.28457
     92       0.00000           0.421286           11.46378
     93       0.00000           0.433859           11.80591
     94       0.00000           0.454789           12.37544
     95       0.00000           0.460047           12.51850
     96       0.00000           0.475809           12.94741
     97       0.00000           0.484333           13.17938
     98       0.00000           0.485790           13.21902
     99       0.00000           0.503120           13.69060
    100       0.00000           0.508090           13.82583
    101       0.00000           0.520070           14.15183
    102       0.00000           0.548373           14.92200
    103       0.00000           0.562942           15.31844
    104       0.00000           0.565221           15.38045
    105       0.00000           0.586336           15.95501
    106       0.00000           0.591539           16.09661
    107       0.00000           0.609367           16.58173
    108       0.00000           0.622213           16.93128
    109       0.00000           0.659287           17.94011
    110       0.00000           0.667780           18.17122
    111       0.00000           0.681994           18.55801
    112       0.00000           0.708469           19.27841
    113       0.00000           0.725987           19.75510
    114       0.00000           0.728222           19.81594
    115       0.00000           0.754173           20.52209
    116       0.00000           0.767171           20.87579
    117       0.00000           0.780551           21.23988
    118       0.00000           0.788845           21.46555
    119       0.00000           0.793764           21.59943

  Highest occupied state (VBM) at     -9.43182957 eV
  | Occupation number:      2.00000000

  Lowest unoccupied state (CBM) at    -2.43005741 eV
  | Occupation number:      0.00000000

  Overall HOMO-LUMO gap:      7.00177216 eV.

  Total energy components:
  | Sum of eigenvalues            :        -300.36050976 Ha       -8173.22531982 eV
  | XC energy correction          :         -64.16058456 Ha       -1745.89833633 eV
  | XC potential correction       :          82.00632129 Ha        2231.50554015 eV
  | Free-atom electrostatic energy:        -250.42076815 Ha       -6814.29580884 eV
  | Hartree energy correction     :          -3.17518906 Ha         -86.40129030 eV
  | van der Waals energy corr.    :           0.00000000 Ha           0.00000000 eV
  | Entropy correction            :           0.00000000 Ha           0.00000000 eV
  | ---------------------------
  | Total energy                  :        -536.11073024 Ha      -14588.31521514 eV
  | Total energy, T -> 0          :        -536.11073024 Ha      -14588.31521514 eV  <-- do not rely on this value for anything but (periodic) metals
  | Electronic free energy        :        -536.11073024 Ha      -14588.31521514 eV

  Derived energy quantities:
  | Kinetic energy                :         532.86430230 Ha       14499.97541618 eV
  | Electrostatic energy          :       -1004.81444797 Ha      -27342.39229500 eV
  | Energy correction for multipole
  | error in Hartree potential    :           0.00018506 Ha           0.00503580 eV
  | Sum of eigenvalues per atom                           :        -389.20120571 eV
  | Total energy (T->0) per atom                          :        -694.68167691 eV  <-- do not rely on this value for anything but (periodic) metals
  | Electronic free energy per atom                       :        -694.68167691 eV

  Self-consistency convergence accuracy:
  | Change of charge density      : 0.7741E+00
  | Change of sum of eigenvalues  : 0.8896E+02 eV
  | Change of total energy        : 0.5317E+01 eV

  End self-consistency iteration #     1       :  max(cpu_time)    wall_clock(cpu1)
  | Time for this iteration                    :        4.111 s           4.111 s
  | Charge density update                      :        1.342 s           1.342 s
  | Density mixing                             :        0.005 s           0.005 s
  | Hartree multipole update                   :        0.007 s           0.007 s
  | Hartree multipole summation                :        0.627 s           0.626 s
  | Integration                                :        2.008 s           2.008 s
  | Solution of K.-S. eqns.                    :        0.122 s           0.121 s
  | Total energy evaluation                    :        0.001 s           0.000 s
------------------------------------------------------------

------------------------------------------------------------
          Begin self-consistency iteration #    2

  Date     :  20150727, Time     :  115641.805
------------------------------------------------------------
  Evaluating new KS density.
  Integration grid: deviation in total charge (<rho> - N_e) =   1.421085E-14
  Pulay mixing of updated and previous charge densities.

  Evaluating partitioned Hartree potential by multipole expansion.
  | Analytical far-field extrapolation by fixed multipoles:
  | Hartree multipole sum: apparent total charge =  -0.715347E-05
  Summing up the Hartree potential.
  Time summed over all CPUs for potential: real work        4.986 s, elapsed        5.002 s
  | RMS charge density error from multipole expansion :   0.778535E-02

  Integrating Hamiltonian matrix: batch-based integration.
  Time summed over all CPUs for integration: real work       15.913 s, elapsed       16.029 s

  Updating Kohn-Sham eigenvalues, eigenvectors, occupation numbers, and Fermi level.
  Solving generalized eigenproblem
  Updating Kohn-Sham eigenvalues and eigenfunctions.
  Solving real generalised eigenvalue problem by standard LAPACK (fast)
  Determining occupation numbers for Kohn-Sham eigenstates.
  | Chemical potential (Fermi level) in eV                 : -.36096578E+01
  | Error in electron count due to remaining E_F inaccuracy: 0.00000000E+00
  | Maximum occupation number of highest empty state:  0.00E+00

  Highest occupied state (VBM) at     -5.76375815 eV
  | Occupation number:      2.00000000

  Lowest unoccupied state (CBM) at    -1.87774541 eV
  | Occupation number:      0.00000000

  Overall HOMO-LUMO gap:      3.88601275 eV.

  Total energy components:
  | Sum of eigenvalues            :        -292.54573900 Ha       -7960.57458773 eV
  | XC energy correction          :         -64.98393167 Ha       -1768.30275094 eV
  | XC potential correction       :          83.08042222 Ha        2260.73331338 eV
  | Free-atom electrostatic energy:        -250.42076815 Ha       -6814.29580884 eV
  | Hartree energy correction     :         -11.01441847 Ha        -299.71757597 eV
  | van der Waals energy corr.    :           0.00000000 Ha           0.00000000 eV
  | Entropy correction            :           0.00000000 Ha           0.00000000 eV
  | ---------------------------
  | Total energy                  :        -535.88443506 Ha      -14582.15741010 eV
  | Total energy, T -> 0          :        -535.88443506 Ha      -14582.15741010 eV  <-- do not rely on this value for anything but (periodic) metals
  | Electronic free energy        :        -535.88443506 Ha      -14582.15741010 eV

  Derived energy quantities:
  | Kinetic energy                :         536.85673421 Ha       14608.61501587 eV
  | Electrostatic energy          :       -1007.75723760 Ha      -27422.46967503 eV
  | Energy correction for multipole
  | error in Hartree potential    :          -0.00054694 Ha          -0.01488298 eV
  | Sum of eigenvalues per atom                           :        -379.07498037 eV
  | Total energy (T->0) per atom                          :        -694.38844810 eV  <-- do not rely on this value for anything but (periodic) metals
  | Electronic free energy per atom                       :        -694.38844810 eV

  Self-consistency convergence accuracy:
  | Change of charge density      : 0.5863E+00
  | Change of sum of eigenvalues  : 0.2127E+03 eV
  | Change of total energy        : 0.6158E+01 eV

  End self-consistency iteration #     2       :  max(cpu_time)    wall_clock(cpu1)
  | Time for this iteration                    :        4.107 s           4.108 s
  | Charge density update                      :        1.339 s           1.339 s
  | Density mixing                             :        0.007 s           0.007 s
  | Hartree multipole update                   :        0.006 s           0.007 s
  | Hartree multipole summation                :        0.626 s           0.626 s
  | Integration                                :        2.008 s           2.007 s
  | Solution of K.-S. eqns.                    :        0.121 s           0.121 s
  | Total energy evaluation                    :        0.000 s           0.001 s
------------------------------------------------------------

------------------------------------------------------------
          Begin self-consistency iteration #    3

  Date     :  20150727, Time     :  115645.913
------------------------------------------------------------
  Evaluating new KS density.
  Integration grid: deviation in total charge (<rho> - N_e) =   0.000000E+00
  Pulay mixing of updated and previous charge densities.

  Evaluating partitioned Hartree potential by multipole expansion.
  | Analytical far-field extrapolation by fixed multipoles:
  | Hartree multipole sum: apparent total charge =  -0.647422E-05
  Summing up the Hartree potential.
  Time summed over all CPUs for potential: real work        4.985 s, elapsed        5.002 s
  | RMS charge density error from multipole expansion :   0.158035E-01

  Integrating Hamiltonian matrix: batch-based integration.
  Time summed over all CPUs for integration: real work       15.906 s, elapsed       16.023 s

  Updating Kohn-Sham eigenvalues, eigenvectors, occupation numbers, and Fermi level.
  Solving generalized eigenproblem
  Updating Kohn-Sham eigenvalues and eigenfunctions.
  Solving real generalised eigenvalue problem by standard LAPACK (fast)
  Determining occupation numbers for Kohn-Sham eigenstates.
  | Chemical potential (Fermi level) in eV                 : -.35786375E+01
  | Error in electron count due to remaining E_F inaccuracy: 0.00000000E+00
  | Maximum occupation number of highest empty state:  0.00E+00

  Highest occupied state (VBM) at     -5.52858665 eV
  | Occupation number:      2.00000000

  Lowest unoccupied state (CBM) at    -1.79000763 eV
  | Occupation number:      0.00000000

  Overall HOMO-LUMO gap:      3.73857902 eV.

  Total energy components:
  | Sum of eigenvalues            :        -292.66421240 Ha       -7963.79841288 eV
  | XC energy correction          :         -64.97013341 Ha       -1767.92728115 eV
  | XC potential correction       :          83.05384302 Ha        2260.01005649 eV
  | Free-atom electrostatic energy:        -250.42076815 Ha       -6814.29580884 eV
  | Hartree energy correction     :         -10.87644218 Ha        -295.96305004 eV
  | van der Waals energy corr.    :           0.00000000 Ha           0.00000000 eV
  | Entropy correction            :           0.00000000 Ha           0.00000000 eV
  | ---------------------------
  | Total energy                  :        -535.87771311 Ha      -14581.97449641 eV
  | Total energy, T -> 0          :        -535.87771311 Ha      -14581.97449641 eV  <-- do not rely on this value for anything but (periodic) metals
  | Electronic free energy        :        -535.87771311 Ha      -14581.97449641 eV

  Derived energy quantities:
  | Kinetic energy                :         534.10656539 Ha       14533.77911477 eV
  | Electrostatic energy          :       -1005.01414509 Ha      -27347.82633003 eV
  | Energy correction for multipole
  | error in Hartree potential    :          -0.00718578 Ha          -0.19553511 eV
  | Sum of eigenvalues per atom                           :        -379.22849585 eV
  | Total energy (T->0) per atom                          :        -694.37973792 eV  <-- do not rely on this value for anything but (periodic) metals
  | Electronic free energy per atom                       :        -694.37973792 eV

  Self-consistency convergence accuracy:
  | Change of charge density      : 0.2916E+00
  | Change of sum of eigenvalues  : -.3224E+01 eV
  | Change of total energy        : 0.1829E+00 eV

  End self-consistency iteration #     3       :  max(cpu_time)    wall_clock(cpu1)
  | Time for this iteration                    :        4.103 s           4.103 s
  | Charge density update                      :        1.334 s           1.333 s
  | Density mixing                             :        0.010 s           0.010 s
  | Hartree multipole update                   :        0.007 s           0.007 s
  | Hartree multipole summation                :        0.626 s           0.626 s
  | Integration                                :        2.006 s           2.006 s
  | Solution of K.-S. eqns.                    :        0.121 s           0.120 s
  | Total energy evaluation                    :        0.000 s           0.000 s
------------------------------------------------------------

------------------------------------------------------------
          Begin self-consistency iteration #    4

  Date     :  20150727, Time     :  115650.016
------------------------------------------------------------
  Evaluating new KS density.
  Integration grid: deviation in total charge (<rho> - N_e) =   4.263256E-14
  Pulay mixing of updated and previous charge densities.

  Evaluating partitioned Hartree potential by multipole expansion.
  | Analytical far-field extrapolation by fixed multipoles:
  | Hartree multipole sum: apparent total charge =  -0.753368E-05
  Summing up the Hartree potential.
  Time summed over all CPUs for potential: real work        4.984 s, elapsed        5.001 s
  | RMS charge density error from multipole expansion :   0.200642E-01

  Integrating Hamiltonian matrix: batch-based integration.
  Time summed over all CPUs for integration: real work       15.911 s, elapsed       16.033 s

  Updating Kohn-Sham eigenvalues, eigenvectors, occupation numbers, and Fermi level.
  Solving generalized eigenproblem
  Updating Kohn-Sham eigenvalues and eigenfunctions.
  Solving real generalised eigenvalue problem by standard LAPACK (fast)
  Determining occupation numbers for Kohn-Sham eigenstates.
  | Chemical potential (Fermi level) in eV                 : -.31447465E+01
  | Error in electron count due to remaining E_F inaccuracy: 0.00000000E+00
  | Maximum occupation number of highest empty state:  0.00E+00

  Highest occupied state (VBM) at     -4.35452207 eV
  | Occupation number:      2.00000000

  Lowest unoccupied state (CBM) at    -1.63368939 eV
  | Occupation number:      0.00000000

  Overall HOMO-LUMO gap:      2.72083268 eV.

  Total energy components:
  | Sum of eigenvalues            :        -290.48876448 Ha       -7904.60146319 eV
  | XC energy correction          :         -65.22366915 Ha       -1774.82633971 eV
  | XC potential correction       :          83.38257947 Ha        2268.95543057 eV
  | Free-atom electrostatic energy:        -250.42076815 Ha       -6814.29580884 eV
  | Hartree energy correction     :         -13.11339597 Ha        -356.83365991 eV
  | van der Waals energy corr.    :           0.00000000 Ha           0.00000000 eV
  | Entropy correction            :           0.00000000 Ha           0.00000000 eV
  | ---------------------------
  | Total energy                  :        -535.86401828 Ha      -14581.60184108 eV
  | Total energy, T -> 0          :        -535.86401828 Ha      -14581.60184108 eV  <-- do not rely on this value for anything but (periodic) metals
  | Electronic free energy        :        -535.86401828 Ha      -14581.60184108 eV

  Derived energy quantities:
  | Kinetic energy                :         534.32185009 Ha       14539.63730967 eV
  | Electrostatic energy          :       -1004.96219922 Ha      -27346.41281105 eV
  | Energy correction for multipole
  | error in Hartree potential    :          -0.00970197 Ha          -0.26400410 eV
  | Sum of eigenvalues per atom                           :        -376.40959349 eV
  | Total energy (T->0) per atom                          :        -694.36199243 eV  <-- do not rely on this value for anything but (periodic) metals
  | Electronic free energy per atom                       :        -694.36199243 eV

  Self-consistency convergence accuracy:
  | Change of charge density      : 0.1519E+00
  | Change of sum of eigenvalues  : 0.5920E+02 eV
  | Change of total energy        : 0.3727E+00 eV

  End self-consistency iteration #     4       :  max(cpu_time)    wall_clock(cpu1)
  | Time for this iteration                    :        4.105 s           4.105 s
  | Charge density update                      :        1.333 s           1.332 s
  | Density mixing                             :        0.012 s           0.012 s
  | Hartree multipole update                   :        0.006 s           0.007 s
  | Hartree multipole summation                :        0.626 s           0.626 s
  | Integration                                :        2.008 s           2.007 s
  | Solution of K.-S. eqns.                    :        0.120 s           0.121 s
  | Total energy evaluation                    :        0.000 s           0.000 s
------------------------------------------------------------

------------------------------------------------------------
          Begin self-consistency iteration #    5

  Date     :  20150727, Time     :  115654.121
------------------------------------------------------------
  Evaluating new KS density.
  Integration grid: deviation in total charge (<rho> - N_e) =   2.842171E-14
  Pulay mixing of updated and previous charge densities.

  Evaluating partitioned Hartree potential by multipole expansion.
  | Analytical far-field extrapolation by fixed multipoles:
  | Hartree multipole sum: apparent total charge =  -0.754056E-05
  Summing up the Hartree potential.
  Time summed over all CPUs for potential: real work        4.984 s, elapsed        5.001 s
  | RMS charge density error from multipole expansion :   0.208530E-01

  Integrating Hamiltonian matrix: batch-based integration.
  Time summed over all CPUs for integration: real work       15.915 s, elapsed       16.036 s

  Updating Kohn-Sham eigenvalues, eigenvectors, occupation numbers, and Fermi level.
  Solving generalized eigenproblem
  Updating Kohn-Sham eigenvalues and eigenfunctions.
  Solving real generalised eigenvalue problem by standard LAPACK (fast)
  Determining occupation numbers for Kohn-Sham eigenstates.
  | Chemical potential (Fermi level) in eV                 : -.30922384E+01
  | Error in electron count due to remaining E_F inaccuracy: 0.00000000E+00
  | Maximum occupation number of highest empty state:  0.00E+00

  Highest occupied state (VBM) at     -4.07660388 eV
  | Occupation number:      2.00000000

  Lowest unoccupied state (CBM) at    -1.62297092 eV
  | Occupation number:      0.00000000

  Overall HOMO-LUMO gap:      2.45363295 eV.

  Total energy components:
  | Sum of eigenvalues            :        -290.28749205 Ha       -7899.12456170 eV
  | XC energy correction          :         -65.25335488 Ha       -1775.63412943 eV
  | XC potential correction       :          83.42056670 Ha        2269.98911569 eV
  | Free-atom electrostatic energy:        -250.42076815 Ha       -6814.29580884 eV
  | Hartree energy correction     :         -13.32265527 Ha        -362.52789523 eV
  | van der Waals energy corr.    :           0.00000000 Ha           0.00000000 eV
  | Entropy correction            :           0.00000000 Ha           0.00000000 eV
  | ---------------------------
  | Total energy                  :        -535.86370365 Ha      -14581.59327951 eV
  | Total energy, T -> 0          :        -535.86370365 Ha      -14581.59327951 eV  <-- do not rely on this value for anything but (periodic) metals
  | Electronic free energy        :        -535.86370365 Ha      -14581.59327951 eV

  Derived energy quantities:
  | Kinetic energy                :         534.36902164 Ha       14540.92091266 eV
  | Electrostatic energy          :       -1004.97937041 Ha      -27346.88006274 eV
  | Energy correction for multipole
  | error in Hartree potential    :          -0.01031769 Ha          -0.28075852 eV
  | Sum of eigenvalues per atom                           :        -376.14878865 eV
  | Total energy (T->0) per atom                          :        -694.36158474 eV  <-- do not rely on this value for anything but (periodic) metals
  | Electronic free energy per atom                       :        -694.36158474 eV

  Self-consistency convergence accuracy:
  | Change of charge density      : 0.3741E-01
  | Change of sum of eigenvalues  : 0.5477E+01 eV
  | Change of total energy        : 0.8562E-02 eV

  End self-consistency iteration #     5       :  max(cpu_time)    wall_clock(cpu1)
  | Time for this iteration                    :        4.107 s           4.108 s
  | Charge density update                      :        1.332 s           1.332 s
  | Density mixing                             :        0.014 s           0.014 s
  | Hartree multipole update                   :        0.007 s           0.007 s
  | Hartree multipole summation                :        0.626 s           0.626 s
  | Integration                                :        2.008 s           2.008 s
  | Solution of K.-S. eqns.                    :        0.121 s           0.120 s
  | Total energy evaluation                    :        0.000 s           0.001 s
------------------------------------------------------------

------------------------------------------------------------
          Begin self-consistency iteration #    6

  Date     :  20150727, Time     :  115658.229
------------------------------------------------------------
  Evaluating new KS density.
  Integration grid: deviation in total charge (<rho> - N_e) =   2.842171E-14
  Pulay mixing of updated and previous charge densities.

  Evaluating partitioned Hartree potential by multipole expansion.
  | Analytical far-field extrapolation by fixed multipoles:
  | Hartree multipole sum: apparent total charge =  -0.752771E-05
  Summing up the Hartree potential.
  Time summed over all CPUs for potential: real work        4.984 s, elapsed        5.001 s
  | RMS charge density error from multipole expansion :   0.211131E-01

  Integrating Hamiltonian matrix: batch-based integration.
  Time summed over all CPUs for integration: real work       15.988 s, elapsed       16.157 s

  Updating Kohn-Sham eigenvalues, eigenvectors, occupation numbers, and Fermi level.
  Solving generalized eigenproblem
  Updating Kohn-Sham eigenvalues and eigenfunctions.
  Solving real generalised eigenvalue problem by standard LAPACK (fast)
  Determining occupation numbers for Kohn-Sham eigenstates.
  | Chemical potential (Fermi level) in eV                 : -.31048876E+01
  | Error in electron count due to remaining E_F inaccuracy: 0.00000000E+00
  | Maximum occupation number of highest empty state:  0.00E+00

  Highest occupied state (VBM) at     -4.05178393 eV
  | Occupation number:      2.00000000

  Lowest unoccupied state (CBM) at    -1.61713291 eV
  | Occupation number:      0.00000000

  Overall HOMO-LUMO gap:      2.43465102 eV.

  Total energy components:
  | Sum of eigenvalues            :        -290.23743236 Ha       -7897.76236828 eV
  | XC energy correction          :         -65.26088684 Ha       -1775.83908465 eV
  | XC potential correction       :          83.43012765 Ha        2270.24928235 eV
  | Free-atom electrostatic energy:        -250.42076815 Ha       -6814.29580884 eV
  | Hartree energy correction     :         -13.37480784 Ha        -363.94703866 eV
  | van der Waals energy corr.    :           0.00000000 Ha           0.00000000 eV
  | Entropy correction            :           0.00000000 Ha           0.00000000 eV
  | ---------------------------
  | Total energy                  :        -535.86376754 Ha      -14581.59501808 eV
  | Total energy, T -> 0          :        -535.86376754 Ha      -14581.59501808 eV  <-- do not rely on this value for anything but (periodic) metals
  | Electronic free energy        :        -535.86376754 Ha      -14581.59501808 eV

  Derived energy quantities:
  | Kinetic energy                :         534.36782503 Ha       14540.88835143 eV
  | Electrostatic energy          :       -1004.97070573 Ha      -27346.64428486 eV
  | Energy correction for multipole
  | error in Hartree potential    :          -0.01051978 Ha          -0.28625782 eV
  | Sum of eigenvalues per atom                           :        -376.08392230 eV
  | Total energy (T->0) per atom                          :        -694.36166753 eV  <-- do not rely on this value for anything but (periodic) metals
  | Electronic free energy per atom                       :        -694.36166753 eV

  Self-consistency convergence accuracy:
  | Change of charge density      : 0.1153E-01
  | Change of sum of eigenvalues  : 0.1362E+01 eV
  | Change of total energy        : -.1739E-02 eV

  End self-consistency iteration #     6       :  max(cpu_time)    wall_clock(cpu1)
  | Time for this iteration                    :        4.125 s           4.125 s
  | Charge density update                      :        1.333 s           1.332 s
  | Density mixing                             :        0.015 s           0.015 s
  | Hartree multipole update                   :        0.007 s           0.006 s
  | Hartree multipole summation                :        0.626 s           0.626 s
  | Integration                                :        2.023 s           2.023 s
  | Solution of K.-S. eqns.                    :        0.121 s           0.121 s
  | Total energy evaluation                    :        0.001 s           0.001 s
------------------------------------------------------------

------------------------------------------------------------
          Begin self-consistency iteration #    7

  Date     :  20150727, Time     :  115702.354
------------------------------------------------------------
  Evaluating new KS density.
  Integration grid: deviation in total charge (<rho> - N_e) =   2.842171E-14
  Pulay mixing of updated and previous charge densities.

  Evaluating partitioned Hartree potential by multipole expansion.
  | Analytical far-field extrapolation by fixed multipoles:
  | Hartree multipole sum: apparent total charge =  -0.729628E-05
  Summing up the Hartree potential.
  Time summed over all CPUs for potential: real work        4.984 s, elapsed        5.000 s
  | RMS charge density error from multipole expansion :   0.211640E-01

  Integrating Hamiltonian matrix: batch-based integration.
  Time summed over all CPUs for integration: real work       15.912 s, elapsed       16.029 s

  Updating Kohn-Sham eigenvalues, eigenvectors, occupation numbers, and Fermi level.
  Solving generalized eigenproblem
  Updating Kohn-Sham eigenvalues and eigenfunctions.
  Solving real generalised eigenvalue problem by standard LAPACK (fast)
  Determining occupation numbers for Kohn-Sham eigenstates.
  | Chemical potential (Fermi level) in eV                 : -.30521887E+01
  | Error in electron count due to remaining E_F inaccuracy: 0.00000000E+00
  | Maximum occupation number of highest empty state:  0.00E+00

  Highest occupied state (VBM) at     -4.18738451 eV
  | Occupation number:      2.00000000

  Lowest unoccupied state (CBM) at    -1.63156344 eV
  | Occupation number:      0.00000000

  Overall HOMO-LUMO gap:      2.55582107 eV.

  Total energy components:
  | Sum of eigenvalues            :        -290.41136659 Ha       -7902.49535937 eV
  | XC energy correction          :         -65.24513577 Ha       -1775.41047630 eV
  | XC potential correction       :          83.40894301 Ha        2269.67281887 eV
  | Free-atom electrostatic energy:        -250.42076815 Ha       -6814.29580884 eV
  | Hartree energy correction     :         -13.19534235 Ha        -359.06353428 eV
  | van der Waals energy corr.    :           0.00000000 Ha           0.00000000 eV
  | Entropy correction            :           0.00000000 Ha           0.00000000 eV
  | ---------------------------
  | Total energy                  :        -535.86366985 Ha      -14581.59235993 eV
  | Total energy, T -> 0          :        -535.86366985 Ha      -14581.59235993 eV  <-- do not rely on this value for anything but (periodic) metals
  | Electronic free energy        :        -535.86366985 Ha      -14581.59235993 eV

  Derived energy quantities:
  | Kinetic energy                :         534.43354928 Ha       14542.67679916 eV
  | Electrostatic energy          :       -1005.05208336 Ha      -27348.85868278 eV
  | Energy correction for multipole
  | error in Hartree potential    :          -0.01067646 Ha          -0.29052132 eV
  | Sum of eigenvalues per atom                           :        -376.30930283 eV
  | Total energy (T->0) per atom                          :        -694.36154095 eV  <-- do not rely on this value for anything but (periodic) metals
  | Electronic free energy per atom                       :        -694.36154095 eV

  Self-consistency convergence accuracy:
  | Change of charge density      : 0.1084E-01
  | Change of sum of eigenvalues  : -.4733E+01 eV
  | Change of total energy        : 0.2658E-02 eV

  End self-consistency iteration #     7       :  max(cpu_time)    wall_clock(cpu1)
  | Time for this iteration                    :        4.114 s           4.114 s
  | Charge density update                      :        1.336 s           1.336 s
  | Density mixing                             :        0.018 s           0.018 s
  | Hartree multipole update                   :        0.007 s           0.006 s
  | Hartree multipole summation                :        0.626 s           0.626 s
  | Integration                                :        2.007 s           2.007 s
  | Solution of K.-S. eqns.                    :        0.120 s           0.121 s
  | Total energy evaluation                    :        0.000 s           0.000 s
------------------------------------------------------------

------------------------------------------------------------
          Begin self-consistency iteration #    8

  Date     :  20150727, Time     :  115706.468
------------------------------------------------------------
  Evaluating new KS density.
  Integration grid: deviation in total charge (<rho> - N_e) =   1.421085E-14
  Pulay mixing of updated and previous charge densities.

  Evaluating partitioned Hartree potential by multipole expansion.
  | Analytical far-field extrapolation by fixed multipoles:
  | Hartree multipole sum: apparent total charge =  -0.728997E-05
  Summing up the Hartree potential.
  Time summed over all CPUs for potential: real work        4.984 s, elapsed        5.001 s
  | RMS charge density error from multipole expansion :   0.212091E-01

  Integrating Hamiltonian matrix: batch-based integration.
  Time summed over all CPUs for integration: real work       15.914 s, elapsed       16.016 s

  Updating Kohn-Sham eigenvalues, eigenvectors, occupation numbers, and Fermi level.
  Solving generalized eigenproblem
  Updating Kohn-Sham eigenvalues and eigenfunctions.
  Solving real generalised eigenvalue problem by standard LAPACK (fast)
  Determining occupation numbers for Kohn-Sham eigenstates.
  | Chemical potential (Fermi level) in eV                 : -.31154750E+01
  | Error in electron count due to remaining E_F inaccuracy: 0.00000000E+00
  | Maximum occupation number of highest empty state:  0.00E+00

  Highest occupied state (VBM) at     -4.17265622 eV
  | Occupation number:      2.00000000

  Lowest unoccupied state (CBM) at    -1.63080228 eV
  | Occupation number:      0.00000000

  Overall HOMO-LUMO gap:      2.54185395 eV.

  Total energy components:
  | Sum of eigenvalues            :        -290.40102965 Ha       -7902.21407709 eV
  | XC energy correction          :         -65.24619562 Ha       -1775.43931619 eV
  | XC potential correction       :          83.41027326 Ha        2269.70901705 eV
  | Free-atom electrostatic energy:        -250.42076815 Ha       -6814.29580884 eV
  | Hartree energy correction     :         -13.20594945 Ha        -359.35216805 eV
  | van der Waals energy corr.    :           0.00000000 Ha           0.00000000 eV
[...]
  Timings for vdw_correction_hirshfeld (Tkatchenko-Scheffler 2009):
  | CPU time:       11.112 s, Wall clock time:       11.113 s.
  Removing unitary transformations (pure translations, rotations) from forces on atoms.
  Atomic forces before filtering:
  | Net force on center of mass :  0.850630E-02 0.362098E-02 0.160176E-02 eV/A
  | Net torque on center of mass:  -.261626E-02 0.984412E-02 -.122213E-01 eV
  Atomic forces after filtering:
  | Net force on center of mass :  -.133805E-14 -.267609E-15 -.802828E-15 eV/A
  | Net torque on center of mass:  0.245462E-14 0.169935E-14 -.509806E-14 eV
 
  Energy and forces in a compact form:
  | Total energy uncorrected      :         -0.145817357466031E+05 eV
  | Total energy corrected        :         -0.145817357466031E+05 eV  <-- do not rely on this value for anything but (periodic) metals
  | Electronic free energy        :         -0.145817357466031E+05 eV
  Total atomic forces (unitary forces cleaned) [eV/Ang]:
  |   1         -0.154961914798386E+01          0.350778422884911E+01         -0.223976091816381E+01
  |   2          0.221845978851826E+01         -0.351429729265597E+01          0.147370423058963E+01
  |   3         -0.161302157396624E+01         -0.255007937016562E+00         -0.265537361765660E+00
  |   4         -0.664823058926377E+00         -0.201211660094865E+01         -0.474706074266096E+00
  |   5         -0.310989499828707E+00          0.742609923271589E+00          0.100166574147857E+01
  |   6          0.634081851550509E+00          0.729198194549432E+00          0.192133282828936E+00
  |   7          0.301043208115483E+01         -0.138120822140537E+00          0.110454609604194E+01
  |   8         -0.291147437573272E+00         -0.488299759755122E+00         -0.784742233659977E+00
  |   9         -0.162498370796838E+01          0.950376636980900E+00         -0.354553402529949E+00
  |  10         -0.221789364352908E+00          0.886671220199265E+00          0.253498183427808E+01
  |  11         -0.274704933932809E+00          0.178253299454963E+00         -0.220440430976949E+01
  |  12          0.655739946448827E+00         -0.887095150994517E+00          0.127880483723475E+00
  |  13          0.172167578656610E+01          0.946537292913229E+00         -0.216531858011857E+01
  |  14         -0.331238810903236E+00         -0.218206298969089E+00          0.249395590269734E+00
  |  15         -0.110958455324216E+01         -0.647327319729480E+00          0.193602053205796E+01
  |  16          0.702614045191842E+00          0.182502793796223E+01         -0.691014026672716E+00
  |  17         -0.244716605389508E-01         -0.353032302641506E+00          0.957154769685460E-01
  |  18         -0.785189276045837E+00         -0.140760307327884E+01          0.629805278183743E+00
  |  19          0.713031684312190E+00          0.364674872444779E+00         -0.120144678462152E+01
  |  20         -0.360352458998851E+00          0.492482827426346E+00          0.416652939032521E+00
  |  21         -0.494119699480958E+00         -0.702509875921571E+00          0.618982206114648E+00
 
  ------------------------------------ 
  Start decomposition of the XC Energy 
  ------------------------------------ 
  Hartree-Fock part   :          0.000000000 Ha              0.000000000 eV
  ------------------------------------ 
  X Energy            :        -62.944867582 Ha          -1712.816994068 eV
  C Energy GGA        :         -2.301165538 Ha            -62.617900251 eV
  Total XC Energy     :        -65.246033120 Ha          -1775.434894320 eV
  LDA X and C from self-consistent density 
  X Energy LDA        :        -56.754158211 Ha          -1544.359221067 eV
  C Energy LDA        :         -4.623950652 Ha           -125.824099094 eV
  ------------------------------------ 
  End decomposition of the XC Energy 
  ------------------------------------ 
  Performing Hirshfeld analysis of fragment charges and moments.
  ----------------------------------------------------------------------
  | Atom     1: O
  |   Hirshfeld charge        :     -0.33693806
  |   Free atom volume        :     23.95238533
  |   Hirshfeld volume        :     23.68488797
  |   Hirshfeld dipole vector :      0.03243304       0.05058498       0.03047068
  |   Hirshfeld dipole moment :      0.06737362
  |   Hirshfeld second moments:      0.00811402      -0.02936334       0.01785353
  |                                 -0.02936334      -0.03258614      -0.03659043
  |                                  0.01785353      -0.03659043      -0.07352046
  ----------------------------------------------------------------------
  | Atom     2: H
  |   Hirshfeld charge        :      0.10491526
  |   Free atom volume        :     10.44207651
  |   Hirshfeld volume        :      7.79061452
  |   Hirshfeld dipole vector :     -0.05738812       0.08698808      -0.02707955
  |   Hirshfeld dipole moment :      0.10767370
  |   Hirshfeld second moments:      0.10073080       0.00345733       0.00740045
  |                                  0.00345733       0.06043603      -0.00775627
  |                                  0.00740045      -0.00775627       0.07104244
  ----------------------------------------------------------------------
  | Atom     3: H
  |   Hirshfeld charge        :      0.05801442
  |   Free atom volume        :     10.44207651
  |   Hirshfeld volume        :      8.64463398
  |   Hirshfeld dipole vector :      0.04329295       0.00792719       0.01757384
  |   Hirshfeld dipole moment :      0.04739156
  |   Hirshfeld second moments:      0.02200543      -0.02819277      -0.00119432
  |                                 -0.02819277       0.07199667      -0.00596744
  |                                 -0.00119432      -0.00596744       0.05416002
  ----------------------------------------------------------------------
  | Atom     4: O
  |   Hirshfeld charge        :     -0.31156201
  |   Free atom volume        :     23.95238533
  |   Hirshfeld volume        :     22.44467546
  |   Hirshfeld dipole vector :     -0.03131522       0.02583432       0.01309408
  |   Hirshfeld dipole moment :      0.04265572
  |   Hirshfeld second moments:      0.01643829       0.05515579      -0.01259728
  |                                  0.05515579       0.00934734       0.01839101
  |                                 -0.01259728       0.01839101      -0.01335515
  ----------------------------------------------------------------------
  | Atom     5: H
  |   Hirshfeld charge        :      0.07152326
  |   Free atom volume        :     10.44207651
  |   Hirshfeld volume        :      8.07904628
  |   Hirshfeld dipole vector :      0.01370179       0.04386248       0.02979057
  |   Hirshfeld dipole moment :      0.05476435
  |   Hirshfeld second moments:      0.08382226       0.00138367      -0.01308900
  |                                  0.00138367       0.03554309      -0.01861823
  |                                 -0.01308900      -0.01861823       0.06931260
  ----------------------------------------------------------------------
  | Atom     6: H
  |   Hirshfeld charge        :      0.12304074
  |   Free atom volume        :     10.44207651
  |   Hirshfeld volume        :      6.94259529
  |   Hirshfeld dipole vector :     -0.10261058      -0.05968635       0.01959609
  |   Hirshfeld dipole moment :      0.12031375
  |   Hirshfeld second moments:      0.09156855       0.01390919      -0.00056660
  |                                  0.01390919       0.10587028       0.01252672
  |                                 -0.00056660       0.01252672       0.09556798
  ----------------------------------------------------------------------
  | Atom     7: O
  |   Hirshfeld charge        :     -0.21184133
  |   Free atom volume        :     23.95238533
  |   Hirshfeld volume        :     21.05449070
  |   Hirshfeld dipole vector :     -0.02162933      -0.02759701       0.03396933
  |   Hirshfeld dipole moment :      0.04881945
  |   Hirshfeld second moments:      0.06528347      -0.02649128       0.00678477
  |                                 -0.02649128       0.06177925       0.02971885
  |                                  0.00678477       0.02971885       0.02604908
  ----------------------------------------------------------------------
  | Atom     8: H
  |   Hirshfeld charge        :      0.10895080
  |   Free atom volume        :     10.44207651
  |   Hirshfeld volume        :      7.41210824
  |   Hirshfeld dipole vector :      0.00907463       0.02327801       0.04748306
  |   Hirshfeld dipole moment :      0.05365497
  |   Hirshfeld second moments:      0.10928353      -0.00130910       0.00877355
  |                                 -0.00130910       0.07470965      -0.02611196
  |                                  0.00877355      -0.02611196       0.06162646
  ----------------------------------------------------------------------
  | Atom     9: H
  |   Hirshfeld charge        :      0.15759419
  |   Free atom volume        :     10.44207651
  |   Hirshfeld volume        :      6.09726779
  |   Hirshfeld dipole vector :      0.08923870      -0.07753548       0.01361893
  |   Hirshfeld dipole moment :      0.11899904
  |   Hirshfeld second moments:      0.11932774       0.00135010       0.00074295
  |                                  0.00135010       0.12109964       0.01428443
  |                                  0.00074295       0.01428443       0.12118681
  ----------------------------------------------------------------------
  | Atom    10: O
  |   Hirshfeld charge        :     -0.19436367
  |   Free atom volume        :     23.95238533
  |   Hirshfeld volume        :     20.31242269
  |   Hirshfeld dipole vector :     -0.00757483      -0.00856222      -0.01402617
  |   Hirshfeld dipole moment :      0.01809484
  |   Hirshfeld second moments:      0.06047056      -0.01198835       0.00513546
  |                                 -0.01198835       0.05693666      -0.00715742
  |                                  0.00513546      -0.00715742       0.09978116
  ----------------------------------------------------------------------
  | Atom    11: H
  |   Hirshfeld charge        :      0.16264288
  |   Free atom volume        :     10.44207651
  |   Hirshfeld volume        :      5.85010644
  |   Hirshfeld dipole vector :      0.01588822      -0.01548358       0.11457352
  |   Hirshfeld dipole moment :      0.11670163
  |   Hirshfeld second moments:      0.13078600      -0.00737852      -0.00061372
  |                                 -0.00737852       0.12467059      -0.00000188
  |                                 -0.00061372      -0.00000188       0.12213047
  ----------------------------------------------------------------------
  | Atom    12: H
  |   Hirshfeld charge        :      0.10461795
  |   Free atom volume        :     10.44207651
  |   Hirshfeld volume        :      7.40492699
  |   Hirshfeld dipole vector :     -0.02454968       0.02021564       0.00361953
  |   Hirshfeld dipole moment :      0.03200719
  |   Hirshfeld second moments:      0.06473494       0.02511227      -0.01871152
  |                                  0.02511227       0.06606706       0.01311842
  |                                 -0.01871152       0.01311842       0.10843321
  ----------------------------------------------------------------------
  | Atom    13: O
  |   Hirshfeld charge        :     -0.20547325
  |   Free atom volume        :     23.95238533
  |   Hirshfeld volume        :     19.95379535
  |   Hirshfeld dipole vector :     -0.00669220      -0.00592649       0.00571011
  |   Hirshfeld dipole moment :      0.01060727
  |   Hirshfeld second moments:      0.09634272       0.02507866       0.00491097
  |                                  0.02507866       0.07514083       0.00366264
  |                                  0.00491097       0.00366264       0.07455778
  ----------------------------------------------------------------------
  | Atom    14: H
  |   Hirshfeld charge        :      0.16869859
  |   Free atom volume        :     10.44207651
  |   Hirshfeld volume        :      5.64283095
  |   Hirshfeld dipole vector :      0.09563438       0.06372324       0.03283033
  |   Hirshfeld dipole moment :      0.11951743
  |   Hirshfeld second moments:      0.13017964       0.00309738      -0.00561091
  |                                  0.00309738       0.12746884      -0.00404728
  |                                 -0.00561091      -0.00404728       0.13670491
  ----------------------------------------------------------------------
  | Atom    15: H
  |   Hirshfeld charge        :      0.11026259
  |   Free atom volume        :     10.44207651
  |   Hirshfeld volume        :      7.26044014
  |   Hirshfeld dipole vector :     -0.02041616      -0.01708080       0.02688626
  |   Hirshfeld dipole moment :      0.03783443
  |   Hirshfeld second moments:      0.08104741      -0.00647819       0.03528254
  |                                 -0.00647819       0.09699906       0.01487432
  |                                  0.03528254       0.01487432       0.07815906
  ----------------------------------------------------------------------
  | Atom    16: O
  |   Hirshfeld charge        :     -0.24165900
  |   Free atom volume        :     23.95238533
  |   Hirshfeld volume        :     20.88473156
  |   Hirshfeld dipole vector :      0.02037145       0.00473705       0.01831740
  |   Hirshfeld dipole moment :      0.02780221
  |   Hirshfeld second moments:      0.04908305      -0.00821551      -0.01078318
  |                                 -0.00821551       0.06840817      -0.03985907
  |                                 -0.01078318      -0.03985907       0.02873246
  ----------------------------------------------------------------------
  | Atom    17: H
  |   Hirshfeld charge        :      0.11157081
  |   Free atom volume        :     10.44207651
  |   Hirshfeld volume        :      7.27476147
  |   Hirshfeld dipole vector :      0.05205544      -0.01948214       0.00890212
  |   Hirshfeld dipole moment :      0.05629006
  |   Hirshfeld second moments:      0.07394208       0.02707323      -0.02517263
  |                                  0.02707323       0.09811035       0.00307000
  |                                 -0.02517263       0.00307000       0.08427762
  ----------------------------------------------------------------------
  | Atom    18: H
  |   Hirshfeld charge        :      0.15614345
  |   Free atom volume        :     10.44207651
  |   Hirshfeld volume        :      5.89072207
  |   Hirshfeld dipole vector :      0.03619946       0.10208395      -0.05293557
  |   Hirshfeld dipole moment :      0.12055584
  |   Hirshfeld second moments:      0.13289040      -0.00870857       0.00168217
  |                                 -0.00870857       0.11888166      -0.00653658
  |                                  0.00168217      -0.00653658       0.11771548
  ----------------------------------------------------------------------
  | Atom    19: O
  |   Hirshfeld charge        :     -0.21714364
  |   Free atom volume        :     23.95238533
  |   Hirshfeld volume        :     20.55970062
  |   Hirshfeld dipole vector :      0.02004377       0.01431223       0.00683755
  |   Hirshfeld dipole moment :      0.02556060
  |   Hirshfeld second moments:      0.04827694      -0.02915640      -0.03184867
  |                                 -0.02915640       0.06507630      -0.00277808
  |                                 -0.03184867      -0.00277808       0.07439309
  ----------------------------------------------------------------------
  | Atom    20: H
  |   Hirshfeld charge        :      0.15919093
  |   Free atom volume        :     10.44207651
  |   Hirshfeld volume        :      5.76945206
  |   Hirshfeld dipole vector :     -0.06150535       0.08375329       0.06375437
  |   Hirshfeld dipole moment :      0.12191038
  |   Hirshfeld second moments:      0.12307572      -0.00196898      -0.00775639
  |                                 -0.00196898       0.12610100      -0.01112428
  |                                 -0.00775639      -0.01112428       0.13266362
  ----------------------------------------------------------------------
  | Atom    21: H
  |   Hirshfeld charge        :      0.12174957
  |   Free atom volume        :     10.44207651
  |   Hirshfeld volume        :      7.29284670
  |   Hirshfeld dipole vector :      0.01487751       0.03671595      -0.03292330
  |   Hirshfeld dipole moment :      0.05151063
  |   Hirshfeld second moments:      0.08157210      -0.02006051       0.02209151
  |                                 -0.02006051       0.10990032       0.01255738
  |                                  0.02209151       0.01255738       0.06256640
  ----------------------------------------------------------------------


------------------------------------------------------------------------------
  Final output of selected total energy values:

  The following output summarizes some interesting total energy values
  at the end of a run (AFTER all relaxation, molecular dynamics, etc.).

  | Total energy of the DFT / Hartree-Fock s.c.f. calculation      :         -14581.735746603 eV
  | Final zero-broadening corrected energy (caution - metals only) :         -14581.735746603 eV
  | For reference only, the value of 1 Hartree used in FHI-aims is :             27.211384500 eV

  Before relying on these values, please be sure to understand exactly which
  total energy value is referred to by a given number. Different objects may
  all carry the same name 'total energy'. Definitions:

  Total energy of the DFT / Hartree-Fock s.c.f. calculation:
  | Note that this energy does not include ANY quantities calculated after the
  | s.c.f. cycle, in particular not ANY RPA, MP2, etc. many-body perturbation terms.

  Final zero-broadening corrected energy:
  | For metallic systems only, a broadening of the occupation numbers at the Fermi
  | level can be extrapolated back to zero broadening by an electron-gas inspired
  | formula. For all systems that are not real metals, this value can be
  | meaningless and should be avoided.

------------------------------------------------------------------------------

------------------------------------------------------------
          Leaving FHI-aims.
          Date     :  20150727, Time     :  115747.707

          Computational steps:
          | Number of self-consistency cycles          :           15

          Detailed time accounting                     :  max(cpu_time)    wall_clock(cpu1)
          | Total time                                 :       74.751 s          74.782 s
          | Preparation time                           :        0.172 s           0.556 s
          | Grid partitioning                          :        0.203 s           0.203 s
          | Preloading free-atom quantities on grid    :        0.014 s           0.014 s
          | Free-atom superposition energy             :        0.118 s           0.117 s
          | Total time for integrations                :       33.246 s          33.248 s
          | Total time for solution of K.-S. equations :        2.273 s           2.270 s
          | Total time for density & force components  :       25.978 s          25.975 s
          | Total time for mixing                      :        0.269 s           0.271 s
          | Total time for Hartree multipole update    :        0.100 s           0.101 s
          | Total time for Hartree multipole sum       :       11.483 s          11.483 s
          | Total time for total energy evaluation     :        0.004 s           0.006 s
          | Total time for scaled ZORA corrections     :        0.000 s           0.000 s
          | Total time for TS (2009) vdW correction    :        0.096 s           0.097 s

          Have a nice day.
------------------------------------------------------------
