  MPI-parallelism will be employed.
------------------------------------------------------------
          Invoking FHI-aims ...
          Version 081213
          Compiled on 2013/08/29 at 17:41:06 on host generoso.

          When using FHI-aims, please cite the following reference:

          Volker Blum, Ralf Gehrke, Felix Hanke, Paula Havu,
          Ville Havu, Xinguo Ren, Karsten Reuter, and Matthias Scheffler,
          'Ab Initio Molecular Simulations with Numeric Atom-Centered Orbitals: FHI-aims',
          Computer Physics Communications 180, 2175-2196 (2009)

          For any questions about FHI-aims, please visit the aimsclub website
          with its forums and wiki. Contributions to both the forums and the
          wiki are warmly encouraged - they are for you, and everyone is welcome there.

------------------------------------------------------------

  Date     :  20150727, Time     :  113538.736
  Time zero on CPU 1             :   0.389930000000000E-01  s.
  Internal wall clock time zero  :           207228938.736  s.

  Using        8 parallel tasks.
  Task        0 on host gen60 reporting.
  Task        1 on host gen60 reporting.
  Task        2 on host gen60 reporting.
  Task        3 on host gen60 reporting.
  Task        4 on host gen60 reporting.
  Task        5 on host gen60 reporting.
  Task        6 on host gen60 reporting.
  Task        7 on host gen60 reporting.

  Performing system and environment tests:
  | Environment variable OMP_NUM_THREADS correctly set to 1.
  | Checking for scalapack...
  | No scalapack compiled in.

  Obtaining array dimensions for all initial allocations:
  
  -----------------------------------------------------------------------
  Parsing control.in (first pass over file, find array dimensions only).
  The contents of control.in will be repeated verbatim below
  unless switched off by setting 'verbatim_writeout .false.' .
  in the first line of control.in .
  -----------------------------------------------------------------------
  
  #########################################################################################
  #
  #  Volker Blum, FHI 2008 : Test run input file control.in
  #
  #########################################################################################
  #
  #  Physical model
  #
    xc                 rpbe
    spin               none
    relativistic       atomic_zora scalar
    charge             0.
   vdw_correction_hirshfeld
  #
  #  SCF convergence
  #
    occupation_type    gaussian 0.01
    mixer              pulay
      n_max_pulay        10
      charge_mix_param   0.1
    sc_accuracy_rho    5E-5
    sc_accuracy_eev    5E-3
    sc_accuracy_etot   5E-6
    sc_iter_limit      3000
  #
  #  Eigenvalue solver
  #
    KS_method          lapack
      empty_states       8
      basis_threshold    0.e-5
  #
  #  Efficiency
  #
  #   all previous settings are now default, except stratmann still
  #   undecided. Continue to handle stratmann with care, if at all.
  #
  #  partition_type stratmann
    partition_type rho_r2
  #  hartree_partition_type stratmann
  #
  #  Oprions for large clusters (100's of atoms: memory saving / better scaling)
  #
  # for periodic systems:
  #
    density_update_method orbital
    packed_matrix_format none
  #  k_grid 6 6 6
  #  output k_eigenvalue 1
  #  distributed_spline_storage .true.
  #
  #  Relaxation
  #
  #  relax_geometry   bfgs 5.e-3
    sc_accuracy_forces 5.E-4
    final_forces_cleaned .true.
  #
  #  Output options
  #
  #  output mulliken
    output Hirshfeld
  #  output dipole
  
  #harmonic_length_scale 0.001
  
  ################################################################################
  #
  #  FHI-aims code project
  #  VB, Fritz-Haber Institut, 2007
  #
  #  Suggested "safe" defaults for H atom (to be pasted into control.in file)
  #  Basis constructed for a non-relativistic H2 molecule using the
  #  PW-LDA functional.
  #
  ################################################################################
    species        H
  #     global species definitions
      nucleus             1
      cut_pot             4.0  2.0  1.0
      cut_free_atom       finite 8.0
      logarithmic         0.00010000 100.00  1.0123
      basis_dep_cutoff    1d-4  # 1d-4 is safe default - please check 5d-4 if you wish!
      radial_base         24 7.0
      radial_multiplier   2
      angular_grids       specified
        division   0.2783  110
        division   0.3822  194
        division   0.5626  302
  #      division   0.5922  434
  #      division   0.6227  590
  #      division   0.7206  770
        outer_grid  302
      l_hartree           4
  ################################################################################
  #
  #  Definition of "minimal" basis
  #
  ################################################################################
  #     valence basis states
      valence      1  s   1.
  #     ion occupancy
      ion_occ      1  s   0.5
  ################################################################################
  #
  #  Suggested additional basis functions. For production calculations,
  #  uncomment them one after another (the most important basis functions are
  #  listed first).
  #
  ################################################################################
  #  "First tier" - improvements: -1014.90 meV to -62.69 meV
       hydro 2 s 2.1
       hydro 2 p 3.5
  #  "Second tier" - improvements: -12.89 meV to -1.83 meV
       hydro 1 s 0.85
       hydro 2 p 3.7
       hydro 2 s 1.2
       hydro 3 d 7
  #  "Third tier" - improvements: -0.25 meV to -0.12 meV
  #     hydro 4 f 11.2
  #     hydro 3 p 4.8
  #     hydro 4 d 9
  #     hydro 3 s 3.2
  
  ################################################################################
  #
  #  FHI-aims code project
  #  VB, Fritz-Haber Institut, 2007
  #
  #  Suggested "safe" defaults for O atom (to be pasted into control.in file)
  #  All values have been tested for a non-relativistic, non-spinpolarized O2
  #  molecule using the PW-LDA functional. Validity for PBE is expected.
  #
  #  Constructed for dimers: 1.0 A, 1.208 A, 1.5 A, 2.0 A, 3.0 A
  #
  ################################################################################
    species        O
  #     global species definitions
      nucleus             8
      mass                15.9994
      l_hartree           4
      cut_pot             4.0  2.0  1.0
      cut_free_atom       finite 8.0
      basis_dep_cutoff    1d-4  # 1d-4 is safe default - please check 5d-4 if you wish!
      logarithmic         0.00010000 100.00  1.0123
      radial_base         36 7.0
      radial_multiplier   2
       angular_grids specified
        division   0.4087  110
        division   0.5181  194
        division   0.6184  302
  #      division   0.7315  434
  #      division   0.7934  590
  #      division   0.9656  770
  #      division   1.4041  974
  #      outer_grid 974
        outer_grid 302
  ################################################################################
  #
  #  Definition of "minimal" basis
  #
  ################################################################################
  #     valence basis states
      valence      2  s   2.
      valence      2  p   4.
  #     ion occupancy
      ion_occ      2  s   1.
      ion_occ      2  p   3.
  ################################################################################
  #
  #  Suggested additional basis functions. For production calculations,
  #  uncomment them one after another (the most important basis functions are
  #  listed first).
  #
  ################################################################################
  #  "First tier" - improvements: -699.05 meV to -159.38 meV
       hydro 2 p 1.8
       hydro 3 d 7.6
       hydro 3 s 6.4
  #  "Second tier" - improvements: -49.91 meV to -5.39 meV
       hydro 4 f 11.6
       hydro 3 p 6.2
       hydro 3 d 5.6
       hydro 5 g 17.6
       hydro 1 s 0.75
  #  "Third tier" - improvements: -2.83 meV to -0.50 meV
  #     ionic 2 p auto
  #     hydro 4 f 10.8
  #     hydro 4 d 4.7
  #     hydro 2 s 6.8
  #  "Fourth tier" - improvements: -0.40 meV to -0.12 meV
  #     hydro 3 p 5
  #     hydro 3 s 3.3
  #     hydro 5 g 15.6
  #     hydro 4 f 17.6
  #     hydro 4 d 14
  # Further basis functions - -0.08 meV and below
  #     hydro 3 s 2.1
  #     hydro 4 d 11.6
  #     hydro 3 p 16
  #     hydro 2 s 17.2
  
  
  -----------------------------------------------------------------------
  Completed first pass over input file control.in .
  -----------------------------------------------------------------------
  
  
  -----------------------------------------------------------------------
  Parsing geometry.in (first pass over file, find array dimensions only).
  The contents of geometry.in will be repeated verbatim below
  unless switched off by setting 'verbatim_writeout .false.' .
  in the first line of geometry.in .
  -----------------------------------------------------------------------
  
  atom      -4.053030000      0.065001000     -1.525160000  O
  atom      -4.566710000      0.974813000     -1.912820000  H
  atom      -3.067820000      0.330172000     -1.477310000  H
  atom      -4.581760000     -0.256435000      0.939478000  O
  atom      -4.349860000      0.471090000      1.504340000  H
  atom      -5.393870000     -0.726611000      1.228070000  H
  atom      -5.293160000      2.192130000     -2.328800000  O
  atom      -4.829300000      2.988660000     -1.973850000  H
  atom      -5.428570000      2.328640000     -3.235170000  H
  atom      -1.645860000      0.870179000     -1.502250000  O
  atom      -1.568890000      1.501730000     -0.721051000  H
  atom      -0.824432000      0.282220000     -1.377720000  H
  atom      -3.818880000      2.024990000      2.187990000  O
  atom      -3.690880000      1.961360000      3.202150000  H
  atom      -4.546490000      2.751300000      2.045370000  H
  atom      -4.066610000      4.258280000     -0.900064000  O
  atom      -3.224110000      3.876870000     -0.569443000  H
  atom      -3.737450000      5.116530000     -1.322720000  H
  atom      -5.628340000      3.730740000      1.385610000  O
  atom      -6.090650000      4.418470000      1.860350000  H
  atom      -5.158540000      4.200260000      0.615875000  H
  
  -----------------------------------------------------------------------
  Completed first pass over input file geometry.in .
  -----------------------------------------------------------------------
  
 
  Basic array size parameters: 
  | Number of species                 :        2
  | Number of atoms                   :       21
  | Max. basis fn. angular momentum   :        4
  | Max. atomic/ionic basis occupied n:        2
  | Max. number of basis fn. types    :        2
  | Max. radial fns per species/type  :        8
  | Max. logarithmic grid size        :     1301
  | Max. radial integration grid size :       73
  | Max. angular integration grid size:      302
  | Max. angular grid division number :        8
  | Radial grid for Hartree potential :     1301
  | Number of spin channels           :        1

------------------------------------------------------------
          Reading file control.in.
------------------------------------------------------------
  XC: Using RPBE gradient-corrected functionals.
  Spin treatment: No spin polarisation.
  Scalar relativistic treatment of kinetic energy: on-site free-atom approximation to ZORA.
  Charge =   0.000000E+00: Neutral system requested explicitly.
  Using non-empirical van der Waals correction (Hirshfeld partitioning):
  Occupation type: Gaussian broadening, width =   0.100000E-01 eV.
  Using pulay charge density mixing.
  Pulay mixing - number of memorized iterations:   10
  Charge density mixing - mixing parameter:     0.1000
  Convergence accuracy of self-consistent charge density: 0.5000E-04
  Convergence accuracy of sum of eigenvalues: 0.5000E-02
  Convergence accuracy of total energy: 0.5000E-05
  Maximum number of s.-c. iterations  :  3000
  Kohn-Sham eigenvalues and eigenfunctions calculated by lapack diagonalisation (D&C).
  Number of empty states per atom:        8
  Threshold for basis singularities: 0.0000E+00
  Partition function in integrals calculations: rho / r^2
 Using packed matrix format           0
  Convergence accuracy of forces: 0.5000E-03
  Cleaning forces before final output.
  Hirshfeld charge analysis will be performed.
 
  Reading configuration options for species H                   .
  | Found nuclear charge :   1.0000
  | Found cutoff potl. onset [A], width [A], scale factor :    4.00000    2.00000    1.00000
  | Found cutoff specification for free atom: Cutoff potential begins at    8.00000 A.
  | Found logarithmic grid data [bohr] : 0.1000E-03 0.1000E+03 0.1012E+01
  | Threshold for basis-dependent cutoff potential is   0.100000E-03
  | Found data for basic radial integration grid :    24 points, outermost radius =    7.000 A
  | Found multiplier for basic radial grid :   2
  | Found angular grid specification: user-specified.
  | Specified grid contains     4 separate shells.
  | Check grid settings after all constraints further below.
  | Found l_max for Hartree potential  :   4
  | Found free-atom valence shell :  1 s   1.000
  | No ionic wave fns used. Skipping ion_occ.
  | Found hydrogenic basis function :  2 s   2.100
  | Found hydrogenic basis function :  2 p   3.500
  | Found hydrogenic basis function :  1 s   0.850
  | Found hydrogenic basis function :  2 p   3.700
  | Found hydrogenic basis function :  2 s   1.200
  | Found hydrogenic basis function :  3 d   7.000
  Species H                   : Missing cutoff potential type.
  Defaulting to exp(1/x)/(1-x)^2 type cutoff potential.
  Species H : On-site basis accuracy parameter (for Gram-Schmidt orthonormalisation) not specified.
  Using default value basis_acc =  0.1000000E-03.
  Species H                   : Using default innermost maximum threshold i_radial=  2 for radial functions.
  Species H                   : Basic radial grid will be enhanced according to radial_multiplier =   2, to contain    49 grid points.
 
  Reading configuration options for species O                   .
  | Found nuclear charge :   8.0000
  | Found atomic mass :    15.9994000000000      amu
  | Found l_max for Hartree potential  :   4
  | Found cutoff potl. onset [A], width [A], scale factor :    4.00000    2.00000    1.00000
  | Found cutoff specification for free atom: Cutoff potential begins at    8.00000 A.
  | Threshold for basis-dependent cutoff potential is   0.100000E-03
  | Found logarithmic grid data [bohr] : 0.1000E-03 0.1000E+03 0.1012E+01
  | Found data for basic radial integration grid :    36 points, outermost radius =    7.000 A
  | Found multiplier for basic radial grid :   2
  | Found angular grid specification: user-specified.
  | Specified grid contains     4 separate shells.
  | Check grid settings after all constraints further below.
  | Found free-atom valence shell :  2 s   2.000
  | Found free-atom valence shell :  2 p   4.000
  | No ionic wave fns used. Skipping ion_occ.
  | No ionic wave fns used. Skipping ion_occ.
  | Found hydrogenic basis function :  2 p   1.800
  | Found hydrogenic basis function :  3 d   7.600
  | Found hydrogenic basis function :  3 s   6.400
  | Found hydrogenic basis function :  4 f  11.600
  | Found hydrogenic basis function :  3 p   6.200
  | Found hydrogenic basis function :  3 d   5.600
  | Found hydrogenic basis function :  5 g  17.600
  | Found hydrogenic basis function :  1 s   0.750
  Species O                   : Missing cutoff potential type.
  Defaulting to exp(1/x)/(1-x)^2 type cutoff potential.
  Species O : On-site basis accuracy parameter (for Gram-Schmidt orthonormalisation) not specified.
  Using default value basis_acc =  0.1000000E-03.
  Species O                   : Using default innermost maximum threshold i_radial=  2 for radial functions.
  Species O                   : Basic radial grid will be enhanced according to radial_multiplier =   2, to contain    73 grid points.
 
  Finished reading input file 'control.in'. Consistency checks are next.
 
  Target number of points in a grid batch is not set. Defaulting to  100
  Method for grid partitioning is not set. Defaulting to parallel hash+maxmin partitioning.
  Batch size limit is not set. Defaulting to    200
  By default, will store active basis functions for each batch.
  If in need of memory, prune_basis_once .false. can be used to disable this option.
  communication_type for Hartree potential was not specified.
  Defaulting to calc_hartree .
  Pulay mixer: Number of initial linear mixing iterations not set.
  Defaulting to    0 iterations.
  Work space size for distributed Hartree potential not set.
  Defaulting to   0.200000E+03 MB.
  Algorithm-dependent basis array size parameters:
  | n_max_pulay                         :       10
  Geometry relaxation not requested: no relaxation will be performed.
  Handling of forces: Unphysical translation and rotation will be removed from forces.
  No accuracy limit for integral partition fn. given. Defaulting to 0.1000E-14.
  No threshold value for u(r) in integrations given. Defaulting to 0.1000E-05.
  No accuracy for occupation numbers given. Defaulting to 0.1000E-07.
  No threshold value for occupation numbers given. Defaulting to 0.0000E+00.
  No accuracy for fermi level given. Defaulting to 0.1000E-19.
  Maximum # of iterations to find E_F not set. Defaulting to  200.
  Will not use alltoall communication since running on < 1024 CPUs.
  Partitioning for Hartree potential was not defined. Using partition_type for integrals.
  | Reporting present value of keyword multip_moments_threshold  :       0.10000000E-09
  | This value may affect high angular momentum components of the Hartree potential in periodic systems.
  No q(lm)/r^(l+1) cutoff set for long-range Hartree potential.
  | Using default value of  0.100000E-09 .
  | Verify using the multipole_threshold keyword.
  Defaulting to new monopole extrapolation.
  Density update method: Loop over occupied states selected for charge density update.
------------------------------------------------------------


------------------------------------------------------------
          Reading geometry description geometry.in.
------------------------------------------------------------
  Input structure read successfully.
  The structure contains       21 atoms,  and a total of         70.000 electrons.

  Input geometry:
  | No unit cell requested.
  | Atomic structure:
  |       Atom                x [A]            y [A]            z [A]
  |    1: Species O             -4.053030         0.065001        -1.525160
  |    2: Species H             -4.566710         0.974813        -1.912820
  |    3: Species H             -3.067820         0.330172        -1.477310
  |    4: Species O             -4.581760        -0.256435         0.939478
  |    5: Species H             -4.349860         0.471090         1.504340
  |    6: Species H             -5.393870        -0.726611         1.228070
  |    7: Species O             -5.293160         2.192130        -2.328800
  |    8: Species H             -4.829300         2.988660        -1.973850
  |    9: Species H             -5.428570         2.328640        -3.235170
  |   10: Species O             -1.645860         0.870179        -1.502250
  |   11: Species H             -1.568890         1.501730        -0.721051
  |   12: Species H             -0.824432         0.282220        -1.377720
  |   13: Species O             -3.818880         2.024990         2.187990
  |   14: Species H             -3.690880         1.961360         3.202150
  |   15: Species H             -4.546490         2.751300         2.045370
  |   16: Species O             -4.066610         4.258280        -0.900064
  |   17: Species H             -3.224110         3.876870        -0.569443
  |   18: Species H             -3.737450         5.116530        -1.322720
  |   19: Species O             -5.628340         3.730740         1.385610
  |   20: Species H             -6.090650         4.418470         1.860350
  |   21: Species H             -5.158540         4.200260         0.615875
  |

  | The smallest distance between any two atoms is         0.92654057 AA.
  |
  | The first atom of this pair is atom number                      7 .
  | The second atom of this pair is atom number                     9 .

  Structure-dependent array size parameters: 
  | Maximum number of distinct radial functions  :       18
  | Maximum number of basis functions            :      483
  | Number of Kohn-Sham states (occupied + empty):      119
------------------------------------------------------------

------------------------------------------------------------
          Preparing all fixed parts of the calculation.
------------------------------------------------------------
  Determining machine precision:
    2.225073858507201E-308
  Setting up grids for atomic and cluster calculations.

  Creating wave function, potential, and density for free atoms.

  Species: H

  List of occupied orbitals and eigenvalues:
    n    l              occ      energy [Ha]    energy [eV]
    1    0           1.0000        -0.241408        -6.5691


  Species: O

  List of occupied orbitals and eigenvalues:
    n    l              occ      energy [Ha]    energy [eV]
    1    0           2.0000       -18.944147      -515.4965
    2    0           2.0000        -0.883529       -24.0421
    2    1           4.0000        -0.330176        -8.9845

  Creating fixed part of basis set: Ionic, confined, hydrogenic.
 
  H                    hydrogenic:
 
  List of hydrogenic basis orbitals: 
    n    l      effective z      eigenvalue [eV]  inner max. [A]     outer max. [A]     outer radius [A]   
    2    0         2.100000       -14.9965           0.193241           1.317192           5.372934
    2    1         3.500000       -41.6672           0.602363           0.602363           4.056010
    1    0         0.850000        -9.8292           0.624864           0.624864           5.372934
    2    1         3.700000       -46.5653           0.573616           0.573616           3.909951
    2    0         1.200000        -4.5995           0.334977           2.228160           5.505921
    3    2         7.000000       -74.0753           0.680692           0.680692           3.769152
 
 
  O                    hydrogenic:
 
  List of hydrogenic basis orbitals: 
    n    l      effective z      eigenvalue [eV]  inner max. [A]     outer max. [A]     outer radius [A]   
    2    1         1.800000       -11.0118           1.178546           1.178546           5.432516
    3    2         7.600000       -87.3182           0.624117           0.624117           3.541422
    3    0         6.400000       -61.9209           0.061166           1.081887           4.306510
    4    3        11.600000      -114.4238           0.731621           0.731621           3.584982
    3    1         6.200000       -58.1113           0.255677           1.030255           4.306510
    3    2         5.600000       -47.4081           0.847222           0.847222           4.413102
    5    4        17.600000      -168.5799           0.749730           0.749730           3.372413
    1    0         0.750000        -7.6499           0.705275           0.705275           5.366508
 

  Adding cutoff potential to free-atom effective potential.
  Creating atomic-like basis functions for current effective potential.

  Species H                   :

  List of atomic basis orbitals and eigenvalues:
    n    l      energy [Ha]    energy [eV]    outer radius [A]
    1    0        -0.241374        -6.5681       5.372934


  Species O                   :

  List of atomic basis orbitals and eigenvalues:
    n    l      energy [Ha]    energy [eV]    outer radius [A]
    1    0       -18.944147      -515.4965       1.415745
    2    0        -0.883529       -24.0421       5.048305
    2    1        -0.330173        -8.9845       5.301302

  Assembling full basis from fixed parts.
  | Species H :   atomic orbital   1 s accepted.
  | Species H :    hydro orbital   2 s accepted.
  | Species H :    hydro orbital   1 s accepted.
  | Species H :    hydro orbital   2 s accepted.
  | Species H :    hydro orbital   2 p accepted.
  | Species H :    hydro orbital   2 p accepted.
  | Species H :    hydro orbital   3 d accepted.
  | Species O :   atomic orbital   1 s accepted.
  | Species O :    hydro orbital   3 s accepted.
  | Species O :   atomic orbital   2 s accepted.
  | Species O :    hydro orbital   1 s accepted.
  | Species O :    hydro orbital   3 p accepted.
  | Species O :   atomic orbital   2 p accepted.
  | Species O :    hydro orbital   2 p accepted.
  | Species O :    hydro orbital   3 d accepted.
  | Species O :    hydro orbital   3 d accepted.
  | Species O :    hydro orbital   4 f accepted.
  | Species O :    hydro orbital   5 g accepted.
 
  Basis size parameters after reduction:
  | Total number of radial functions:       18
  | Total number of basis functions :      483
 
  Testing on-site integration grid accuracy.
  |  Species  Function  <phi|h_atom|phi> (log., in eV)  <phi|h_atom|phi> (rad., in eV)
           1        1                 -6.5683835025                 -6.5684759159
           1        2                 13.3711789951                 13.3708738703
           1        3                 23.6590910787                 23.6532055418
           1        4                 16.2963827186                 16.1870710655 ***
           1        5                 28.7627214838                 28.7627215090
           1        6                 59.5965249172                 59.5965950857
           1        7                 60.2220506392                 60.2220503827
           2        8               -515.4964576505               -515.4964530710
           2        9                 15.3030791347                 15.3030722972
           2       10                -21.7296094581                -21.7296135470
           2       11                 14.2969371730                 14.2969701621
           2       12                 21.0679693190                 21.0679697493
           2       13                 -2.3833606469                 -2.3833613176
           2       14                 13.7067136422                 13.7066766629
           2       15                 45.8013116808                 45.8013116965
           2       16                 52.2309815402                 52.2309831494
           2       17                 85.4120732416                 85.4120732763
           2       18                142.1019167745                142.1019167817
 * Note: Onsite integrals marked "***" above are less accurate than
 * onsite_accuracy_threshold =    0.03000 eV. Usually, this is harmless.
 * When in doubt, tighten the "radial" and/or "radial_multiplier" flags to check.

  Preparing densities etc. for the partition functions (integrals / Hartree potential).

  Preparations completed.
  max(cpu_time)          :      0.174 s.
  Wall clock time (cpu1) :      0.548 s.
------------------------------------------------------------

------------------------------------------------------------
          Begin self-consistency loop: Initialization.

          Date     :  20150727, Time     :  113539.313
------------------------------------------------------------

  Initializing index lists of integration centers etc. from given atomic structure:
  | Number of centers in hartree potential         :        21
  | Number of centers in hartree multipole         :        21
  | Number of centers in electron density summation:        21
  | Number of centers in basis integrals           :        21
  | Number of centers in integrals                 :        21
  Partitioning the integration grid into batches with parallel hashing+maxmin method.
  | Number of batches:     2597
  | Maximal batch size:     197
  | Minimal batch size:      52
  | Average batch size:     106.043
  | Standard deviation of batch sizes:      33.453

  Integration load balanced across     8 MPI tasks.
  Work distribution over tasks is as follows:
  Task     0 has      34371 integration points.
  Task     1 has      34455 integration points.
  Task     2 has      34387 integration points.
  Task     3 has      34352 integration points.
  Task     4 has      34471 integration points.
  Task     5 has      34470 integration points.
  Task     6 has      34515 integration points.
  Task     7 has      34373 integration points.
  Initializing partition tables, free-atom densities, potentials, etc. across the integration grid (initialize_grid_storage).
  | Net number of integration points:   275394
  | of which are non-zero points    :   274813
  Obtaining max. number of non-zero basis functions in each batch (get_n_compute_maxes).
  | Maximal number of non-zero basis functions:      477 in task     0
  | Maximal number of non-zero basis functions:      477 in task     1
  | Maximal number of non-zero basis functions:      477 in task     2
  | Maximal number of non-zero basis functions:      477 in task     3
  | Maximal number of non-zero basis functions:      477 in task     4
  | Maximal number of non-zero basis functions:      477 in task     5
  | Maximal number of non-zero basis functions:      476 in task     6
  | Maximal number of non-zero basis functions:      478 in task     7
  Integrating Hamiltonian matrix: batch-based integration.
  Time summed over all CPUs for integration: real work       14.914 s, elapsed       15.099 s
  Integrating overlap matrix.
  Time summed over all CPUs for integration: real work        8.255 s, elapsed        8.410 s

  Updating Kohn-Sham eigenvalues, eigenvectors, occupation numbers, and Fermi level.
  Solving generalized eigenproblem
  Updating Kohn-Sham eigenvalues and eigenfunctions.
  Transforming overlap matrix and checking for singularities.
  Overlap matrix is nonsingular:
  | Lowest eigenvalue:  0.221816E-03
  Solving real generalised eigenvalue problem by standard LAPACK (fast)
  Determining occupation numbers for Kohn-Sham eigenstates.
  | Chemical potential (Fermi level) in eV                 : -.36956586E+01
  | Error in electron count due to remaining E_F inaccuracy: 0.00000000E+00
  | Maximum occupation number of highest empty state:  0.00E+00

  Writing Kohn-Sham eigenvalues.

  State    Occupation    Eigenvalue [Ha]    Eigenvalue [eV]
      1       2.00000         -19.064911         -518.78263
      2       2.00000         -19.052087         -518.43367
      3       2.00000         -19.050644         -518.39439
      4       2.00000         -19.045364         -518.25073
      5       2.00000         -19.042434         -518.17099
      6       2.00000         -19.032263         -517.89422
      7       2.00000         -19.019932         -517.55869
      8       2.00000          -1.122254          -30.53810
      9       2.00000          -1.101720          -29.97932
     10       2.00000          -1.099434          -29.91713
     11       2.00000          -1.088994          -29.63303
     12       2.00000          -1.086687          -29.57026
     13       2.00000          -1.063689          -28.94445
     14       2.00000          -1.042355          -28.36393
     15       2.00000          -0.653538          -17.78369
     16       2.00000          -0.648495          -17.64646
     17       2.00000          -0.632177          -17.20241
     18       2.00000          -0.609410          -16.58290
     19       2.00000          -0.607950          -16.54317
     20       2.00000          -0.603720          -16.42805
     21       2.00000          -0.600803          -16.34867
     22       2.00000          -0.550607          -14.98277
     23       2.00000          -0.525496          -14.29946
     24       2.00000          -0.513278          -13.96700
     25       2.00000          -0.507065          -13.79793
     26       2.00000          -0.498662          -13.56929
     27       2.00000          -0.486403          -13.23571
     28       2.00000          -0.475663          -12.94346
     29       2.00000          -0.441496          -12.01371
     30       2.00000          -0.440960          -11.99913
     31       2.00000          -0.439784          -11.96713
     32       2.00000          -0.437522          -11.90558
     33       2.00000          -0.430380          -11.71123
     34       2.00000          -0.424335          -11.54674
     35       2.00000          -0.402686          -10.95765
     36       0.00000          -0.102757           -2.79617
     37       0.00000          -0.071813           -1.95413
     38       0.00000          -0.067538           -1.83780
     39       0.00000          -0.051590           -1.40384
     40       0.00000          -0.040420           -1.09989
     41       0.00000          -0.036032           -0.98048
     42       0.00000          -0.018377           -0.50006
     43       0.00000           0.018018            0.49029
     44       0.00000           0.023393            0.63655
     45       0.00000           0.030371            0.82643
     46       0.00000           0.038455            1.04640
     47       0.00000           0.048441            1.31816
     48       0.00000           0.050306            1.36889
     49       0.00000           0.061411            1.67107
     50       0.00000           0.073281            1.99408
     51       0.00000           0.079610            2.16630
     52       0.00000           0.081570            2.21964
     53       0.00000           0.090433            2.46080
     54       0.00000           0.093052            2.53208
     55       0.00000           0.100564            2.73647
     56       0.00000           0.104883            2.85400
     57       0.00000           0.114571            3.11764
     58       0.00000           0.118477            3.22393
     59       0.00000           0.122843            3.34274
     60       0.00000           0.130869            3.56112
     61       0.00000           0.133473            3.63197
     62       0.00000           0.136239            3.70725
     63       0.00000           0.139723            3.80206
     64       0.00000           0.149446            4.06664
     65       0.00000           0.153131            4.16692
     66       0.00000           0.170858            4.64929
     67       0.00000           0.178744            4.86388
     68       0.00000           0.181308            4.93364
     69       0.00000           0.192882            5.24858
     70       0.00000           0.206013            5.60590
     71       0.00000           0.214231            5.82951
     72       0.00000           0.236079            6.42405
     73       0.00000           0.237847            6.47215
     74       0.00000           0.243805            6.63428
     75       0.00000           0.249497            6.78915
     76       0.00000           0.258034            7.02145
     77       0.00000           0.292511            7.95964
     78       0.00000           0.298612            8.12564
     79       0.00000           0.304595            8.28846
     80       0.00000           0.308334            8.39020
     81       0.00000           0.314265            8.55157
     82       0.00000           0.327247            8.90485
     83       0.00000           0.335066            9.11760
     84       0.00000           0.342932            9.33165
     85       0.00000           0.359694            9.78777
     86       0.00000           0.365417            9.94350
     87       0.00000           0.375159           10.20861
     88       0.00000           0.381366           10.37750
     89       0.00000           0.387557           10.54595
     90       0.00000           0.397585           10.81884
     91       0.00000           0.404350           11.00293
     92       0.00000           0.411685           11.20251
     93       0.00000           0.420463           11.44138
     94       0.00000           0.429929           11.69896
     95       0.00000           0.445768           12.12997
     96       0.00000           0.461557           12.55960
     97       0.00000           0.465233           12.65965
     98       0.00000           0.473217           12.87690
     99       0.00000           0.476979           12.97926
    100       0.00000           0.493216           13.42109
    101       0.00000           0.505012           13.74208
    102       0.00000           0.514166           13.99116
    103       0.00000           0.528732           14.38753
    104       0.00000           0.546476           14.87036
    105       0.00000           0.556710           15.14884
    106       0.00000           0.575138           15.65030
    107       0.00000           0.577759           15.72163
    108       0.00000           0.599266           16.30687
    109       0.00000           0.607731           16.53719
    110       0.00000           0.634500           17.26563
    111       0.00000           0.662113           18.01702
    112       0.00000           0.676550           18.40987
    113       0.00000           0.687603           18.71062
    114       0.00000           0.707272           19.24584
    115       0.00000           0.726385           19.76595
    116       0.00000           0.741603           20.18004
    117       0.00000           0.765580           20.83248
    118       0.00000           0.770794           20.97438
    119       0.00000           0.781841           21.27498

  Highest occupied state (VBM) at    -10.95765152 eV
  | Occupation number:      2.00000000

  Lowest unoccupied state (CBM) at    -2.79617179 eV
  | Occupation number:      0.00000000

  Overall HOMO-LUMO gap:      8.16147973 eV.
  Calculating total energy contributions from superposition of free atom densities.

  Total energy components:
  | Sum of eigenvalues            :        -303.68639784 Ha       -8263.72733903 eV
  | XC energy correction          :         -63.83340371 Ha       -1736.99529237 eV
  | XC potential correction       :          81.57696380 Ha        2219.82212817 eV
  | Free-atom electrostatic energy:        -250.36939805 Ha       -6812.89795736 eV
  | Hartree energy correction     :           0.00000000 Ha           0.00000000 eV
  | van der Waals energy corr.    :           0.00000000 Ha           0.00000000 eV
  | Entropy correction            :           0.00000000 Ha           0.00000000 eV
  | ---------------------------
  | Total energy                  :        -536.31223581 Ha      -14593.79846059 eV
  | Total energy, T -> 0          :        -536.31223581 Ha      -14593.79846059 eV  <-- do not rely on this value for anything but (periodic) metals
  | Electronic free energy        :        -536.31223581 Ha      -14593.79846059 eV

  Derived energy quantities:
  | Kinetic energy                :         530.90118449 Ha       14446.55626263 eV
  | Electrostatic energy          :       -1003.38001658 Ha      -27303.35943084 eV
  | Energy correction for multipole
  | error in Hartree potential    :           0.00000000 Ha           0.00000000 eV
  | Sum of eigenvalues per atom                           :        -393.51082567 eV
  | Total energy (T->0) per atom                          :        -694.94278384 eV  <-- do not rely on this value for anything but (periodic) metals
  | Electronic free energy per atom                       :        -694.94278384 eV
  Initialize hartree_potential_storage
  Max. number of atoms included in rho_multipole:           21

  End scf initialization - timings             :  max(cpu_time)    wall_clock(cpu1)
  | Time for scf. initialization               :        4.015 s           4.015 s
  | Boundary condition initialization          :        0.000 s           0.000 s
  | Integration                                :        2.947 s           2.946 s
  | Solution of K.-S. eqns.                    :        0.462 s           0.462 s
  | Grid partitioning                          :        0.209 s           0.210 s
  | Preloading free-atom quantities on grid    :        0.013 s           0.013 s
  | Free-atom superposition energy             :        0.118 s           0.118 s
  | Total energy evaluation                    :        0.001 s           0.001 s
------------------------------------------------------------

------------------------------------------------------------
          Begin self-consistency iteration #    1

  Date     :  20150727, Time     :  113543.329
------------------------------------------------------------
  Evaluating new KS density.
  Integration grid: deviation in total charge (<rho> - N_e) =   0.000000E+00
  Pulay mixing of updated and previous charge densities.

  Evaluating partitioned Hartree potential by multipole expansion.
  | Analytical far-field extrapolation by fixed multipoles:
  | Hartree multipole sum: apparent total charge =  -0.239059E-05
  Summing up the Hartree potential.
  Time summed over all CPUs for potential: real work        4.980 s, elapsed        4.995 s
  | RMS charge density error from multipole expansion :   0.193193E-02

  Integrating Hamiltonian matrix: batch-based integration.
  Time summed over all CPUs for integration: real work       14.885 s, elapsed       15.085 s

  Updating Kohn-Sham eigenvalues, eigenvectors, occupation numbers, and Fermi level.
  Solving generalized eigenproblem
  Updating Kohn-Sham eigenvalues and eigenfunctions.
  Solving real generalised eigenvalue problem by standard LAPACK (fast)
  Determining occupation numbers for Kohn-Sham eigenstates.
  | Chemical potential (Fermi level) in eV                 : -.32612849E+01
  | Error in electron count due to remaining E_F inaccuracy: 0.00000000E+00
  | Maximum occupation number of highest empty state:  0.00E+00

  Writing Kohn-Sham eigenvalues.

  State    Occupation    Eigenvalue [Ha]    Eigenvalue [eV]
      1       2.00000         -18.990358         -516.75392
      2       2.00000         -18.986091         -516.63783
      3       2.00000         -18.979958         -516.47095
      4       2.00000         -18.974847         -516.33185
      5       2.00000         -18.956054         -515.82048
      6       2.00000         -18.955651         -515.80952
      7       2.00000         -18.915773         -514.72437
      8       2.00000          -1.084917          -29.52210
      9       2.00000          -1.068668          -29.07993
     10       2.00000          -1.061011          -28.87158
     11       2.00000          -1.052301          -28.63456
     12       2.00000          -1.046912          -28.48793
     13       2.00000          -1.023537          -27.85186
     14       2.00000          -0.982454          -26.73394
     15       2.00000          -0.620839          -16.89388
     16       2.00000          -0.603300          -16.41663
     17       2.00000          -0.601077          -16.35615
     18       2.00000          -0.586187          -15.95097
     19       2.00000          -0.576040          -15.67484
     20       2.00000          -0.571211          -15.54344
     21       2.00000          -0.561189          -15.27072
     22       2.00000          -0.511442          -13.91705
     23       2.00000          -0.493716          -13.43471
     24       2.00000          -0.481232          -13.09498
     25       2.00000          -0.460257          -12.52422
     26       2.00000          -0.454774          -12.37504
     27       2.00000          -0.443489          -12.06796
     28       2.00000          -0.430804          -11.72277
     29       2.00000          -0.410745          -11.17693
     30       2.00000          -0.401977          -10.93835
     31       2.00000          -0.396162          -10.78011
     32       2.00000          -0.388454          -10.57037
     33       2.00000          -0.381217          -10.37346
     34       2.00000          -0.380562          -10.35562
     35       2.00000          -0.340278           -9.25945
     36       0.00000          -0.095443           -2.59714
     37       0.00000          -0.064160           -1.74587
     38       0.00000          -0.058888           -1.60242
     39       0.00000          -0.040589           -1.10448
     40       0.00000          -0.033693           -0.91682
     41       0.00000          -0.024841           -0.67595
     42       0.00000          -0.012558           -0.34172
     43       0.00000           0.027696            0.75363
     44       0.00000           0.036910            1.00437
     45       0.00000           0.038595            1.05022
     46       0.00000           0.046874            1.27551
     47       0.00000           0.058911            1.60304
     48       0.00000           0.061629            1.67702
     49       0.00000           0.070073            1.90679
     50       0.00000           0.083282            2.26621
     51       0.00000           0.091059            2.47784
     52       0.00000           0.092892            2.52772
     53       0.00000           0.100092            2.72364
     54       0.00000           0.103070            2.80467
     55       0.00000           0.114058            3.10369
     56       0.00000           0.119520            3.25230
     57       0.00000           0.124964            3.40043
     58       0.00000           0.129922            3.53537
     59       0.00000           0.135202            3.67903
     60       0.00000           0.138941            3.78078
     61       0.00000           0.147535            4.01463
     62       0.00000           0.151350            4.11844
     63       0.00000           0.157132            4.27578
     64       0.00000           0.161811            4.40311
     65       0.00000           0.179598            4.88712
     66       0.00000           0.183475            4.99260
     67       0.00000           0.189593            5.15908
     68       0.00000           0.196269            5.34074
     69       0.00000           0.205064            5.58008
     70       0.00000           0.220689            6.00525
     71       0.00000           0.228087            6.20657
     72       0.00000           0.246427            6.70563
     73       0.00000           0.252412            6.86848
     74       0.00000           0.255159            6.94323
     75       0.00000           0.260284            7.08268
     76       0.00000           0.267854            7.28868
     77       0.00000           0.303682            8.26360
     78       0.00000           0.308986            8.40793
     79       0.00000           0.314577            8.56007
     80       0.00000           0.320146            8.71160
     81       0.00000           0.323485            8.80247
     82       0.00000           0.339540            9.23935
     83       0.00000           0.348008            9.46979
     84       0.00000           0.357059            9.71607
     85       0.00000           0.369552           10.05603
     86       0.00000           0.376587           10.24745
     87       0.00000           0.383202           10.42746
     88       0.00000           0.392397           10.67766
     89       0.00000           0.396996           10.80280
     90       0.00000           0.411030           11.18468
     91       0.00000           0.415666           11.31086
     92       0.00000           0.423446           11.52255
     93       0.00000           0.433070           11.78443
     94       0.00000           0.443780           12.07588
     95       0.00000           0.455358           12.39091
     96       0.00000           0.471778           12.83773
     97       0.00000           0.475935           12.95084
     98       0.00000           0.483442           13.15513
     99       0.00000           0.490145           13.33752
    100       0.00000           0.504357           13.72426
    101       0.00000           0.517735           14.08829
    102       0.00000           0.526721           14.33280
    103       0.00000           0.543438           14.78771
    104       0.00000           0.562316           15.30139
    105       0.00000           0.573950           15.61798
    106       0.00000           0.586815           15.96804
    107       0.00000           0.593713           16.15576
    108       0.00000           0.613185           16.68563
    109       0.00000           0.622014           16.92585
    110       0.00000           0.649328           17.66911
    111       0.00000           0.679214           18.48235
    112       0.00000           0.690760           18.79654
    113       0.00000           0.702439           19.11434
    114       0.00000           0.722929           19.67189
    115       0.00000           0.744819           20.26757
    116       0.00000           0.757560           20.61427
    117       0.00000           0.779809           21.21969
    118       0.00000           0.785779           21.38214
    119       0.00000           0.794964           21.63207

  Highest occupied state (VBM) at     -9.25944782 eV
  | Occupation number:      2.00000000

  Lowest unoccupied state (CBM) at    -2.59713704 eV
  | Occupation number:      0.00000000

  Overall HOMO-LUMO gap:      6.66231077 eV.

  Total energy components:
  | Sum of eigenvalues            :        -300.34697090 Ha       -8172.85690846 eV
  | XC energy correction          :         -64.16639106 Ha       -1746.05633905 eV
  | XC potential correction       :          82.01209222 Ha        2231.66257511 eV
  | Free-atom electrostatic energy:        -250.36939805 Ha       -6812.89795736 eV
  | Hartree energy correction     :          -3.23557100 Ha         -88.04436668 eV
  | van der Waals energy corr.    :           0.00000000 Ha           0.00000000 eV
  | Entropy correction            :           0.00000000 Ha           0.00000000 eV
  | ---------------------------
  | Total energy                  :        -536.10623879 Ha      -14588.19299643 eV
  | Total energy, T -> 0          :        -536.10623879 Ha      -14588.19299643 eV  <-- do not rely on this value for anything but (periodic) metals
  | Electronic free energy        :        -536.10623879 Ha      -14588.19299643 eV

  Derived energy quantities:
  | Kinetic energy                :         532.88961001 Ha       14500.66407397 eV
  | Electrostatic energy          :       -1004.82945773 Ha      -27342.80073135 eV
  | Energy correction for multipole
  | error in Hartree potential    :          -0.00002728 Ha          -0.00074238 eV
  | Sum of eigenvalues per atom                           :        -389.18366231 eV
  | Total energy (T->0) per atom                          :        -694.67585697 eV  <-- do not rely on this value for anything but (periodic) metals
  | Electronic free energy per atom                       :        -694.67585697 eV

  Self-consistency convergence accuracy:
  | Change of charge density      : 0.7766E+00
  | Change of sum of eigenvalues  : 0.9087E+02 eV
  | Change of total energy        : 0.5605E+01 eV

  End self-consistency iteration #     1       :  max(cpu_time)    wall_clock(cpu1)
  | Time for this iteration                    :        3.958 s           3.958 s
  | Charge density update                      :        1.307 s           1.306 s
  | Density mixing                             :        0.005 s           0.004 s
  | Hartree multipole update                   :        0.007 s           0.007 s
  | Hartree multipole summation                :        0.625 s           0.625 s
  | Integration                                :        1.890 s           1.889 s
  | Solution of K.-S. eqns.                    :        0.120 s           0.120 s
  | Total energy evaluation                    :        0.000 s           0.000 s
------------------------------------------------------------

------------------------------------------------------------
          Begin self-consistency iteration #    2

  Date     :  20150727, Time     :  113547.287
------------------------------------------------------------
  Evaluating new KS density.
  Integration grid: deviation in total charge (<rho> - N_e) =   4.263256E-14
  Pulay mixing of updated and previous charge densities.

  Evaluating partitioned Hartree potential by multipole expansion.
  | Analytical far-field extrapolation by fixed multipoles:
  | Hartree multipole sum: apparent total charge =  -0.670183E-05
  Summing up the Hartree potential.
  Time summed over all CPUs for potential: real work        4.979 s, elapsed        4.993 s
  | RMS charge density error from multipole expansion :   0.778966E-02

  Integrating Hamiltonian matrix: batch-based integration.
  Time summed over all CPUs for integration: real work       14.872 s, elapsed       15.063 s

  Updating Kohn-Sham eigenvalues, eigenvectors, occupation numbers, and Fermi level.
  Solving generalized eigenproblem
  Updating Kohn-Sham eigenvalues and eigenfunctions.
  Solving real generalised eigenvalue problem by standard LAPACK (fast)
  Determining occupation numbers for Kohn-Sham eigenstates.
  | Chemical potential (Fermi level) in eV                 : -.35988118E+01
  | Error in electron count due to remaining E_F inaccuracy: 0.00000000E+00
  | Maximum occupation number of highest empty state:  0.00E+00

  Highest occupied state (VBM) at     -5.08677921 eV
  | Occupation number:      2.00000000

  Lowest unoccupied state (CBM) at    -2.23367343 eV
  | Occupation number:      0.00000000

  Overall HOMO-LUMO gap:      2.85310579 eV.

  Total energy components:
  | Sum of eigenvalues            :        -292.29268539 Ha       -7953.68864871 eV
  | XC energy correction          :         -65.00031368 Ha       -1768.74852807 eV
  | XC potential correction       :          83.10070726 Ha        2261.28529746 eV
  | Free-atom electrostatic energy:        -250.36939805 Ha       -6812.89795736 eV
  | Hartree energy correction     :         -11.29760867 Ha        -307.42357337 eV
  | van der Waals energy corr.    :           0.00000000 Ha           0.00000000 eV
  | Entropy correction            :           0.00000000 Ha           0.00000000 eV
  | ---------------------------
  | Total energy                  :        -535.85929852 Ha      -14581.47341004 eV
  | Total energy, T -> 0          :        -535.85929852 Ha      -14581.47341004 eV  <-- do not rely on this value for anything but (periodic) metals
  | Electronic free energy        :        -535.85929852 Ha      -14581.47341004 eV

  Derived energy quantities:
  | Kinetic energy                :         536.94429178 Ha       14610.99757876 eV
  | Electrostatic energy          :       -1007.80327663 Ha      -27423.72246074 eV
  | Energy correction for multipole
  | error in Hartree potential    :          -0.00127914 Ha          -0.03480713 eV
  | Sum of eigenvalues per atom                           :        -378.74707851 eV
  | Total energy (T->0) per atom                          :        -694.35587667 eV  <-- do not rely on this value for anything but (periodic) metals
  | Electronic free energy per atom                       :        -694.35587667 eV

  Self-consistency convergence accuracy:
  | Change of charge density      : 0.5883E+00
  | Change of sum of eigenvalues  : 0.2192E+03 eV
  | Change of total energy        : 0.6720E+01 eV

  End self-consistency iteration #     2       :  max(cpu_time)    wall_clock(cpu1)
  | Time for this iteration                    :        3.948 s           3.947 s
  | Charge density update                      :        1.301 s           1.301 s
  | Density mixing                             :        0.007 s           0.007 s
  | Hartree multipole update                   :        0.007 s           0.007 s
  | Hartree multipole summation                :        0.625 s           0.625 s
  | Integration                                :        1.886 s           1.886 s
  | Solution of K.-S. eqns.                    :        0.119 s           0.119 s
  | Total energy evaluation                    :        0.001 s           0.001 s
------------------------------------------------------------

------------------------------------------------------------
          Begin self-consistency iteration #    3

  Date     :  20150727, Time     :  113551.235
------------------------------------------------------------
  Evaluating new KS density.
  Integration grid: deviation in total charge (<rho> - N_e) =   2.842171E-14
  Pulay mixing of updated and previous charge densities.

  Evaluating partitioned Hartree potential by multipole expansion.
  | Analytical far-field extrapolation by fixed multipoles:
  | Hartree multipole sum: apparent total charge =  -0.543020E-05
  Summing up the Hartree potential.
  Time summed over all CPUs for potential: real work        4.979 s, elapsed        4.994 s
  | RMS charge density error from multipole expansion :   0.153427E-01

  Integrating Hamiltonian matrix: batch-based integration.
  Time summed over all CPUs for integration: real work       14.870 s, elapsed       15.051 s

  Updating Kohn-Sham eigenvalues, eigenvectors, occupation numbers, and Fermi level.
  Solving generalized eigenproblem
  Updating Kohn-Sham eigenvalues and eigenfunctions.
  Solving real generalised eigenvalue problem by standard LAPACK (fast)
  Determining occupation numbers for Kohn-Sham eigenstates.
  | Chemical potential (Fermi level) in eV                 : -.36089147E+01
  | Error in electron count due to remaining E_F inaccuracy: 0.00000000E+00
  | Maximum occupation number of highest empty state:  0.00E+00

  Highest occupied state (VBM) at     -4.69973870 eV
  | Occupation number:      2.00000000

  Lowest unoccupied state (CBM) at    -2.32078826 eV
  | Occupation number:      0.00000000

  Overall HOMO-LUMO gap:      2.37895044 eV.

  Total energy components:
  | Sum of eigenvalues            :        -292.45988644 Ha       -7958.23842085 eV
  | XC energy correction          :         -64.96147882 Ha       -1767.69177794 eV
  | XC potential correction       :          83.04243662 Ha        2259.69967260 eV
  | Free-atom electrostatic energy:        -250.36939805 Ha       -6812.89795736 eV
  | Hartree energy correction     :         -11.10103521 Ha        -302.07453756 eV
  | van der Waals energy corr.    :           0.00000000 Ha           0.00000000 eV
  | Entropy correction            :           0.00000000 Ha           0.00000000 eV
  | ---------------------------
  | Total energy                  :        -535.84936191 Ha      -14581.20302111 eV
  | Total energy, T -> 0          :        -535.84936191 Ha      -14581.20302111 eV  <-- do not rely on this value for anything but (periodic) metals
  | Electronic free energy        :        -535.84936191 Ha      -14581.20302111 eV

  Derived energy quantities:
  | Kinetic energy                :         534.17624649 Ha       14535.67523413 eV
  | Electrostatic energy          :       -1005.06412959 Ha      -27349.18647730 eV
  | Energy correction for multipole
  | error in Hartree potential    :          -0.00744174 Ha          -0.20250018 eV
  | Sum of eigenvalues per atom                           :        -378.96373433 eV
  | Total energy (T->0) per atom                          :        -694.34300101 eV  <-- do not rely on this value for anything but (periodic) metals
  | Electronic free energy per atom                       :        -694.34300101 eV

  Self-consistency convergence accuracy:
  | Change of charge density      : 0.2912E+00
  | Change of sum of eigenvalues  : -.4550E+01 eV
  | Change of total energy        : 0.2704E+00 eV

  End self-consistency iteration #     3       :  max(cpu_time)    wall_clock(cpu1)
  | Time for this iteration                    :        3.942 s           3.943 s
  | Charge density update                      :        1.296 s           1.295 s
  | Density mixing                             :        0.009 s           0.010 s
  | Hartree multipole update                   :        0.006 s           0.007 s
  | Hartree multipole summation                :        0.625 s           0.625 s
  | Integration                                :        1.885 s           1.885 s
  | Solution of K.-S. eqns.                    :        0.119 s           0.119 s
  | Total energy evaluation                    :        0.000 s           0.000 s
------------------------------------------------------------

------------------------------------------------------------
          Begin self-consistency iteration #    4

  Date     :  20150727, Time     :  113555.178
------------------------------------------------------------
  Evaluating new KS density.
  Integration grid: deviation in total charge (<rho> - N_e) =   5.684342E-14
  Pulay mixing of updated and previous charge densities.

  Evaluating partitioned Hartree potential by multipole expansion.
  | Analytical far-field extrapolation by fixed multipoles:
  | Hartree multipole sum: apparent total charge =  -0.629676E-05
  Summing up the Hartree potential.
  Time summed over all CPUs for potential: real work        4.978 s, elapsed        4.994 s
  | RMS charge density error from multipole expansion :   0.205482E-01

  Integrating Hamiltonian matrix: batch-based integration.
  Time summed over all CPUs for integration: real work       14.875 s, elapsed       15.063 s

  Updating Kohn-Sham eigenvalues, eigenvectors, occupation numbers, and Fermi level.
  Solving generalized eigenproblem
  Updating Kohn-Sham eigenvalues and eigenfunctions.
  Solving real generalised eigenvalue problem by standard LAPACK (fast)
  Determining occupation numbers for Kohn-Sham eigenstates.
  | Chemical potential (Fermi level) in eV                 : -.29874605E+01
  | Error in electron count due to remaining E_F inaccuracy: 0.00000000E+00
  | Maximum occupation number of highest empty state:  0.00E+00

  Highest occupied state (VBM) at     -3.12189967 eV
  | Occupation number:      2.00000000

  Lowest unoccupied state (CBM) at    -2.27283659 eV
  | Occupation number:      0.00000000

  Overall HOMO-LUMO gap:      0.84906308 eV.

  Total energy components:
  | Sum of eigenvalues            :        -289.79778696 Ha       -7885.79900816 eV
  | XC energy correction          :         -65.25969994 Ha       -1775.80678750 eV
  | XC potential correction       :          83.42986171 Ha        2270.24204580 eV
  | Free-atom electrostatic energy:        -250.36939805 Ha       -6812.89795736 eV
  | Hartree energy correction     :         -13.83633107 Ha        -376.50572484 eV
  | van der Waals energy corr.    :           0.00000000 Ha           0.00000000 eV
  | Entropy correction            :           0.00000000 Ha           0.00000000 eV
  | ---------------------------
  | Total energy                  :        -535.83335431 Ha      -14580.76743206 eV
  | Total energy, T -> 0          :        -535.83335431 Ha      -14580.76743206 eV  <-- do not rely on this value for anything but (periodic) metals
  | Electronic free energy        :        -535.83335431 Ha      -14580.76743206 eV

  Derived energy quantities:
  | Kinetic energy                :         534.34558444 Ha       14540.28315401 eV
  | Electrostatic energy          :       -1004.91923880 Ha      -27345.24379857 eV
  | Energy correction for multipole
  | error in Hartree potential    :          -0.01059011 Ha          -0.28817151 eV
  | Sum of eigenvalues per atom                           :        -375.51423848 eV
  | Total energy (T->0) per atom                          :        -694.32225867 eV  <-- do not rely on this value for anything but (periodic) metals
  | Electronic free energy per atom                       :        -694.32225867 eV

  Self-consistency convergence accuracy:
  | Change of charge density      : 0.1607E+00
  | Change of sum of eigenvalues  : 0.7244E+02 eV
  | Change of total energy        : 0.4356E+00 eV

  End self-consistency iteration #     4       :  max(cpu_time)    wall_clock(cpu1)
  | Time for this iteration                    :        3.948 s           3.948 s
  | Charge density update                      :        1.297 s           1.297 s
  | Density mixing                             :        0.011 s           0.012 s
  | Hartree multipole update                   :        0.007 s           0.007 s
  | Hartree multipole summation                :        0.625 s           0.625 s
  | Integration                                :        1.886 s           1.887 s
  | Solution of K.-S. eqns.                    :        0.119 s           0.119 s
  | Total energy evaluation                    :        0.000 s           0.001 s
------------------------------------------------------------

------------------------------------------------------------
          Begin self-consistency iteration #    5

  Date     :  20150727, Time     :  113559.127
------------------------------------------------------------
  Evaluating new KS density.
  Integration grid: deviation in total charge (<rho> - N_e) =   5.684342E-14
  Pulay mixing of updated and previous charge densities.

  Evaluating partitioned Hartree potential by multipole expansion.
  | Analytical far-field extrapolation by fixed multipoles:
  | Hartree multipole sum: apparent total charge =  -0.605218E-05
  Summing up the Hartree potential.
  Time summed over all CPUs for potential: real work        4.984 s, elapsed        5.025 s
  | RMS charge density error from multipole expansion :   0.209757E-01

  Integrating Hamiltonian matrix: batch-based integration.
  Time summed over all CPUs for integration: real work       14.942 s, elapsed       15.141 s

  Updating Kohn-Sham eigenvalues, eigenvectors, occupation numbers, and Fermi level.
  Solving generalized eigenproblem
  Updating Kohn-Sham eigenvalues and eigenfunctions.
  Solving real generalised eigenvalue problem by standard LAPACK (fast)
  Determining occupation numbers for Kohn-Sham eigenstates.
  | Chemical potential (Fermi level) in eV                 : -.29872200E+01
  | Error in electron count due to remaining E_F inaccuracy: 0.00000000E+00
  | Maximum occupation number of highest empty state:  0.00E+00

  Highest occupied state (VBM) at     -3.13046251 eV
  | Occupation number:      2.00000000

  Lowest unoccupied state (CBM) at    -2.25077321 eV
  | Occupation number:      0.00000000

  Overall HOMO-LUMO gap:      0.87968931 eV.

  Total energy components:
  | Sum of eigenvalues            :        -289.79680934 Ha       -7885.77240596 eV
  | XC energy correction          :         -65.26767030 Ha       -1776.02367208 eV
  | XC potential correction       :          83.43942386 Ha        2270.50224518 eV
  | Free-atom electrostatic energy:        -250.36939805 Ha       -6812.89795736 eV
  | Hartree energy correction     :         -13.83856096 Ha        -376.56640329 eV
  | van der Waals energy corr.    :           0.00000000 Ha           0.00000000 eV
  | Entropy correction            :           0.00000000 Ha           0.00000000 eV
  | ---------------------------
  | Total energy                  :        -535.83301480 Ha      -14580.75819350 eV
  | Total energy, T -> 0          :        -535.83301480 Ha      -14580.75819350 eV  <-- do not rely on this value for anything but (periodic) metals
  | Electronic free energy        :        -535.83301480 Ha      -14580.75819350 eV

  Derived energy quantities:
  | Kinetic energy                :         534.40638839 Ha       14541.93771370 eV
  | Electrostatic energy          :       -1004.97173288 Ha      -27346.67223512 eV
  | Energy correction for multipole
  | error in Hartree potential    :          -0.01062805 Ha          -0.28920395 eV
  | Sum of eigenvalues per atom                           :        -375.51297171 eV
  | Total energy (T->0) per atom                          :        -694.32181874 eV  <-- do not rely on this value for anything but (periodic) metals
  | Electronic free energy per atom                       :        -694.32181874 eV

  Self-consistency convergence accuracy:
  | Change of charge density      : 0.3212E-01
  | Change of sum of eigenvalues  : 0.2660E-01 eV
  | Change of total energy        : 0.9239E-02 eV

  End self-consistency iteration #     5       :  max(cpu_time)    wall_clock(cpu1)
  | Time for this iteration                    :        3.963 s           3.963 s
  | Charge density update                      :        1.297 s           1.297 s
  | Density mixing                             :        0.014 s           0.013 s
  | Hartree multipole update                   :        0.007 s           0.007 s
  | Hartree multipole summation                :        0.629 s           0.629 s
  | Integration                                :        1.897 s           1.896 s
  | Solution of K.-S. eqns.                    :        0.118 s           0.119 s
  | Total energy evaluation                    :        0.001 s           0.001 s
------------------------------------------------------------

------------------------------------------------------------
          Begin self-consistency iteration #    6

  Date     :  20150727, Time     :  113603.091
------------------------------------------------------------
  Evaluating new KS density.
  Integration grid: deviation in total charge (<rho> - N_e) =   0.000000E+00
  Pulay mixing of updated and previous charge densities.

  Evaluating partitioned Hartree potential by multipole expansion.
  | Analytical far-field extrapolation by fixed multipoles:
  | Hartree multipole sum: apparent total charge =  -0.594052E-05
  Summing up the Hartree potential.
  Time summed over all CPUs for potential: real work        4.978 s, elapsed        4.993 s
  | RMS charge density error from multipole expansion :   0.210764E-01

  Integrating Hamiltonian matrix: batch-based integration.
  Time summed over all CPUs for integration: real work       14.875 s, elapsed       15.054 s

  Updating Kohn-Sham eigenvalues, eigenvectors, occupation numbers, and Fermi level.
  Solving generalized eigenproblem
  Updating Kohn-Sham eigenvalues and eigenfunctions.
  Solving real generalised eigenvalue problem by standard LAPACK (fast)
  Determining occupation numbers for Kohn-Sham eigenstates.
  | Chemical potential (Fermi level) in eV                 : -.29955995E+01
  | Error in electron count due to remaining E_F inaccuracy: 0.00000000E+00
  | Maximum occupation number of highest empty state:  0.00E+00

  Highest occupied state (VBM) at     -3.16282420 eV
  | Occupation number:      2.00000000

  Lowest unoccupied state (CBM) at    -2.24731798 eV
  | Occupation number:      0.00000000

  Overall HOMO-LUMO gap:      0.91550622 eV.

  Total energy components:
  | Sum of eigenvalues            :        -289.83698117 Ha       -7886.86553688 eV
  | XC energy correction          :         -65.26571426 Ha       -1775.97044531 eV
  | XC potential correction       :          83.43657216 Ha        2270.42464644 eV
  | Free-atom electrostatic energy:        -250.36939805 Ha       -6812.89795736 eV
  | Hartree energy correction     :         -13.79743629 Ha        -375.44734405 eV
  | van der Waals energy corr.    :           0.00000000 Ha           0.00000000 eV
  | Entropy correction            :           0.00000000 Ha           0.00000000 eV
  | ---------------------------
  | Total energy                  :        -535.83295760 Ha      -14580.75663716 eV
  | Total energy, T -> 0          :        -535.83295760 Ha      -14580.75663716 eV  <-- do not rely on this value for anything but (periodic) metals
  | Electronic free energy        :        -535.83295760 Ha      -14580.75663716 eV

  Derived energy quantities:
  | Kinetic energy                :         534.41559318 Ha       14542.18818882 eV
  | Electrostatic energy          :       -1004.98283653 Ha      -27346.97438067 eV
  | Energy correction for multipole
  | error in Hartree potential    :          -0.01062290 Ha          -0.28906385 eV
  | Sum of eigenvalues per atom                           :        -375.56502557 eV
  | Total energy (T->0) per atom                          :        -694.32174463 eV  <-- do not rely on this value for anything but (periodic) metals
  | Electronic free energy per atom                       :        -694.32174463 eV

  Self-consistency convergence accuracy:
  | Change of charge density      : 0.1533E-01
  | Change of sum of eigenvalues  : -.1093E+01 eV
  | Change of total energy        : 0.1556E-02 eV

  End self-consistency iteration #     6       :  max(cpu_time)    wall_clock(cpu1)
  | Time for this iteration                    :        3.952 s           3.952 s
  | Charge density update                      :        1.300 s           1.299 s
  | Density mixing                             :        0.015 s           0.015 s
  | Hartree multipole update                   :        0.007 s           0.007 s
  | Hartree multipole summation                :        0.625 s           0.625 s
  | Integration                                :        1.885 s           1.886 s
  | Solution of K.-S. eqns.                    :        0.119 s           0.118 s
  | Total energy evaluation                    :        0.000 s           0.001 s
------------------------------------------------------------

------------------------------------------------------------
          Begin self-consistency iteration #    7

  Date     :  20150727, Time     :  113607.044
------------------------------------------------------------
  Evaluating new KS density.
  Integration grid: deviation in total charge (<rho> - N_e) =   1.421085E-14
  Pulay mixing of updated and previous charge densities.

  Evaluating partitioned Hartree potential by multipole expansion.
  | Analytical far-field extrapolation by fixed multipoles:
  | Hartree multipole sum: apparent total charge =  -0.558958E-05
  Summing up the Hartree potential.
  Time summed over all CPUs for potential: real work        4.977 s, elapsed        4.993 s
  | RMS charge density error from multipole expansion :   0.211330E-01

  Integrating Hamiltonian matrix: batch-based integration.
  Time summed over all CPUs for integration: real work       14.880 s, elapsed       15.051 s

  Updating Kohn-Sham eigenvalues, eigenvectors, occupation numbers, and Fermi level.
  Solving generalized eigenproblem
  Updating Kohn-Sham eigenvalues and eigenfunctions.
  Solving real generalised eigenvalue problem by standard LAPACK (fast)
  Determining occupation numbers for Kohn-Sham eigenstates.
  | Chemical potential (Fermi level) in eV                 : -.30447532E+01
  | Error in electron count due to remaining E_F inaccuracy: 0.00000000E+00
  | Maximum occupation number of highest empty state:  0.00E+00

  Highest occupied state (VBM) at     -3.32808266 eV
  | Occupation number:      2.00000000

  Lowest unoccupied state (CBM) at    -2.24432380 eV
  | Occupation number:      0.00000000

  Overall HOMO-LUMO gap:      1.08375886 eV.

  Total energy components:
  | Sum of eigenvalues            :        -290.03016670 Ha       -7892.12238273 eV
  | XC energy correction          :         -65.25156396 Ha       -1775.58539605 eV
  | XC potential correction       :          83.41725227 Ha        2269.89892556 eV
  | Free-atom electrostatic energy:        -250.36939805 Ha       -6812.89795736 eV
  | Hartree energy correction     :         -13.59894366 Ha        -370.04608482 eV
  | van der Waals energy corr.    :           0.00000000 Ha           0.00000000 eV
  | Entropy correction            :           0.00000000 Ha           0.00000000 eV
  | ---------------------------
  | Total energy                  :        -535.83282010 Ha      -14580.75289540 eV
  | Total energy, T -> 0          :        -535.83282010 Ha      -14580.75289540 eV  <-- do not rely on this value for anything but (periodic) metals
  | Electronic free energy        :        -535.83282010 Ha      -14580.75289540 eV

  Derived energy quantities:
  | Kinetic energy                :         534.50417188 Ha       14544.59853794 eV
  | Electrostatic energy          :       -1005.08542802 Ha      -27349.76603729 eV
  | Energy correction for multipole
  | error in Hartree potential    :          -0.01041887 Ha          -0.28351198 eV
  | Sum of eigenvalues per atom                           :        -375.81535156 eV
  | Total energy (T->0) per atom                          :        -694.32156645 eV  <-- do not rely on this value for anything but (periodic) metals
  | Electronic free energy per atom                       :        -694.32156645 eV

  Self-consistency convergence accuracy:
  | Change of charge density      : 0.1252E-01
  | Change of sum of eigenvalues  : -.5257E+01 eV
  | Change of total energy        : 0.3742E-02 eV

  End self-consistency iteration #     7       :  max(cpu_time)    wall_clock(cpu1)
  | Time for this iteration                    :        3.958 s           3.958 s
  | Charge density update                      :        1.304 s           1.303 s
  | Density mixing                             :        0.017 s           0.017 s
  | Hartree multipole update                   :        0.007 s           0.007 s
  | Hartree multipole summation                :        0.625 s           0.625 s
  | Integration                                :        1.885 s           1.885 s
  | Solution of K.-S. eqns.                    :        0.118 s           0.119 s
  | Total energy evaluation                    :        0.000 s           0.000 s
------------------------------------------------------------

------------------------------------------------------------
          Begin self-consistency iteration #    8

  Date     :  20150727, Time     :  113611.002
------------------------------------------------------------
  Evaluating new KS density.
  Integration grid: deviation in total charge (<rho> - N_e) =   4.263256E-14
  Pulay mixing of updated and previous charge densities.

  Evaluating partitioned Hartree potential by multipole expansion.
  | Analytical far-field extrapolation by fixed multipoles:
  | Hartree multipole sum: apparent total charge =  -0.559244E-05
  Summing up the Hartree potential.
  Time summed over all CPUs for potential: real work        4.977 s, elapsed        4.989 s
  | RMS charge density error from multipole expansion :   0.212082E-01

  Integrating Hamiltonian matrix: batch-based integration.
  Time summed over all CPUs for integration: real work       14.880 s, elapsed       15.053 s

  Updating Kohn-Sham eigenvalues, eigenvectors, occupation numbers, and Fermi level.
  Solving generalized eigenproblem
  Updating Kohn-Sham eigenvalues and eigenfunctions.
  Solving real generalised eigenvalue problem by standard LAPACK (fast)
  Determining occupation numbers for Kohn-Sham eigenstates.
  | Chemical potential (Fermi level) in eV                 : -.30380385E+01
  | Error in electron count due to remaining E_F inaccuracy: 0.00000000E+00
  | Maximum occupation number of highest empty state:  0.00E+00

  Highest occupied state (VBM) at     -3.29501681 eV
  | Occupation number:      2.00000000

  Lowest unoccupied state (CBM) at    -2.24572040 eV
  | Occupation number:      0.00000000

  Overall HOMO-LUMO gap:      1.04929641 eV.

  Total energy components:
  | Sum of eigenvalues            :        -289.99950398 Ha       -7891.28800751 eV
  | XC energy correction          :         -65.25452486 Ha       -1775.66596635 eV
  | XC potential correction       :          83.42107927 Ha        2270.00306350 eV
  | Free-atom electrostatic energy:        -250.36939805 Ha       -6812.89795736 eV
  | Hartree energy correction     :         -13.63047220 Ha        -370.90401987 eV
  | van der Waals energy corr.    :           0.00000000 Ha           0.00000000 eV
[...]
  Timings for vdw_correction_hirshfeld (Tkatchenko-Scheffler 2009):
  | CPU time:       10.801 s, Wall clock time:       10.806 s.
  Removing unitary transformations (pure translations, rotations) from forces on atoms.
  Atomic forces before filtering:
  | Net force on center of mass :  0.120363E-01 0.323314E-02 0.722736E-02 eV/A
  | Net torque on center of mass:  -.151022E-01 0.743995E-02 -.105448E-01 eV
  Atomic forces after filtering:
  | Net force on center of mass :  0.356812E-15 0.178406E-15 -.892031E-15 eV/A
  | Net torque on center of mass:  -.188817E-15 -.415397E-14 0.377634E-15 eV
 
  Energy and forces in a compact form:
  | Total energy uncorrected      :         -0.145808810684857E+05 eV
  | Total energy corrected        :         -0.145808810684857E+05 eV  <-- do not rely on this value for anything but (periodic) metals
  | Electronic free energy        :         -0.145808810684857E+05 eV
  Total atomic forces (unitary forces cleaned) [eV/Ang]:
  |   1         -0.270256559455693E+00          0.264238299269460E+01         -0.186467157927194E+01
  |   2          0.190805585816149E+01         -0.331798706477829E+01          0.130230897158732E+01
  |   3         -0.230497715004145E+01         -0.724181374125449E+00         -0.211877036308597E+00
  |   4         -0.691365492538455E+00         -0.209505898029650E+01         -0.484948347864315E+00
  |   5         -0.248849565789181E+00          0.886582905604792E+00          0.107523718625861E+01
  |   6          0.625438415268222E+00          0.730980568587808E+00          0.191122328616809E+00
  |   7         -0.151870782633044E+00          0.884747097525244E+00          0.214474438892084E+01
  |   8         -0.335447368481351E+00         -0.407580634086094E+00         -0.250129623796677E+00
  |   9         -0.290716980413685E+00          0.335395162479779E+00         -0.239343635365863E+01
  |  10          0.310953017042977E+01          0.570581084611308E+00          0.142812543048050E+01
  |  11         -0.141936981925841E+00         -0.104723132125328E+01         -0.104170436473655E+01
  |  12         -0.149965862032079E+01          0.962004646175247E+00         -0.263313319716727E+00
  |  13         -0.230744344317715E+00          0.106673838187328E+01          0.227344919398763E+01
  |  14         -0.310705211417970E+00          0.219489620403867E+00         -0.222237677190217E+01
  |  15          0.105839810737392E+01         -0.123751362026160E+01          0.317190202715114E+00
  |  16          0.136715605240528E+01          0.162994492128279E+01         -0.531791152216438E+00
  |  17         -0.412883584296616E+00         -0.113042983172513E+00         -0.204899881669529E-01
  |  18         -0.722252196943658E+00         -0.131182163866070E+01          0.607990630148355E+00
  |  19          0.683836223452457E+00          0.589925452143332E+00         -0.152889516086910E+01
  |  20         -0.369228393005247E+00          0.514971296911380E+00          0.414919414820894E+00
  |  21         -0.771521595510445E+00         -0.779326513659010E+00          0.105854595097202E+01
 
  ------------------------------------ 
  Start decomposition of the XC Energy 
  ------------------------------------ 
  Hartree-Fock part   :          0.000000000 Ha              0.000000000 eV
  ------------------------------------ 
  X Energy            :        -62.951950306 Ha          -1713.009724789 eV
  C Energy GGA        :         -2.301009720 Ha            -62.613660236 eV
  Total XC Energy     :        -65.252960026 Ha          -1775.623385025 eV
  LDA X and C from self-consistent density 
  X Energy LDA        :        -56.757564591 Ha          -1544.451913380 eV
  C Energy LDA        :         -4.623646435 Ha           -125.815820929 eV
  ------------------------------------ 
  End decomposition of the XC Energy 
  ------------------------------------ 
  Performing Hirshfeld analysis of fragment charges and moments.
  ----------------------------------------------------------------------
  | Atom     1: O
  |   Hirshfeld charge        :     -0.39967248
  |   Free atom volume        :     23.95238533
  |   Hirshfeld volume        :     24.61971985
  |   Hirshfeld dipole vector :      0.02022699       0.06626509       0.03466201
  |   Hirshfeld dipole moment :      0.07747030
  |   Hirshfeld second moments:     -0.01016374      -0.02074407       0.01501792
  |                                 -0.02074407      -0.07527721      -0.03452476
  |                                  0.01501792      -0.03452476      -0.09746044
  ----------------------------------------------------------------------
  | Atom     2: H
  |   Hirshfeld charge        :      0.05089211
  |   Free atom volume        :     10.44207651
  |   Hirshfeld volume        :      8.85947805
  |   Hirshfeld dipole vector :     -0.02407791       0.04272529      -0.00622726
  |   Hirshfeld dipole moment :      0.04943658
  |   Hirshfeld second moments:      0.05986744       0.02777920       0.00293740
  |                                  0.02777920       0.01600982       0.00587161
  |                                  0.00293740       0.00587161       0.05347626
  ----------------------------------------------------------------------
  | Atom     3: H
  |   Hirshfeld charge        :      0.03837894
  |   Free atom volume        :     10.44207651
  |   Hirshfeld volume        :      8.97724192
  |   Hirshfeld dipole vector :      0.04930570       0.01544615       0.01984735
  |   Hirshfeld dipole moment :      0.05534937
  |   Hirshfeld second moments:      0.01992862      -0.02795837      -0.00172424
  |                                 -0.02795837       0.05834107      -0.00672879
  |                                 -0.00172424      -0.00672879       0.04322554
  ----------------------------------------------------------------------
  | Atom     4: O
  |   Hirshfeld charge        :     -0.31585883
  |   Free atom volume        :     23.95238533
  |   Hirshfeld volume        :     22.70308916
  |   Hirshfeld dipole vector :     -0.03288967       0.02815909       0.01319834
  |   Hirshfeld dipole moment :      0.04526435
  |   Hirshfeld second moments:      0.01072598       0.05521071      -0.01163403
  |                                  0.05521071       0.00288006       0.01767502
  |                                 -0.01163403       0.01767502      -0.01950110
  ----------------------------------------------------------------------
  | Atom     5: H
  |   Hirshfeld charge        :      0.06553755
  |   Free atom volume        :     10.44207651
  |   Hirshfeld volume        :      8.35504895
  |   Hirshfeld dipole vector :      0.01080901       0.04066962       0.02837539
  |   Hirshfeld dipole moment :      0.05075446
  |   Hirshfeld second moments:      0.07597524      -0.00032445      -0.01197237
  |                                 -0.00032445       0.02876628      -0.01831858
  |                                 -0.01197237      -0.01831858       0.06352687
  ----------------------------------------------------------------------
  | Atom     6: H
  |   Hirshfeld charge        :      0.11640818
  |   Free atom volume        :     10.44207651
  |   Hirshfeld volume        :      7.17808084
  |   Hirshfeld dipole vector :     -0.10177088      -0.05800042       0.01841356
  |   Hirshfeld dipole moment :      0.11857664
  |   Hirshfeld second moments:      0.08675981       0.01489466      -0.00040724
  |                                  0.01489466       0.10122759       0.01221012
  |                                 -0.00040724       0.01221012       0.08931676
  ----------------------------------------------------------------------
  | Atom     7: O
  |   Hirshfeld charge        :     -0.19955403
  |   Free atom volume        :     23.95238533
  |   Hirshfeld volume        :     20.56299599
  |   Hirshfeld dipole vector :      0.02992976      -0.01567500      -0.01341121
  |   Hirshfeld dipole moment :      0.03635047
  |   Hirshfeld second moments:      0.03327915       0.01418164       0.02645773
  |                                  0.01418164       0.07312765       0.00583863
  |                                  0.02645773       0.00583863       0.09882944
  ----------------------------------------------------------------------
  | Atom     8: H
  |   Hirshfeld charge        :      0.11370774
  |   Free atom volume        :     10.44207651
  |   Hirshfeld volume        :      7.28489719
  |   Hirshfeld dipole vector :      0.02939353       0.04118938       0.01243733
  |   Hirshfeld dipole moment :      0.05210789
  |   Hirshfeld second moments:      0.08153894      -0.01956114      -0.00620625
  |                                 -0.01956114       0.07265788      -0.02595760
  |                                 -0.00620625      -0.02595760       0.10360994
  ----------------------------------------------------------------------
  | Atom     9: H
  |   Hirshfeld charge        :      0.15762524
  |   Free atom volume        :     10.44207651
  |   Hirshfeld volume        :      6.13185179
  |   Hirshfeld dipole vector :     -0.01791574       0.00748985      -0.11793790
  |   Hirshfeld dipole moment :      0.11952581
  |   Hirshfeld second moments:      0.11544818       0.01046863       0.00842641
  |                                  0.01046863       0.12864288       0.00209149
  |                                  0.00842641       0.00209149       0.12121728
  ----------------------------------------------------------------------
  | Atom    10: O
  |   Hirshfeld charge        :     -0.18657848
  |   Free atom volume        :     23.95238533
  |   Hirshfeld volume        :     20.74520487
  |   Hirshfeld dipole vector :     -0.02178818      -0.03551829       0.03401088
  |   Hirshfeld dipole moment :      0.05378675
  |   Hirshfeld second moments:      0.06544579      -0.02941765       0.00631703
  |                                 -0.02941765       0.07410717       0.03839579
  |                                  0.00631703       0.03839579       0.04259957
  ----------------------------------------------------------------------
  | Atom    11: H
  |   Hirshfeld charge        :      0.15639479
  |   Free atom volume        :     10.44207651
  |   Hirshfeld volume        :      6.50694922
  |   Hirshfeld dipole vector :      0.00169269       0.06497341       0.08785083
  |   Hirshfeld dipole moment :      0.10928028
  |   Hirshfeld second moments:      0.12142918      -0.00926924       0.01004830
  |                                 -0.00926924       0.12098416      -0.00143083
  |                                  0.01004830      -0.00143083       0.09642821
  ----------------------------------------------------------------------
  | Atom    12: H
  |   Hirshfeld charge        :      0.16884575
  |   Free atom volume        :     10.44207651
  |   Hirshfeld volume        :      5.97838578
  |   Hirshfeld dipole vector :      0.08747575      -0.08100901       0.01374155
  |   Hirshfeld dipole moment :      0.12001373
  |   Hirshfeld second moments:      0.12091068      -0.00013094       0.00019574
  |                                 -0.00013094       0.12530983       0.01582874
  |                                  0.00019574       0.01582874       0.12779916
  ----------------------------------------------------------------------
  | Atom    13: O
  |   Hirshfeld charge        :     -0.26734913
  |   Free atom volume        :     23.95238533
  |   Hirshfeld volume        :     21.61850462
  |   Hirshfeld dipole vector :     -0.04996020      -0.02453536       0.01007497
  |   Hirshfeld dipole moment :      0.05656422
  |   Hirshfeld second moments:     -0.00573388      -0.02715176       0.02353338
  |                                 -0.02715176       0.02408578      -0.00365637
  |                                  0.02353338      -0.00365637       0.06420092
  ----------------------------------------------------------------------
  | Atom    14: H
  |   Hirshfeld charge        :      0.13910696
  |   Free atom volume        :     10.44207651
  |   Hirshfeld volume        :      6.44940950
  |   Hirshfeld dipole vector :      0.01105207      -0.01916087       0.11675466
  |   Hirshfeld dipole moment :      0.11883155
  |   Hirshfeld second moments:      0.10946471      -0.01322358       0.00684065
  |                                 -0.01322358       0.11099543       0.00263415
  |                                  0.00684065       0.00263415       0.10873599
  ----------------------------------------------------------------------
  | Atom    15: H
  |   Hirshfeld charge        :      0.08695960
  |   Free atom volume        :     10.44207651
  |   Hirshfeld volume        :      7.73112841
  |   Hirshfeld dipole vector :     -0.03445322       0.02201460       0.00258168
  |   Hirshfeld dipole moment :      0.04096745
  |   Hirshfeld second moments:      0.04896698       0.02151471      -0.01718976
  |                                  0.02151471       0.05956642       0.01251519
  |                                 -0.01718976       0.01251519       0.10192051
  ----------------------------------------------------------------------
  | Atom    16: O
  |   Hirshfeld charge        :     -0.16037997
  |   Free atom volume        :     23.95238533
  |   Hirshfeld volume        :     19.47001993
  |   Hirshfeld dipole vector :      0.00001645      -0.01403002       0.00058042
  |   Hirshfeld dipole moment :      0.01404203
  |   Hirshfeld second moments:      0.09742519      -0.00503074       0.00765711
  |                                 -0.00503074       0.11170725      -0.02659156
  |                                  0.00765711      -0.02659156       0.07823487
  ----------------------------------------------------------------------
  | Atom    17: H
  |   Hirshfeld charge        :      0.18075233
  |   Free atom volume        :     10.44207651
  |   Hirshfeld volume        :      6.08173488
  |   Hirshfeld dipole vector :      0.09347819      -0.04380362       0.03394544
  |   Hirshfeld dipole moment :      0.10867024
  |   Hirshfeld second moments:      0.12778126       0.01149710      -0.00376999
  |                                  0.01149710       0.13209947      -0.00130871
  |                                 -0.00376999      -0.00130871       0.11734159
  ----------------------------------------------------------------------
  | Atom    18: H
  |   Hirshfeld charge        :      0.18519375
  |   Free atom volume        :     10.44207651
  |   Hirshfeld volume        :      5.25718872
  |   Hirshfeld dipole vector :      0.03356600       0.10205613      -0.05282916
  |   Hirshfeld dipole moment :      0.11972072
  |   Hirshfeld second moments:      0.15022056      -0.00742438       0.00641645
  |                                 -0.00742438       0.13609817      -0.00184057
  |                                  0.00641645      -0.00184057       0.13603521
  ----------------------------------------------------------------------
  | Atom    19: O
  |   Hirshfeld charge        :     -0.21151758
  |   Free atom volume        :     23.95238533
  |   Hirshfeld volume        :     20.53375969
  |   Hirshfeld dipole vector :      0.01868240       0.00913589       0.01165510
  |   Hirshfeld dipole moment :      0.02383984
  |   Hirshfeld second moments:      0.04805938      -0.02653812      -0.03404526
  |                                 -0.02653812       0.06634185      -0.00241032
  |                                 -0.03404526      -0.00241032       0.07746814
  ----------------------------------------------------------------------
  | Atom    20: H
  |   Hirshfeld charge        :      0.15934243
  |   Free atom volume        :     10.44207651
  |   Hirshfeld volume        :      5.77061807
  |   Hirshfeld dipole vector :     -0.06118610       0.08183114       0.06601636
  |   Hirshfeld dipole moment :      0.12164800
  |   Hirshfeld second moments:      0.12284482      -0.00117082      -0.00846925
  |                                 -0.00117082       0.12653603      -0.01117023
  |                                 -0.00846925      -0.01117023       0.13272733
  ----------------------------------------------------------------------
  | Atom    21: H
  |   Hirshfeld charge        :      0.12172138
  |   Free atom volume        :     10.44207651
  |   Hirshfeld volume        :      7.14163036
  |   Hirshfeld dipole vector :      0.01920627       0.03765322      -0.03917189
  |   Hirshfeld dipole moment :      0.05762884
  |   Hirshfeld second moments:      0.08460030      -0.01823804       0.01930088
  |                                 -0.01823804       0.11298220       0.01211219
  |                                  0.01930088       0.01211219       0.06903705
  ----------------------------------------------------------------------


------------------------------------------------------------------------------
  Final output of selected total energy values:

  The following output summarizes some interesting total energy values
  at the end of a run (AFTER all relaxation, molecular dynamics, etc.).

  | Total energy of the DFT / Hartree-Fock s.c.f. calculation      :         -14580.881068486 eV
  | Final zero-broadening corrected energy (caution - metals only) :         -14580.881068486 eV
  | For reference only, the value of 1 Hartree used in FHI-aims is :             27.211384500 eV

  Before relying on these values, please be sure to understand exactly which
  total energy value is referred to by a given number. Different objects may
  all carry the same name 'total energy'. Definitions:

  Total energy of the DFT / Hartree-Fock s.c.f. calculation:
  | Note that this energy does not include ANY quantities calculated after the
  | s.c.f. cycle, in particular not ANY RPA, MP2, etc. many-body perturbation terms.

  Final zero-broadening corrected energy:
  | For metallic systems only, a broadening of the occupation numbers at the Fermi
  | level can be extrapolated back to zero broadening by an electron-gas inspired
  | formula. For all systems that are not real metals, this value can be
  | meaningless and should be avoided.

------------------------------------------------------------------------------

------------------------------------------------------------
          Leaving FHI-aims.
          Date     :  20150727, Time     :  113654.836

          Computational steps:
          | Number of self-consistency cycles          :           16

          Detailed time accounting                     :  max(cpu_time)    wall_clock(cpu1)
          | Total time                                 :       76.059 s          76.100 s
          | Preparation time                           :        0.174 s           0.548 s
          | Grid partitioning                          :        0.209 s           0.210 s
          | Preloading free-atom quantities on grid    :        0.013 s           0.013 s
          | Free-atom superposition energy             :        0.118 s           0.118 s
          | Total time for integrations                :       33.132 s          33.135 s
          | Total time for solution of K.-S. equations :        2.366 s           2.367 s
          | Total time for density & force components  :       26.611 s          26.604 s
          | Total time for mixing                      :        0.292 s           0.293 s
          | Total time for Hartree multipole update    :        0.111 s           0.112 s
          | Total time for Hartree multipole sum       :       12.088 s          12.088 s
          | Total time for total energy evaluation     :        0.008 s           0.021 s
          | Total time for scaled ZORA corrections     :        0.000 s           0.000 s
          | Total time for TS (2009) vdW correction    :        0.103 s           0.108 s

          Have a nice day.
------------------------------------------------------------
