  MPI-parallelism will be employed.
------------------------------------------------------------
          Invoking FHI-aims ...
          Version 081213
          Compiled on 2013/08/29 at 17:41:06 on host generoso.

          When using FHI-aims, please cite the following reference:

          Volker Blum, Ralf Gehrke, Felix Hanke, Paula Havu,
          Ville Havu, Xinguo Ren, Karsten Reuter, and Matthias Scheffler,
          'Ab Initio Molecular Simulations with Numeric Atom-Centered Orbitals: FHI-aims',
          Computer Physics Communications 180, 2175-2196 (2009)

          For any questions about FHI-aims, please visit the aimsclub website
          with its forums and wiki. Contributions to both the forums and the
          wiki are warmly encouraged - they are for you, and everyone is welcome there.

------------------------------------------------------------

  Date     :  20150727, Time     :  120227.016
  Time zero on CPU 1             :   0.449920000000000E-01  s.
  Internal wall clock time zero  :           207230547.016  s.

  Using        8 parallel tasks.
  Task        0 on host gen60 reporting.
  Task        1 on host gen60 reporting.
  Task        2 on host gen60 reporting.
  Task        3 on host gen60 reporting.
  Task        4 on host gen60 reporting.
  Task        5 on host gen60 reporting.
  Task        6 on host gen60 reporting.
  Task        7 on host gen60 reporting.

  Performing system and environment tests:
  | Environment variable OMP_NUM_THREADS correctly set to 1.
  | Checking for scalapack...
  | No scalapack compiled in.

  Obtaining array dimensions for all initial allocations:
  
  -----------------------------------------------------------------------
  Parsing control.in (first pass over file, find array dimensions only).
  The contents of control.in will be repeated verbatim below
  unless switched off by setting 'verbatim_writeout .false.' .
  in the first line of control.in .
  -----------------------------------------------------------------------
  
  #########################################################################################
  #
  #  Volker Blum, FHI 2008 : Test run input file control.in
  #
  #########################################################################################
  #
  #  Physical model
  #
    xc                 rpbe
    spin               none
    relativistic       atomic_zora scalar
    charge             0.
   vdw_correction_hirshfeld
  #
  #  SCF convergence
  #
    occupation_type    gaussian 0.01
    mixer              pulay
      n_max_pulay        10
      charge_mix_param   0.1
    sc_accuracy_rho    5E-5
    sc_accuracy_eev    5E-3
    sc_accuracy_etot   5E-6
    sc_iter_limit      3000
  #
  #  Eigenvalue solver
  #
    KS_method          lapack
      empty_states       8
      basis_threshold    0.e-5
  #
  #  Efficiency
  #
  #   all previous settings are now default, except stratmann still
  #   undecided. Continue to handle stratmann with care, if at all.
  #
  #  partition_type stratmann
    partition_type rho_r2
  #  hartree_partition_type stratmann
  #
  #  Oprions for large clusters (100's of atoms: memory saving / better scaling)
  #
  # for periodic systems:
  #
    density_update_method orbital
    packed_matrix_format none
  #  k_grid 6 6 6
  #  output k_eigenvalue 1
  #  distributed_spline_storage .true.
  #
  #  Relaxation
  #
  #  relax_geometry   bfgs 5.e-3
    sc_accuracy_forces 5.E-4
    final_forces_cleaned .true.
  #
  #  Output options
  #
  #  output mulliken
    output Hirshfeld
  #  output dipole
  
  #harmonic_length_scale 0.001
  
  ################################################################################
  #
  #  FHI-aims code project
  #  VB, Fritz-Haber Institut, 2007
  #
  #  Suggested "safe" defaults for H atom (to be pasted into control.in file)
  #  Basis constructed for a non-relativistic H2 molecule using the
  #  PW-LDA functional.
  #
  ################################################################################
    species        H
  #     global species definitions
      nucleus             1
      cut_pot             4.0  2.0  1.0
      cut_free_atom       finite 8.0
      logarithmic         0.00010000 100.00  1.0123
      basis_dep_cutoff    1d-4  # 1d-4 is safe default - please check 5d-4 if you wish!
      radial_base         24 7.0
      radial_multiplier   2
      angular_grids       specified
        division   0.2783  110
        division   0.3822  194
        division   0.5626  302
  #      division   0.5922  434
  #      division   0.6227  590
  #      division   0.7206  770
        outer_grid  302
      l_hartree           4
  ################################################################################
  #
  #  Definition of "minimal" basis
  #
  ################################################################################
  #     valence basis states
      valence      1  s   1.
  #     ion occupancy
      ion_occ      1  s   0.5
  ################################################################################
  #
  #  Suggested additional basis functions. For production calculations,
  #  uncomment them one after another (the most important basis functions are
  #  listed first).
  #
  ################################################################################
  #  "First tier" - improvements: -1014.90 meV to -62.69 meV
       hydro 2 s 2.1
       hydro 2 p 3.5
  #  "Second tier" - improvements: -12.89 meV to -1.83 meV
       hydro 1 s 0.85
       hydro 2 p 3.7
       hydro 2 s 1.2
       hydro 3 d 7
  #  "Third tier" - improvements: -0.25 meV to -0.12 meV
  #     hydro 4 f 11.2
  #     hydro 3 p 4.8
  #     hydro 4 d 9
  #     hydro 3 s 3.2
  
  ################################################################################
  #
  #  FHI-aims code project
  #  VB, Fritz-Haber Institut, 2007
  #
  #  Suggested "safe" defaults for O atom (to be pasted into control.in file)
  #  All values have been tested for a non-relativistic, non-spinpolarized O2
  #  molecule using the PW-LDA functional. Validity for PBE is expected.
  #
  #  Constructed for dimers: 1.0 A, 1.208 A, 1.5 A, 2.0 A, 3.0 A
  #
  ################################################################################
    species        O
  #     global species definitions
      nucleus             8
      mass                15.9994
      l_hartree           4
      cut_pot             4.0  2.0  1.0
      cut_free_atom       finite 8.0
      basis_dep_cutoff    1d-4  # 1d-4 is safe default - please check 5d-4 if you wish!
      logarithmic         0.00010000 100.00  1.0123
      radial_base         36 7.0
      radial_multiplier   2
       angular_grids specified
        division   0.4087  110
        division   0.5181  194
        division   0.6184  302
  #      division   0.7315  434
  #      division   0.7934  590
  #      division   0.9656  770
  #      division   1.4041  974
  #      outer_grid 974
        outer_grid 302
  ################################################################################
  #
  #  Definition of "minimal" basis
  #
  ################################################################################
  #     valence basis states
      valence      2  s   2.
      valence      2  p   4.
  #     ion occupancy
      ion_occ      2  s   1.
      ion_occ      2  p   3.
  ################################################################################
  #
  #  Suggested additional basis functions. For production calculations,
  #  uncomment them one after another (the most important basis functions are
  #  listed first).
  #
  ################################################################################
  #  "First tier" - improvements: -699.05 meV to -159.38 meV
       hydro 2 p 1.8
       hydro 3 d 7.6
       hydro 3 s 6.4
  #  "Second tier" - improvements: -49.91 meV to -5.39 meV
       hydro 4 f 11.6
       hydro 3 p 6.2
       hydro 3 d 5.6
       hydro 5 g 17.6
       hydro 1 s 0.75
  #  "Third tier" - improvements: -2.83 meV to -0.50 meV
  #     ionic 2 p auto
  #     hydro 4 f 10.8
  #     hydro 4 d 4.7
  #     hydro 2 s 6.8
  #  "Fourth tier" - improvements: -0.40 meV to -0.12 meV
  #     hydro 3 p 5
  #     hydro 3 s 3.3
  #     hydro 5 g 15.6
  #     hydro 4 f 17.6
  #     hydro 4 d 14
  # Further basis functions - -0.08 meV and below
  #     hydro 3 s 2.1
  #     hydro 4 d 11.6
  #     hydro 3 p 16
  #     hydro 2 s 17.2
  
  
  -----------------------------------------------------------------------
  Completed first pass over input file control.in .
  -----------------------------------------------------------------------
  
  
  -----------------------------------------------------------------------
  Parsing geometry.in (first pass over file, find array dimensions only).
  The contents of geometry.in will be repeated verbatim below
  unless switched off by setting 'verbatim_writeout .false.' .
  in the first line of geometry.in .
  -----------------------------------------------------------------------
  
  atom      -4.053030000      0.065001000     -1.525160000  O
  atom      -4.566710000      0.974813000     -1.912820000  H
  atom      -3.067820000      0.330172000     -1.477310000  H
  atom      -4.581760000     -0.256435000      0.939478000  O
  atom      -4.349860000      0.471090000      1.504340000  H
  atom      -5.393870000     -0.726611000      1.228070000  H
  atom      -1.645860000      0.870179000     -1.502250000  O
  atom      -1.568890000      1.501730000     -0.721051000  H
  atom      -0.824432000      0.282220000     -1.377720000  H
  atom      -3.818880000      2.024990000      2.187990000  O
  atom      -3.690880000      1.961360000      3.202150000  H
  atom      -4.546490000      2.751300000      2.045370000  H
  
  -----------------------------------------------------------------------
  Completed first pass over input file geometry.in .
  -----------------------------------------------------------------------
  
 
  Basic array size parameters: 
  | Number of species                 :        2
  | Number of atoms                   :       12
  | Max. basis fn. angular momentum   :        4
  | Max. atomic/ionic basis occupied n:        2
  | Max. number of basis fn. types    :        2
  | Max. radial fns per species/type  :        8
  | Max. logarithmic grid size        :     1301
  | Max. radial integration grid size :       73
  | Max. angular integration grid size:      302
  | Max. angular grid division number :        8
  | Radial grid for Hartree potential :     1301
  | Number of spin channels           :        1

------------------------------------------------------------
          Reading file control.in.
------------------------------------------------------------
  XC: Using RPBE gradient-corrected functionals.
  Spin treatment: No spin polarisation.
  Scalar relativistic treatment of kinetic energy: on-site free-atom approximation to ZORA.
  Charge =   0.000000E+00: Neutral system requested explicitly.
  Using non-empirical van der Waals correction (Hirshfeld partitioning):
  Occupation type: Gaussian broadening, width =   0.100000E-01 eV.
  Using pulay charge density mixing.
  Pulay mixing - number of memorized iterations:   10
  Charge density mixing - mixing parameter:     0.1000
  Convergence accuracy of self-consistent charge density: 0.5000E-04
  Convergence accuracy of sum of eigenvalues: 0.5000E-02
  Convergence accuracy of total energy: 0.5000E-05
  Maximum number of s.-c. iterations  :  3000
  Kohn-Sham eigenvalues and eigenfunctions calculated by lapack diagonalisation (D&C).
  Number of empty states per atom:        8
  Threshold for basis singularities: 0.0000E+00
  Partition function in integrals calculations: rho / r^2
 Using packed matrix format           0
  Convergence accuracy of forces: 0.5000E-03
  Cleaning forces before final output.
  Hirshfeld charge analysis will be performed.
 
  Reading configuration options for species H                   .
  | Found nuclear charge :   1.0000
  | Found cutoff potl. onset [A], width [A], scale factor :    4.00000    2.00000    1.00000
  | Found cutoff specification for free atom: Cutoff potential begins at    8.00000 A.
  | Found logarithmic grid data [bohr] : 0.1000E-03 0.1000E+03 0.1012E+01
  | Threshold for basis-dependent cutoff potential is   0.100000E-03
  | Found data for basic radial integration grid :    24 points, outermost radius =    7.000 A
  | Found multiplier for basic radial grid :   2
  | Found angular grid specification: user-specified.
  | Specified grid contains     4 separate shells.
  | Check grid settings after all constraints further below.
  | Found l_max for Hartree potential  :   4
  | Found free-atom valence shell :  1 s   1.000
  | No ionic wave fns used. Skipping ion_occ.
  | Found hydrogenic basis function :  2 s   2.100
  | Found hydrogenic basis function :  2 p   3.500
  | Found hydrogenic basis function :  1 s   0.850
  | Found hydrogenic basis function :  2 p   3.700
  | Found hydrogenic basis function :  2 s   1.200
  | Found hydrogenic basis function :  3 d   7.000
  Species H                   : Missing cutoff potential type.
  Defaulting to exp(1/x)/(1-x)^2 type cutoff potential.
  Species H : On-site basis accuracy parameter (for Gram-Schmidt orthonormalisation) not specified.
  Using default value basis_acc =  0.1000000E-03.
  Species H                   : Using default innermost maximum threshold i_radial=  2 for radial functions.
  Species H                   : Basic radial grid will be enhanced according to radial_multiplier =   2, to contain    49 grid points.
 
  Reading configuration options for species O                   .
  | Found nuclear charge :   8.0000
  | Found atomic mass :    15.9994000000000      amu
  | Found l_max for Hartree potential  :   4
  | Found cutoff potl. onset [A], width [A], scale factor :    4.00000    2.00000    1.00000
  | Found cutoff specification for free atom: Cutoff potential begins at    8.00000 A.
  | Threshold for basis-dependent cutoff potential is   0.100000E-03
  | Found logarithmic grid data [bohr] : 0.1000E-03 0.1000E+03 0.1012E+01
  | Found data for basic radial integration grid :    36 points, outermost radius =    7.000 A
  | Found multiplier for basic radial grid :   2
  | Found angular grid specification: user-specified.
  | Specified grid contains     4 separate shells.
  | Check grid settings after all constraints further below.
  | Found free-atom valence shell :  2 s   2.000
  | Found free-atom valence shell :  2 p   4.000
  | No ionic wave fns used. Skipping ion_occ.
  | No ionic wave fns used. Skipping ion_occ.
  | Found hydrogenic basis function :  2 p   1.800
  | Found hydrogenic basis function :  3 d   7.600
  | Found hydrogenic basis function :  3 s   6.400
  | Found hydrogenic basis function :  4 f  11.600
  | Found hydrogenic basis function :  3 p   6.200
  | Found hydrogenic basis function :  3 d   5.600
  | Found hydrogenic basis function :  5 g  17.600
  | Found hydrogenic basis function :  1 s   0.750
  Species O                   : Missing cutoff potential type.
  Defaulting to exp(1/x)/(1-x)^2 type cutoff potential.
  Species O : On-site basis accuracy parameter (for Gram-Schmidt orthonormalisation) not specified.
  Using default value basis_acc =  0.1000000E-03.
  Species O                   : Using default innermost maximum threshold i_radial=  2 for radial functions.
  Species O                   : Basic radial grid will be enhanced according to radial_multiplier =   2, to contain    73 grid points.
 
  Finished reading input file 'control.in'. Consistency checks are next.
 
  Target number of points in a grid batch is not set. Defaulting to  100
  Method for grid partitioning is not set. Defaulting to parallel hash+maxmin partitioning.
  Batch size limit is not set. Defaulting to    200
  By default, will store active basis functions for each batch.
  If in need of memory, prune_basis_once .false. can be used to disable this option.
  communication_type for Hartree potential was not specified.
  Defaulting to calc_hartree .
  Pulay mixer: Number of initial linear mixing iterations not set.
  Defaulting to    0 iterations.
  Work space size for distributed Hartree potential not set.
  Defaulting to   0.200000E+03 MB.
  Algorithm-dependent basis array size parameters:
  | n_max_pulay                         :       10
  Geometry relaxation not requested: no relaxation will be performed.
  Handling of forces: Unphysical translation and rotation will be removed from forces.
  No accuracy limit for integral partition fn. given. Defaulting to 0.1000E-14.
  No threshold value for u(r) in integrations given. Defaulting to 0.1000E-05.
  No accuracy for occupation numbers given. Defaulting to 0.1000E-07.
  No threshold value for occupation numbers given. Defaulting to 0.0000E+00.
  No accuracy for fermi level given. Defaulting to 0.1000E-19.
  Maximum # of iterations to find E_F not set. Defaulting to  200.
  Will not use alltoall communication since running on < 1024 CPUs.
  Partitioning for Hartree potential was not defined. Using partition_type for integrals.
  | Reporting present value of keyword multip_moments_threshold  :       0.10000000E-09
  | This value may affect high angular momentum components of the Hartree potential in periodic systems.
  No q(lm)/r^(l+1) cutoff set for long-range Hartree potential.
  | Using default value of  0.100000E-09 .
  | Verify using the multipole_threshold keyword.
  Defaulting to new monopole extrapolation.
  Density update method: Loop over occupied states selected for charge density update.
------------------------------------------------------------


------------------------------------------------------------
          Reading geometry description geometry.in.
------------------------------------------------------------
  Input structure read successfully.
  The structure contains       12 atoms,  and a total of         40.000 electrons.

  Input geometry:
  | No unit cell requested.
  | Atomic structure:
  |       Atom                x [A]            y [A]            z [A]
  |    1: Species O             -4.053030         0.065001        -1.525160
  |    2: Species H             -4.566710         0.974813        -1.912820
  |    3: Species H             -3.067820         0.330172        -1.477310
  |    4: Species O             -4.581760        -0.256435         0.939478
  |    5: Species H             -4.349860         0.471090         1.504340
  |    6: Species H             -5.393870        -0.726611         1.228070
  |    7: Species O             -1.645860         0.870179        -1.502250
  |    8: Species H             -1.568890         1.501730        -0.721051
  |    9: Species H             -0.824432         0.282220        -1.377720
  |   10: Species O             -3.818880         2.024990         2.187990
  |   11: Species H             -3.690880         1.961360         3.202150
  |   12: Species H             -4.546490         2.751300         2.045370
  |

  | The smallest distance between any two atoms is         0.94981015 AA.
  |
  | The first atom of this pair is atom number                      4 .
  | The second atom of this pair is atom number                     5 .

  Structure-dependent array size parameters: 
  | Maximum number of distinct radial functions  :       18
  | Maximum number of basis functions            :      276
  | Number of Kohn-Sham states (occupied + empty):       68
------------------------------------------------------------

------------------------------------------------------------
          Preparing all fixed parts of the calculation.
------------------------------------------------------------
  Determining machine precision:
    2.225073858507201E-308
  Setting up grids for atomic and cluster calculations.

  Creating wave function, potential, and density for free atoms.

  Species: H

  List of occupied orbitals and eigenvalues:
    n    l              occ      energy [Ha]    energy [eV]
    1    0           1.0000        -0.241408        -6.5691


  Species: O

  List of occupied orbitals and eigenvalues:
    n    l              occ      energy [Ha]    energy [eV]
    1    0           2.0000       -18.944147      -515.4965
    2    0           2.0000        -0.883529       -24.0421
    2    1           4.0000        -0.330176        -8.9845

  Creating fixed part of basis set: Ionic, confined, hydrogenic.
 
  H                    hydrogenic:
 
  List of hydrogenic basis orbitals: 
    n    l      effective z      eigenvalue [eV]  inner max. [A]     outer max. [A]     outer radius [A]   
    2    0         2.100000       -14.9965           0.193241           1.317192           5.372934
    2    1         3.500000       -41.6672           0.602363           0.602363           4.056010
    1    0         0.850000        -9.8292           0.624864           0.624864           5.372934
    2    1         3.700000       -46.5653           0.573616           0.573616           3.909951
    2    0         1.200000        -4.5995           0.334977           2.228160           5.505921
    3    2         7.000000       -74.0753           0.680692           0.680692           3.769152
 
 
  O                    hydrogenic:
 
  List of hydrogenic basis orbitals: 
    n    l      effective z      eigenvalue [eV]  inner max. [A]     outer max. [A]     outer radius [A]   
    2    1         1.800000       -11.0118           1.178546           1.178546           5.432516
    3    2         7.600000       -87.3182           0.624117           0.624117           3.541422
    3    0         6.400000       -61.9209           0.061166           1.081887           4.306510
    4    3        11.600000      -114.4238           0.731621           0.731621           3.584982
    3    1         6.200000       -58.1113           0.255677           1.030255           4.306510
    3    2         5.600000       -47.4081           0.847222           0.847222           4.413102
    5    4        17.600000      -168.5799           0.749730           0.749730           3.372413
    1    0         0.750000        -7.6499           0.705275           0.705275           5.366508
 

  Adding cutoff potential to free-atom effective potential.
  Creating atomic-like basis functions for current effective potential.

  Species H                   :

  List of atomic basis orbitals and eigenvalues:
    n    l      energy [Ha]    energy [eV]    outer radius [A]
    1    0        -0.241374        -6.5681       5.372934


  Species O                   :

  List of atomic basis orbitals and eigenvalues:
    n    l      energy [Ha]    energy [eV]    outer radius [A]
    1    0       -18.944147      -515.4965       1.415745
    2    0        -0.883529       -24.0421       5.048305
    2    1        -0.330173        -8.9845       5.301302

  Assembling full basis from fixed parts.
  | Species H :   atomic orbital   1 s accepted.
  | Species H :    hydro orbital   2 s accepted.
  | Species H :    hydro orbital   1 s accepted.
  | Species H :    hydro orbital   2 s accepted.
  | Species H :    hydro orbital   2 p accepted.
  | Species H :    hydro orbital   2 p accepted.
  | Species H :    hydro orbital   3 d accepted.
  | Species O :   atomic orbital   1 s accepted.
  | Species O :    hydro orbital   3 s accepted.
  | Species O :   atomic orbital   2 s accepted.
  | Species O :    hydro orbital   1 s accepted.
  | Species O :    hydro orbital   3 p accepted.
  | Species O :   atomic orbital   2 p accepted.
  | Species O :    hydro orbital   2 p accepted.
  | Species O :    hydro orbital   3 d accepted.
  | Species O :    hydro orbital   3 d accepted.
  | Species O :    hydro orbital   4 f accepted.
  | Species O :    hydro orbital   5 g accepted.
 
  Basis size parameters after reduction:
  | Total number of radial functions:       18
  | Total number of basis functions :      276
 
  Testing on-site integration grid accuracy.
  |  Species  Function  <phi|h_atom|phi> (log., in eV)  <phi|h_atom|phi> (rad., in eV)
           1        1                 -6.5683835025                 -6.5684759159
           1        2                 13.3711789951                 13.3708738703
           1        3                 23.6590910787                 23.6532055418
           1        4                 16.2963827186                 16.1870710655 ***
           1        5                 28.7627214838                 28.7627215090
           1        6                 59.5965249172                 59.5965950857
           1        7                 60.2220506392                 60.2220503827
           2        8               -515.4964576505               -515.4964530710
           2        9                 15.3030791347                 15.3030722972
           2       10                -21.7296094581                -21.7296135470
           2       11                 14.2969371730                 14.2969701621
           2       12                 21.0679693190                 21.0679697493
           2       13                 -2.3833606469                 -2.3833613176
           2       14                 13.7067136422                 13.7066766629
           2       15                 45.8013116808                 45.8013116965
           2       16                 52.2309815402                 52.2309831494
           2       17                 85.4120732416                 85.4120732763
           2       18                142.1019167745                142.1019167817
 * Note: Onsite integrals marked "***" above are less accurate than
 * onsite_accuracy_threshold =    0.03000 eV. Usually, this is harmless.
 * When in doubt, tighten the "radial" and/or "radial_multiplier" flags to check.

  Preparing densities etc. for the partition functions (integrals / Hartree potential).

  Preparations completed.
  max(cpu_time)          :      0.171 s.
  Wall clock time (cpu1) :      0.584 s.
------------------------------------------------------------

------------------------------------------------------------
          Begin self-consistency loop: Initialization.

          Date     :  20150727, Time     :  120227.630
------------------------------------------------------------

  Initializing index lists of integration centers etc. from given atomic structure:
  | Number of centers in hartree potential         :        12
  | Number of centers in hartree multipole         :        12
  | Number of centers in electron density summation:        12
  | Number of centers in basis integrals           :        12
  | Number of centers in integrals                 :        12
  Partitioning the integration grid into batches with parallel hashing+maxmin method.
  | Number of batches:     1642
  | Maximal batch size:     179
  | Minimal batch size:      51
  | Average batch size:      95.839
  | Standard deviation of batch sizes:      28.133

  Integration load balanced across     8 MPI tasks.
  Work distribution over tasks is as follows:
  Task     0 has      19700 integration points.
  Task     1 has      19694 integration points.
  Task     2 has      19618 integration points.
  Task     3 has      19678 integration points.
  Task     4 has      19686 integration points.
  Task     5 has      19599 integration points.
  Task     6 has      19706 integration points.
  Task     7 has      19687 integration points.
  Initializing partition tables, free-atom densities, potentials, etc. across the integration grid (initialize_grid_storage).
  | Net number of integration points:   157368
  | of which are non-zero points    :   156849
  Obtaining max. number of non-zero basis functions in each batch (get_n_compute_maxes).
  | Maximal number of non-zero basis functions:      274 in task     0
  | Maximal number of non-zero basis functions:      274 in task     1
  | Maximal number of non-zero basis functions:      274 in task     2
  | Maximal number of non-zero basis functions:      274 in task     3
  | Maximal number of non-zero basis functions:      274 in task     4
  | Maximal number of non-zero basis functions:      274 in task     5
  | Maximal number of non-zero basis functions:      274 in task     6
  | Maximal number of non-zero basis functions:      274 in task     7
  Integrating Hamiltonian matrix: batch-based integration.
  Time summed over all CPUs for integration: real work        4.531 s, elapsed        4.644 s
  Integrating overlap matrix.
  Time summed over all CPUs for integration: real work        2.367 s, elapsed        2.443 s

  Updating Kohn-Sham eigenvalues, eigenvectors, occupation numbers, and Fermi level.
  Solving generalized eigenproblem
  Updating Kohn-Sham eigenvalues and eigenfunctions.
  Transforming overlap matrix and checking for singularities.
  Overlap matrix is nonsingular:
  | Lowest eigenvalue:  0.303636E-03
  Solving real generalised eigenvalue problem by standard LAPACK (fast)
  Determining occupation numbers for Kohn-Sham eigenstates.
  | Chemical potential (Fermi level) in eV                 : -.45032376E+01
  | Error in electron count due to remaining E_F inaccuracy: 0.00000000E+00
  | Maximum occupation number of highest empty state:  0.00E+00

  Writing Kohn-Sham eigenvalues.

  State    Occupation    Eigenvalue [Ha]    Eigenvalue [eV]
      1       2.00000         -19.052084         -518.43358
      2       2.00000         -19.042414         -518.17046
      3       2.00000         -19.032028         -517.88783
      4       2.00000         -19.019700         -517.55237
      5       2.00000          -1.100279          -29.94011
      6       2.00000          -1.086697          -29.57053
      7       2.00000          -1.064209          -28.95860
      8       2.00000          -1.041998          -28.35422
      9       2.00000          -0.648439          -17.64493
     10       2.00000          -0.604810          -16.45771
     11       2.00000          -0.593832          -16.15900
     12       2.00000          -0.589085          -16.02981
     13       2.00000          -0.519305          -14.13102
     14       2.00000          -0.505441          -13.75375
     15       2.00000          -0.491349          -13.37030
     16       2.00000          -0.469892          -12.78641
     17       2.00000          -0.440231          -11.97929
     18       2.00000          -0.430575          -11.71654
     19       2.00000          -0.424460          -11.55013
     20       2.00000          -0.402424          -10.95050
     21       0.00000          -0.094972           -2.58432
     22       0.00000          -0.074913           -2.03849
     23       0.00000          -0.060425           -1.64425
     24       0.00000          -0.041970           -1.14207
     25       0.00000          -0.015693           -0.42703
     26       0.00000          -0.011281           -0.30697
     27       0.00000           0.042466            1.15556
     28       0.00000           0.049160            1.33772
     29       0.00000           0.078347            2.13192
     30       0.00000           0.080788            2.19837
     31       0.00000           0.093403            2.54161
     32       0.00000           0.099638            2.71130
     33       0.00000           0.102762            2.79629
     34       0.00000           0.106504            2.89812
     35       0.00000           0.111376            3.03070
     36       0.00000           0.126728            3.44844
     37       0.00000           0.138349            3.76467
     38       0.00000           0.156889            4.26917
     39       0.00000           0.169444            4.61082
     40       0.00000           0.178323            4.85242
     41       0.00000           0.195366            5.31617
     42       0.00000           0.222259            6.04798
     43       0.00000           0.233038            6.34127
     44       0.00000           0.240520            6.54487
     45       0.00000           0.257720            7.01291
     46       0.00000           0.269407            7.33094
     47       0.00000           0.283628            7.71791
     48       0.00000           0.326151            8.87502
     49       0.00000           0.332120            9.03746
     50       0.00000           0.354994            9.65987
     51       0.00000           0.364989            9.93186
     52       0.00000           0.373767           10.17072
     53       0.00000           0.394560           10.73653
     54       0.00000           0.401340           10.92103
     55       0.00000           0.411787           11.20529
     56       0.00000           0.415252           11.29959
     57       0.00000           0.430704           11.72006
     58       0.00000           0.443176           12.05944
     59       0.00000           0.466766           12.70135
     60       0.00000           0.488977           13.30574
     61       0.00000           0.526173           14.31791
     62       0.00000           0.553770           15.06884
     63       0.00000           0.570359           15.52025
     64       0.00000           0.575779           15.66773
     65       0.00000           0.606403           16.50107
     66       0.00000           0.654350           17.80578
     67       0.00000           0.685081           18.64200
     68       0.00000           0.710169           19.32467

  Highest occupied state (VBM) at    -10.95050117 eV
  | Occupation number:      2.00000000

  Lowest unoccupied state (CBM) at    -2.58432131 eV
  | Occupation number:      0.00000000

  Overall HOMO-LUMO gap:      8.36617986 eV.
  Calculating total energy contributions from superposition of free atom densities.

  Total energy components:
  | Sum of eigenvalues            :        -173.11850538 Ha       -4710.79421393 eV
  | XC energy correction          :         -36.40896791 Ha        -990.73842501 eV
  | XC potential correction       :          46.51893628 Ha        1265.84466168 eV
  | Free-atom electrostatic energy:        -143.43770367 Ha       -3903.13850625 eV
  | Hartree energy correction     :           0.00000000 Ha           0.00000000 eV
  | van der Waals energy corr.    :           0.00000000 Ha           0.00000000 eV
  | Entropy correction            :           0.00000000 Ha           0.00000000 eV
  | ---------------------------
  | Total energy                  :        -306.44624067 Ha       -8338.82648351 eV
  | Total energy, T -> 0          :        -306.44624067 Ha       -8338.82648351 eV  <-- do not rely on this value for anything but (periodic) metals
  | Electronic free energy        :        -306.44624067 Ha       -8338.82648351 eV

  Derived energy quantities:
  | Kinetic energy                :         303.25880763 Ha        8252.09201733 eV
  | Electrostatic energy          :        -573.29608039 Ha      -15600.18007583 eV
  | Energy correction for multipole
  | error in Hartree potential    :           0.00000000 Ha           0.00000000 eV
  | Sum of eigenvalues per atom                           :        -392.56618449 eV
  | Total energy (T->0) per atom                          :        -694.90220696 eV  <-- do not rely on this value for anything but (periodic) metals
  | Electronic free energy per atom                       :        -694.90220696 eV
  Initialize hartree_potential_storage
  Max. number of atoms included in rho_multipole:           12

  End scf initialization - timings             :  max(cpu_time)    wall_clock(cpu1)
  | Time for scf. initialization               :        1.261 s           1.261 s
  | Boundary condition initialization          :        0.000 s           0.000 s
  | Integration                                :        0.888 s           0.889 s
  | Solution of K.-S. eqns.                    :        0.119 s           0.118 s
  | Grid partitioning                          :        0.107 s           0.106 s
  | Preloading free-atom quantities on grid    :        0.013 s           0.013 s
  | Free-atom superposition energy             :        0.046 s           0.045 s
  | Total energy evaluation                    :        0.000 s           0.000 s
------------------------------------------------------------

------------------------------------------------------------
          Begin self-consistency iteration #    1

  Date     :  20150727, Time     :  120228.891
------------------------------------------------------------
  Evaluating new KS density.
  Integration grid: deviation in total charge (<rho> - N_e) =   2.131628E-14
  Pulay mixing of updated and previous charge densities.

  Evaluating partitioned Hartree potential by multipole expansion.
  | Analytical far-field extrapolation by fixed multipoles:
  | Hartree multipole sum: apparent total charge =  -0.149356E-05
  Summing up the Hartree potential.
  Time summed over all CPUs for potential: real work        1.655 s, elapsed        1.663 s
  | RMS charge density error from multipole expansion :   0.138565E-02

  Integrating Hamiltonian matrix: batch-based integration.
  Time summed over all CPUs for integration: real work        4.510 s, elapsed        4.634 s

  Updating Kohn-Sham eigenvalues, eigenvectors, occupation numbers, and Fermi level.
  Solving generalized eigenproblem
  Updating Kohn-Sham eigenvalues and eigenfunctions.
  Solving real generalised eigenvalue problem by standard LAPACK (fast)
  Determining occupation numbers for Kohn-Sham eigenstates.
  | Chemical potential (Fermi level) in eV                 : -.39732442E+01
  | Error in electron count due to remaining E_F inaccuracy: 0.00000000E+00
  | Maximum occupation number of highest empty state:  0.00E+00

  Writing Kohn-Sham eigenvalues.

  State    Occupation    Eigenvalue [Ha]    Eigenvalue [eV]
      1       2.00000         -18.975943         -516.36169
      2       2.00000         -18.965840         -516.08677
      3       2.00000         -18.960454         -515.94022
      4       2.00000         -18.929604         -515.10073
      5       2.00000          -1.053744          -28.67383
      6       2.00000          -1.051966          -28.62545
      7       2.00000          -1.031703          -28.07406
      8       2.00000          -0.992015          -26.99411
      9       2.00000          -0.605826          -16.48536
     10       2.00000          -0.576707          -15.69300
     11       2.00000          -0.568194          -15.46135
     12       2.00000          -0.550277          -14.97381
     13       2.00000          -0.480123          -13.06481
     14       2.00000          -0.466558          -12.69569
     15       2.00000          -0.450590          -12.26118
     16       2.00000          -0.424934          -11.56303
     17       2.00000          -0.394943          -10.74696
     18       2.00000          -0.389508          -10.59906
     19       2.00000          -0.386258          -10.51061
     20       2.00000          -0.349353           -9.50638
     21       0.00000          -0.086313           -2.34871
     22       0.00000          -0.067156           -1.82742
     23       0.00000          -0.048736           -1.32617
     24       0.00000          -0.030792           -0.83788
     25       0.00000          -0.010299           -0.28025
     26       0.00000          -0.004120           -0.11212
     27       0.00000           0.052481            1.42808
     28       0.00000           0.058961            1.60442
     29       0.00000           0.087092            2.36989
     30       0.00000           0.089937            2.44730
     31       0.00000           0.103152            2.80692
     32       0.00000           0.107069            2.91348
     33       0.00000           0.109558            2.98122
     34       0.00000           0.114724            3.12179
     35       0.00000           0.120752            3.28583
     36       0.00000           0.142935            3.88945
     37       0.00000           0.160655            4.37163
     38       0.00000           0.168068            4.57336
     39       0.00000           0.184587            5.02288
     40       0.00000           0.187991            5.11549
     41       0.00000           0.210205            5.71996
     42       0.00000           0.232907            6.33773
     43       0.00000           0.242007            6.58535
     44       0.00000           0.252368            6.86729
     45       0.00000           0.268071            7.29460
     46       0.00000           0.280021            7.61975
     47       0.00000           0.293533            7.98744
     48       0.00000           0.335985            9.14262
     49       0.00000           0.345427            9.39955
     50       0.00000           0.363530            9.89214
     51       0.00000           0.377236           10.26512
     52       0.00000           0.383343           10.43129
     53       0.00000           0.403834           10.98889
     54       0.00000           0.410333           11.16572
     55       0.00000           0.423845           11.53341
     56       0.00000           0.426082           11.59428
     57       0.00000           0.438699           11.93761
     58       0.00000           0.453552           12.34178
     59       0.00000           0.476598           12.96890
     60       0.00000           0.502781           13.68136
     61       0.00000           0.537204           14.61806
     62       0.00000           0.569695           15.50220
     63       0.00000           0.585300           15.92681
     64       0.00000           0.593019           16.13687
     65       0.00000           0.617857           16.81276
     66       0.00000           0.667667           18.16814
     67       0.00000           0.700492           19.06135
     68       0.00000           0.727018           19.78317

  Highest occupied state (VBM) at     -9.50637928 eV
  | Occupation number:      2.00000000

  Lowest unoccupied state (CBM) at    -2.34870625 eV
  | Occupation number:      0.00000000

  Overall HOMO-LUMO gap:      7.15767303 eV.

  Total energy components:
  | Sum of eigenvalues            :        -171.20908323 Ha       -4658.83619378 eV
  | XC energy correction          :         -36.60033303 Ha        -995.94573502 eV
  | XC potential correction       :          46.76966614 Ha        1272.66736822 eV
  | Free-atom electrostatic energy:        -143.43770367 Ha       -3903.13850625 eV
  | Hartree energy correction     :          -1.84747509 Ha         -50.27235501 eV
  | van der Waals energy corr.    :           0.00000000 Ha           0.00000000 eV
  | Entropy correction            :           0.00000000 Ha           0.00000000 eV
  | ---------------------------
  | Total energy                  :        -306.32492889 Ha       -8335.52542184 eV
  | Total energy, T -> 0          :        -306.32492889 Ha       -8335.52542184 eV  <-- do not rely on this value for anything but (periodic) metals
  | Electronic free energy        :        -306.32492889 Ha       -8335.52542184 eV

  Derived energy quantities:
  | Kinetic energy                :         304.39084606 Ha        8282.89635045 eV
  | Electrostatic energy          :        -574.11544191 Ha      -15622.47603727 eV
  | Energy correction for multipole
  | error in Hartree potential    :          -0.00009378 Ha          -0.00255187 eV
  | Sum of eigenvalues per atom                           :        -388.23634948 eV
  | Total energy (T->0) per atom                          :        -694.62711849 eV  <-- do not rely on this value for anything but (periodic) metals
  | Electronic free energy per atom                       :        -694.62711849 eV

  Self-consistency convergence accuracy:
  | Change of charge density      : 0.5891E+00
  | Change of sum of eigenvalues  : 0.5196E+02 eV
  | Change of total energy        : 0.3301E+01 eV

  End self-consistency iteration #     1       :  max(cpu_time)    wall_clock(cpu1)
  | Time for this iteration                    :        1.212 s           1.211 s
  | Charge density update                      :        0.385 s           0.384 s
  | Density mixing                             :        0.002 s           0.003 s
  | Hartree multipole update                   :        0.005 s           0.004 s
  | Hartree multipole summation                :        0.208 s           0.209 s
  | Integration                                :        0.581 s           0.580 s
  | Solution of K.-S. eqns.                    :        0.030 s           0.030 s
  | Total energy evaluation                    :        0.001 s           0.000 s
------------------------------------------------------------

------------------------------------------------------------
          Begin self-consistency iteration #    2

  Date     :  20150727, Time     :  120230.102
------------------------------------------------------------
  Evaluating new KS density.
  Integration grid: deviation in total charge (<rho> - N_e) =   0.000000E+00
  Pulay mixing of updated and previous charge densities.

  Evaluating partitioned Hartree potential by multipole expansion.
  | Analytical far-field extrapolation by fixed multipoles:
  | Hartree multipole sum: apparent total charge =  -0.407775E-05
  Summing up the Hartree potential.
  Time summed over all CPUs for potential: real work        1.655 s, elapsed        1.663 s
  | RMS charge density error from multipole expansion :   0.543143E-02

  Integrating Hamiltonian matrix: batch-based integration.
  Time summed over all CPUs for integration: real work        4.505 s, elapsed        4.638 s

  Updating Kohn-Sham eigenvalues, eigenvectors, occupation numbers, and Fermi level.
  Solving generalized eigenproblem
  Updating Kohn-Sham eigenvalues and eigenfunctions.
  Solving real generalised eigenvalue problem by standard LAPACK (fast)
  Determining occupation numbers for Kohn-Sham eigenstates.
  | Chemical potential (Fermi level) in eV                 : -.27065235E+01
  | Error in electron count due to remaining E_F inaccuracy: 0.00000000E+00
  | Maximum occupation number of highest empty state:  0.00E+00

  Highest occupied state (VBM) at     -6.16717563 eV
  | Occupation number:      2.00000000

  Lowest unoccupied state (CBM) at    -1.89714962 eV
  | Occupation number:      0.00000000

  Overall HOMO-LUMO gap:      4.27002601 eV.

  Total energy components:
  | Sum of eigenvalues            :        -166.85419455 Ha       -4540.33364333 eV
  | XC energy correction          :         -37.05362591 Ha       -1008.28046189 eV
  | XC potential correction       :          47.36311146 Ha        1288.81583706 eV
  | Free-atom electrostatic energy:        -143.43770367 Ha       -3903.13850625 eV
  | Hartree energy correction     :          -6.20538287 Ha        -168.85705921 eV
  | van der Waals energy corr.    :           0.00000000 Ha           0.00000000 eV
  | Entropy correction            :           0.00000000 Ha           0.00000000 eV
  | ---------------------------
  | Total energy                  :        -306.18779554 Ha       -8331.79383363 eV
  | Total energy, T -> 0          :        -306.18779554 Ha       -8331.79383363 eV  <-- do not rely on this value for anything but (periodic) metals
  | Electronic free energy        :        -306.18779554 Ha       -8331.79383363 eV

  Derived energy quantities:
  | Kinetic energy                :         306.56026594 Ha        8341.92926904 eV
  | Electrostatic energy          :        -575.69443557 Ha      -15665.44264078 eV
  | Energy correction for multipole
  | error in Hartree potential    :          -0.00096720 Ha          -0.02631877 eV
  | Sum of eigenvalues per atom                           :        -378.36113694 eV
  | Total energy (T->0) per atom                          :        -694.31615280 eV  <-- do not rely on this value for anything but (periodic) metals
  | Electronic free energy per atom                       :        -694.31615280 eV

  Self-consistency convergence accuracy:
  | Change of charge density      : 0.4437E+00
  | Change of sum of eigenvalues  : 0.1185E+03 eV
  | Change of total energy        : 0.3732E+01 eV

  End self-consistency iteration #     2       :  max(cpu_time)    wall_clock(cpu1)
  | Time for this iteration                    :        1.208 s           1.208 s
  | Charge density update                      :        0.379 s           0.379 s
  | Density mixing                             :        0.004 s           0.005 s
  | Hartree multipole update                   :        0.004 s           0.004 s
  | Hartree multipole summation                :        0.208 s           0.208 s
  | Integration                                :        0.581 s           0.581 s
  | Solution of K.-S. eqns.                    :        0.031 s           0.031 s
  | Total energy evaluation                    :        0.000 s           0.000 s
------------------------------------------------------------

------------------------------------------------------------
          Begin self-consistency iteration #    3

  Date     :  20150727, Time     :  120231.310
------------------------------------------------------------
  Evaluating new KS density.
  Integration grid: deviation in total charge (<rho> - N_e) =   7.105427E-15
  Pulay mixing of updated and previous charge densities.

  Evaluating partitioned Hartree potential by multipole expansion.
  | Analytical far-field extrapolation by fixed multipoles:
  | Hartree multipole sum: apparent total charge =  -0.346335E-05
  Summing up the Hartree potential.
  Time summed over all CPUs for potential: real work        1.655 s, elapsed        1.663 s
  | RMS charge density error from multipole expansion :   0.111344E-01

  Integrating Hamiltonian matrix: batch-based integration.
  Time summed over all CPUs for integration: real work        4.497 s, elapsed        4.632 s

  Updating Kohn-Sham eigenvalues, eigenvectors, occupation numbers, and Fermi level.
  Solving generalized eigenproblem
  Updating Kohn-Sham eigenvalues and eigenfunctions.
  Solving real generalised eigenvalue problem by standard LAPACK (fast)
  Determining occupation numbers for Kohn-Sham eigenstates.
  | Chemical potential (Fermi level) in eV                 : -.24155994E+01
  | Error in electron count due to remaining E_F inaccuracy: 0.00000000E+00
  | Maximum occupation number of highest empty state:  0.00E+00

  Highest occupied state (VBM) at     -5.95900560 eV
  | Occupation number:      2.00000000

  Lowest unoccupied state (CBM) at    -1.84871709 eV
  | Occupation number:      0.00000000

  Overall HOMO-LUMO gap:      4.11028851 eV.

  Total energy components:
  | Sum of eigenvalues            :        -167.03397549 Ha       -4545.22573151 eV
  | XC energy correction          :         -37.02290143 Ha       -1007.44440612 eV
  | XC potential correction       :          47.31924797 Ha        1287.62225089 eV
  | Free-atom electrostatic energy:        -143.43770367 Ha       -3903.13850625 eV
  | Hartree energy correction     :          -6.00791074 Ha        -163.48356916 eV
  | van der Waals energy corr.    :           0.00000000 Ha           0.00000000 eV
  | Entropy correction            :           0.00000000 Ha           0.00000000 eV
  | ---------------------------
  | Total energy                  :        -306.18324335 Ha       -8331.66996215 eV
  | Total energy, T -> 0          :        -306.18324335 Ha       -8331.66996215 eV  <-- do not rely on this value for anything but (periodic) metals
  | Electronic free energy        :        -306.18324335 Ha       -8331.66996215 eV

  Derived energy quantities:
  | Kinetic energy                :         304.90427886 Ha        8296.86756781 eV
  | Electrostatic energy          :        -574.06462078 Ha      -15621.09312384 eV
  | Energy correction for multipole
  | error in Hartree potential    :          -0.00455589 Ha          -0.12397211 eV
  | Sum of eigenvalues per atom                           :        -378.76881096 eV
  | Total energy (T->0) per atom                          :        -694.30583018 eV  <-- do not rely on this value for anything but (periodic) metals
  | Electronic free energy per atom                       :        -694.30583018 eV

  Self-consistency convergence accuracy:
  | Change of charge density      : 0.2307E+00
  | Change of sum of eigenvalues  : -.4892E+01 eV
  | Change of total energy        : 0.1239E+00 eV

  End self-consistency iteration #     3       :  max(cpu_time)    wall_clock(cpu1)
  | Time for this iteration                    :        1.208 s           1.208 s
  | Charge density update                      :        0.379 s           0.379 s
  | Density mixing                             :        0.005 s           0.005 s
  | Hartree multipole update                   :        0.005 s           0.004 s
  | Hartree multipole summation                :        0.208 s           0.208 s
  | Integration                                :        0.580 s           0.580 s
  | Solution of K.-S. eqns.                    :        0.031 s           0.031 s
  | Total energy evaluation                    :        0.000 s           0.000 s
------------------------------------------------------------

------------------------------------------------------------
          Begin self-consistency iteration #    4

  Date     :  20150727, Time     :  120232.518
------------------------------------------------------------
  Evaluating new KS density.
  Integration grid: deviation in total charge (<rho> - N_e) =   7.105427E-15
  Pulay mixing of updated and previous charge densities.

  Evaluating partitioned Hartree potential by multipole expansion.
  | Analytical far-field extrapolation by fixed multipoles:
  | Hartree multipole sum: apparent total charge =  -0.418055E-05
  Summing up the Hartree potential.
  Time summed over all CPUs for potential: real work        1.655 s, elapsed        1.666 s
  | RMS charge density error from multipole expansion :   0.148264E-01

  Integrating Hamiltonian matrix: batch-based integration.
  Time summed over all CPUs for integration: real work        4.487 s, elapsed        4.617 s

  Updating Kohn-Sham eigenvalues, eigenvectors, occupation numbers, and Fermi level.
  Solving generalized eigenproblem
  Updating Kohn-Sham eigenvalues and eigenfunctions.
  Solving real generalised eigenvalue problem by standard LAPACK (fast)
  Determining occupation numbers for Kohn-Sham eigenstates.
  | Chemical potential (Fermi level) in eV                 : -.18942346E+01
  | Error in electron count due to remaining E_F inaccuracy: 0.00000000E+00
  | Maximum occupation number of highest empty state:  0.00E+00

  Highest occupied state (VBM) at     -4.58576462 eV
  | Occupation number:      2.00000000

  Lowest unoccupied state (CBM) at    -1.67143363 eV
  | Occupation number:      0.00000000

  Overall HOMO-LUMO gap:      2.91433099 eV.

  Total energy components:
  | Sum of eigenvalues            :        -165.43943289 Ha       -4501.83601995 eV
  | XC energy correction          :         -37.20261214 Ha       -1012.33458337 eV
  | XC potential correction       :          47.55362973 Ha        1294.00010293 eV
  | Free-atom electrostatic energy:        -143.43770367 Ha       -3903.13850625 eV
  | Hartree energy correction     :          -7.64601118 Ha        -208.05855007 eV
  | van der Waals energy corr.    :           0.00000000 Ha           0.00000000 eV
  | Entropy correction            :           0.00000000 Ha           0.00000000 eV
  | ---------------------------
  | Total energy                  :        -306.17213015 Ha       -8331.36755670 eV
  | Total energy, T -> 0          :        -306.17213015 Ha       -8331.36755670 eV  <-- do not rely on this value for anything but (periodic) metals
  | Electronic free energy        :        -306.17213015 Ha       -8331.36755670 eV

  Derived energy quantities:
  | Kinetic energy                :         305.08795813 Ha        8301.86573504 eV
  | Electrostatic energy          :        -574.05747614 Ha      -15620.89870837 eV
  | Energy correction for multipole
  | error in Hartree potential    :          -0.00627901 Ha          -0.17086068 eV
  | Sum of eigenvalues per atom                           :        -375.15300166 eV
  | Total energy (T->0) per atom                          :        -694.28062972 eV  <-- do not rely on this value for anything but (periodic) metals
  | Electronic free energy per atom                       :        -694.28062972 eV

  Self-consistency convergence accuracy:
  | Change of charge density      : 0.1320E+00
  | Change of sum of eigenvalues  : 0.4339E+02 eV
  | Change of total energy        : 0.3024E+00 eV

  End self-consistency iteration #     4       :  max(cpu_time)    wall_clock(cpu1)
  | Time for this iteration                    :        1.207 s           1.207 s
  | Charge density update                      :        0.378 s           0.378 s
  | Density mixing                             :        0.007 s           0.007 s
  | Hartree multipole update                   :        0.004 s           0.004 s
  | Hartree multipole summation                :        0.209 s           0.209 s
  | Integration                                :        0.578 s           0.578 s
  | Solution of K.-S. eqns.                    :        0.031 s           0.030 s
  | Total energy evaluation                    :        0.000 s           0.000 s
------------------------------------------------------------

------------------------------------------------------------
          Begin self-consistency iteration #    5

  Date     :  20150727, Time     :  120233.725
------------------------------------------------------------
  Evaluating new KS density.
  Integration grid: deviation in total charge (<rho> - N_e) =   0.000000E+00
  Pulay mixing of updated and previous charge densities.

  Evaluating partitioned Hartree potential by multipole expansion.
  | Analytical far-field extrapolation by fixed multipoles:
  | Hartree multipole sum: apparent total charge =  -0.402540E-05
  Summing up the Hartree potential.
  Time summed over all CPUs for potential: real work        1.654 s, elapsed        1.662 s
  | RMS charge density error from multipole expansion :   0.151006E-01

  Integrating Hamiltonian matrix: batch-based integration.
  Time summed over all CPUs for integration: real work        4.491 s, elapsed        4.619 s

  Updating Kohn-Sham eigenvalues, eigenvectors, occupation numbers, and Fermi level.
  Solving generalized eigenproblem
  Updating Kohn-Sham eigenvalues and eigenfunctions.
  Solving real generalised eigenvalue problem by standard LAPACK (fast)
  Determining occupation numbers for Kohn-Sham eigenstates.
  | Chemical potential (Fermi level) in eV                 : -.18955923E+01
  | Error in electron count due to remaining E_F inaccuracy: 0.00000000E+00
  | Maximum occupation number of highest empty state:  0.00E+00

  Highest occupied state (VBM) at     -4.54678423 eV
  | Occupation number:      2.00000000

  Lowest unoccupied state (CBM) at    -1.66624808 eV
  | Occupation number:      0.00000000

  Overall HOMO-LUMO gap:      2.88053615 eV.

  Total energy components:
  | Sum of eigenvalues            :        -165.47304178 Ha       -4502.75056422 eV
  | XC energy correction          :         -37.20171482 Ha       -1012.31016614 eV
  | XC potential correction       :          47.55201883 Ha        1293.95626808 eV
  | Free-atom electrostatic energy:        -143.43770367 Ha       -3903.13850625 eV
  | Hartree energy correction     :          -7.61140158 Ha        -207.11677495 eV
  | van der Waals energy corr.    :           0.00000000 Ha           0.00000000 eV
  | Entropy correction            :           0.00000000 Ha           0.00000000 eV
  | ---------------------------
  | Total energy                  :        -306.17184302 Ha       -8331.35974348 eV
  | Total energy, T -> 0          :        -306.17184302 Ha       -8331.35974348 eV  <-- do not rely on this value for anything but (periodic) metals
  | Electronic free energy        :        -306.17184302 Ha       -8331.35974348 eV

  Derived energy quantities:
  | Kinetic energy                :         305.10473306 Ha        8302.32220418 eV
  | Electrostatic energy          :        -574.07486126 Ha      -15621.37178152 eV
  | Energy correction for multipole
  | error in Hartree potential    :          -0.00626411 Ha          -0.17045502 eV
  | Sum of eigenvalues per atom                           :        -375.22921369 eV
  | Total energy (T->0) per atom                          :        -694.27997862 eV  <-- do not rely on this value for anything but (periodic) metals
  | Electronic free energy per atom                       :        -694.27997862 eV

  Self-consistency convergence accuracy:
  | Change of charge density      : 0.2770E-01
  | Change of sum of eigenvalues  : -.9145E+00 eV
  | Change of total energy        : 0.7813E-02 eV

  End self-consistency iteration #     5       :  max(cpu_time)    wall_clock(cpu1)
  | Time for this iteration                    :        1.208 s           1.207 s
  | Charge density update                      :        0.378 s           0.378 s
  | Density mixing                             :        0.008 s           0.007 s
  | Hartree multipole update                   :        0.004 s           0.005 s
  | Hartree multipole summation                :        0.209 s           0.208 s
  | Integration                                :        0.578 s           0.578 s
  | Solution of K.-S. eqns.                    :        0.030 s           0.031 s
  | Total energy evaluation                    :        0.000 s           0.000 s
------------------------------------------------------------

------------------------------------------------------------
          Begin self-consistency iteration #    6

  Date     :  20150727, Time     :  120234.932
------------------------------------------------------------
  Evaluating new KS density.
  Integration grid: deviation in total charge (<rho> - N_e) =   1.421085E-14
  Pulay mixing of updated and previous charge densities.

  Evaluating partitioned Hartree potential by multipole expansion.
  | Analytical far-field extrapolation by fixed multipoles:
  | Hartree multipole sum: apparent total charge =  -0.402520E-05
  Summing up the Hartree potential.
  Time summed over all CPUs for potential: real work        1.654 s, elapsed        1.662 s
  | RMS charge density error from multipole expansion :   0.153018E-01

  Integrating Hamiltonian matrix: batch-based integration.
  Time summed over all CPUs for integration: real work        4.485 s, elapsed        4.618 s

  Updating Kohn-Sham eigenvalues, eigenvectors, occupation numbers, and Fermi level.
  Solving generalized eigenproblem
  Updating Kohn-Sham eigenvalues and eigenfunctions.
  Solving real generalised eigenvalue problem by standard LAPACK (fast)
  Determining occupation numbers for Kohn-Sham eigenstates.
  | Chemical potential (Fermi level) in eV                 : -.18811056E+01
  | Error in electron count due to remaining E_F inaccuracy: 0.00000000E+00
  | Maximum occupation number of highest empty state:  0.00E+00

  Highest occupied state (VBM) at     -4.51112416 eV
  | Occupation number:      2.00000000

  Lowest unoccupied state (CBM) at    -1.65847772 eV
  | Occupation number:      0.00000000

  Overall HOMO-LUMO gap:      2.85264644 eV.

  Total energy components:
  | Sum of eigenvalues            :        -165.42486868 Ha       -4501.43970741 eV
  | XC energy correction          :         -37.20788306 Ha       -1012.47801242 eV
  | XC potential correction       :          47.55997890 Ha        1294.17287253 eV
  | Free-atom electrostatic energy:        -143.43770367 Ha       -3903.13850625 eV
  | Hartree energy correction     :          -7.66142696 Ha        -208.47803489 eV
  | van der Waals energy corr.    :           0.00000000 Ha           0.00000000 eV
  | Entropy correction            :           0.00000000 Ha           0.00000000 eV
  | ---------------------------
  | Total energy                  :        -306.17190347 Ha       -8331.36138843 eV
  | Total energy, T -> 0          :        -306.17190347 Ha       -8331.36138843 eV  <-- do not rely on this value for anything but (periodic) metals
  | Electronic free energy        :        -306.17190347 Ha       -8331.36138843 eV

  Derived energy quantities:
  | Kinetic energy                :         305.10810648 Ha        8302.41399938 eV
  | Electrostatic energy          :        -574.07212688 Ha      -15621.29737540 eV
  | Energy correction for multipole
  | error in Hartree potential    :          -0.00633757 Ha          -0.17245408 eV
  | Sum of eigenvalues per atom                           :        -375.11997562 eV
  | Total energy (T->0) per atom                          :        -694.28011570 eV  <-- do not rely on this value for anything but (periodic) metals
  | Electronic free energy per atom                       :        -694.28011570 eV

  Self-consistency convergence accuracy:
  | Change of charge density      : 0.1013E-01
  | Change of sum of eigenvalues  : 0.1311E+01 eV
  | Change of total energy        : -.1645E-02 eV

  End self-consistency iteration #     6       :  max(cpu_time)    wall_clock(cpu1)
  | Time for this iteration                    :        1.210 s           1.210 s
  | Charge density update                      :        0.380 s           0.380 s
  | Density mixing                             :        0.008 s           0.008 s
  | Hartree multipole update                   :        0.004 s           0.004 s
  | Hartree multipole summation                :        0.209 s           0.208 s
  | Integration                                :        0.578 s           0.578 s
  | Solution of K.-S. eqns.                    :        0.030 s           0.031 s
  | Total energy evaluation                    :        0.000 s           0.000 s
------------------------------------------------------------

------------------------------------------------------------
          Begin self-consistency iteration #    7

  Date     :  20150727, Time     :  120236.142
------------------------------------------------------------
  Evaluating new KS density.
  Integration grid: deviation in total charge (<rho> - N_e) =   2.842171E-14
  Pulay mixing of updated and previous charge densities.

  Evaluating partitioned Hartree potential by multipole expansion.
  | Analytical far-field extrapolation by fixed multipoles:
  | Hartree multipole sum: apparent total charge =  -0.379718E-05
  Summing up the Hartree potential.
  Time summed over all CPUs for potential: real work        1.654 s, elapsed        1.662 s
  | RMS charge density error from multipole expansion :   0.153108E-01

  Integrating Hamiltonian matrix: batch-based integration.
  Time summed over all CPUs for integration: real work        4.488 s, elapsed        4.617 s

  Updating Kohn-Sham eigenvalues, eigenvectors, occupation numbers, and Fermi level.
  Solving generalized eigenproblem
  Updating Kohn-Sham eigenvalues and eigenfunctions.
  Solving real generalised eigenvalue problem by standard LAPACK (fast)
  Determining occupation numbers for Kohn-Sham eigenstates.
  | Chemical potential (Fermi level) in eV                 : -.19315768E+01
  | Error in electron count due to remaining E_F inaccuracy: 0.00000000E+00
  | Maximum occupation number of highest empty state:  0.00E+00

  Highest occupied state (VBM) at     -4.66833873 eV
  | Occupation number:      2.00000000

  Lowest unoccupied state (CBM) at    -1.67596433 eV
  | Occupation number:      0.00000000

  Overall HOMO-LUMO gap:      2.99237440 eV.

  Total energy components:
  | Sum of eigenvalues            :        -165.56542078 Ha       -4505.26432477 eV
  | XC energy correction          :         -37.19522896 Ha       -1012.13367670 eV
  | XC potential correction       :          47.54292274 Ha        1293.70875090 eV
  | Free-atom electrostatic energy:        -143.43770367 Ha       -3903.13850625 eV
  | Hartree energy correction     :          -7.51636934 Ha        -204.53081608 eV
  | van der Waals energy corr.    :           0.00000000 Ha           0.00000000 eV
  | Entropy correction            :           0.00000000 Ha           0.00000000 eV
  | ---------------------------
  | Total energy                  :        -306.17180000 Ha       -8331.35857290 eV
  | Total energy, T -> 0          :        -306.17180000 Ha       -8331.35857290 eV  <-- do not rely on this value for anything but (periodic) metals
  | Electronic free energy        :        -306.17180000 Ha       -8331.35857290 eV

  Derived energy quantities:
  | Kinetic energy                :         305.16553245 Ha        8303.97663975 eV
  | Electrostatic energy          :        -574.14210350 Ha      -15623.20153595 eV
  | Energy correction for multipole
  | error in Hartree potential    :          -0.00613073 Ha          -0.16682561 eV
  | Sum of eigenvalues per atom                           :        -375.43869373 eV
  | Total energy (T->0) per atom                          :        -694.27988108 eV  <-- do not rely on this value for anything but (periodic) metals
  | Electronic free energy per atom                       :        -694.27988108 eV

  Self-consistency convergence accuracy:
  | Change of charge density      : 0.1026E-01
  | Change of sum of eigenvalues  : -.3825E+01 eV
  | Change of total energy        : 0.2816E-02 eV

  End self-consistency iteration #     7       :  max(cpu_time)    wall_clock(cpu1)
  | Time for this iteration                    :        1.212 s           1.212 s
  | Charge density update                      :        0.380 s           0.380 s
  | Density mixing                             :        0.010 s           0.010 s
  | Hartree multipole update                   :        0.004 s           0.004 s
  | Hartree multipole summation                :        0.209 s           0.209 s
  | Integration                                :        0.578 s           0.578 s
  | Solution of K.-S. eqns.                    :        0.030 s           0.030 s
  | Total energy evaluation                    :        0.000 s           0.000 s
------------------------------------------------------------

------------------------------------------------------------
          Begin self-consistency iteration #    8

  Date     :  20150727, Time     :  120237.354
------------------------------------------------------------
  Evaluating new KS density.
  Integration grid: deviation in total charge (<rho> - N_e) =   7.105427E-15
  Pulay mixing of updated and previous charge densities.

  Evaluating partitioned Hartree potential by multipole expansion.
  | Analytical far-field extrapolation by fixed multipoles:
  | Hartree multipole sum: apparent total charge =  -0.380552E-05
  Summing up the Hartree potential.
  Time summed over all CPUs for potential: real work        1.654 s, elapsed        1.662 s
  | RMS charge density error from multipole expansion :   0.153608E-01

  Integrating Hamiltonian matrix: batch-based integration.
  Time summed over all CPUs for integration: real work        4.486 s, elapsed        4.608 s

  Updating Kohn-Sham eigenvalues, eigenvectors, occupation numbers, and Fermi level.
  Solving generalized eigenproblem
  Updating Kohn-Sham eigenvalues and eigenfunctions.
  Solving real generalised eigenvalue problem by standard LAPACK (fast)
  Determining occupation numbers for Kohn-Sham eigenstates.
  | Chemical potential (Fermi level) in eV                 : -.19251913E+01
  | Error in electron count due to remaining E_F inaccuracy: 0.00000000E+00
  | Maximum occupation number of highest empty state:  0.00E+00

  Highest occupied state (VBM) at     -4.64279847 eV
  | Occupation number:      2.00000000

  Lowest unoccupied state (CBM) at    -1.67398552 eV
  | Occupation number:      0.00000000

  Overall HOMO-LUMO gap:      2.96881295 eV.

  Total energy components:
  | Sum of eigenvalues            :        -165.54628671 Ha       -4504.74366015 eV
  | XC energy correction          :         -37.19720272 Ha       -1012.18738548 eV
  | XC potential correction       :          47.54549718 Ha        1293.77880497 eV
  | Free-atom electrostatic energy:        -143.43770367 Ha       -3903.13850625 eV
  | Hartree energy correction     :          -7.53610290 Ha        -205.06779353 eV
  | van der Waals energy corr.    :           0.00000000 Ha           0.00000000 eV
  | Entropy correction            :           0.00000000 Ha           0.00000000 eV
  | ---------------------------
  | Total energy                  :        -306.17179881 Ha       -8331.35854042 eV
  | Total energy, T -> 0          :        -306.17179881 Ha       -8331.35854042 eV  <-- do not rely on this value for anything but (periodic) metals
  | Electronic free energy        :        -306.17179881 Ha       -8331.35854042 eV

  Derived energy quantities:
  | Kinetic energy                :         305.16580176 Ha        8303.98396793 eV
  | Electrostatic energy          :        -574.14039785 Ha      -15623.15512287 eV
  | Energy correction for multipole
  | error in Hartree potential    :          -0.00616311 Ha          -0.16770663 eV
  | Sum of eigenvalues per atom                           :        -375.39530501 eV
  | Total energy (T->0) per atom                          :        -694.27987837 eV  <-- do not rely on this value for anything but (periodic) metals
  | Electronic free energy per atom                       :        -694.27987837 eV

  Self-consistency convergence accuracy:
  | Change of charge density      : 0.2145E-02
  | Change of sum of eigenvalues  : 0.5207E+00 eV
  | Change of total energy        : 0.3248E-04 eV

  End self-consistency iteration #     8       :  max(cpu_time)    wall_clock(cpu1)
  | Time for this iteration                    :        1.210 s           1.210 s
  | Charge density update                      :        0.378 s           0.378 s
  | Density mixing                             :        0.011 s           0.011 s
  | Hartree multipole update                   :        0.004 s           0.004 s
  | Hartree multipole summation                :        0.209 s           0.209 s
  | Integration                                :        0.577 s           0.577 s
  | Solution of K.-S. eqns.                    :        0.030 s           0.030 s
  | Total energy evaluation                    :        0.000 s           0.000 s
------------------------------------------------------------

------------------------------------------------------------
          Begin self-consistency iteration #    9

  Date     :  20150727, Time     :  120238.564
------------------------------------------------------------
  Evaluating new KS density.
  Integration grid: deviation in total charge (<rho> - N_e) =  -1.421085E-14
  Pulay mixing of updated and previous charge densities.

  Evaluating partitioned Hartree potential by multipole expansion.
  | Analytical far-field extrapolation by fixed multipoles:
  | Hartree multipole sum: apparent total charge =  -0.380810E-05
  Summing up the Hartree potential.
  Time summed over all CPUs for potential: real work        1.655 s, elapsed        1.663 s
  | RMS charge density error from multipole expansion :   0.153707E-01

  Integrating Hamiltonian matrix: batch-based integration.
  Time summed over all CPUs for integration: real work        4.487 s, elapsed        4.613 s

  Updating Kohn-Sham eigenvalues, eigenvectors, occupation numbers, and Fermi level.
  Solving generalized eigenproblem
  Updating Kohn-Sham eigenvalues and eigenfunctions.
  Solving real generalised eigenvalue problem by standard LAPACK (fast)
  Determining occupation numbers for Kohn-Sham eigenstates.
  | Chemical potential (Fermi level) in eV                 : -.19235629E+01
  | Error in electron count due to remaining E_F inaccuracy: 0.00000000E+00
  | Maximum occupation number of highest empty state:  0.00E+00

  Highest occupied state (VBM) at     -4.63731892 eV
  | Occupation number:      2.00000000

  Lowest unoccupied state (CBM) at    -1.67378299 eV
  | Occupation number:      0.00000000

  Overall HOMO-LUMO gap:      2.96353593 eV.

  Total energy components:
  | Sum of eigenvalues            :        -165.53982447 Ha       -4504.56781379 eV
  | XC energy correction          :         -37.19777708 Ha       -1012.20301455 eV
  | XC potential correction       :          47.54624980 Ha        1293.79928495 eV
  | Free-atom electrostatic energy:        -143.43770367 Ha       -3903.13850625 eV
  | Hartree energy correction     :          -7.54274339 Ha        -205.24849064 eV
  | van der Waals energy corr.    :           0.00000000 Ha           0.00000000 eV
  | Entropy correction            :           0.00000000 Ha           0.00000000 eV
  | ---------------------------
  | Total energy                  :        -306.17179880 Ha       -8331.35854028 eV
  | Total energy, T -> 0          :        -306.17179880 Ha       -8331.35854028 eV  <-- do not rely on this value for anything but (periodic) metals
  | Electronic free energy        :        -306.17179880 Ha       -8331.35854028 eV

  Derived energy quantities:
  | Kinetic energy                :         305.16762442 Ha        8304.03356507 eV
  | Electrostatic energy          :        -574.14164615 Ha      -15623.18909080 eV
  | Energy correction for multipole
  | error in Hartree potential    :          -0.00617192 Ha          -0.16794662 eV
  | Sum of eigenvalues per atom                           :        -375.38065115 eV
  | Total energy (T->0) per atom                          :        -694.27987836 eV  <-- do not rely on this value for anything but (periodic) metals
  | Electronic free energy per atom                       :        -694.27987836 eV

  Self-consistency convergence accuracy:
  | Change of charge density      : 0.9496E-03
  | Change of sum of eigenvalues  : 0.1758E+00 eV
  | Change of total energy        : 0.1462E-06 eV

  End self-consistency iteration #     9       :  max(cpu_time)    wall_clock(cpu1)
  | Time for this iteration                    :        1.213 s           1.213 s
  | Charge density update                      :        0.380 s           0.380 s
  | Density mixing                             :        0.012 s           0.011 s
  | Hartree multipole update                   :        0.004 s           0.005 s
  | Hartree multipole summation                :        0.208 s           0.208 s
  | Integration                                :        0.578 s           0.578 s
  | Solution of K.-S. eqns.                    :        0.031 s           0.030 s
  | Total energy evaluation                    :        0.000 s           0.001 s
------------------------------------------------------------

------------------------------------------------------------
          Begin self-consistency iteration #   10

  Date     :  20150727, Time     :  120239.777
------------------------------------------------------------
  Evaluating new KS density.
  Integration grid: deviation in total charge (<rho> - N_e) =   1.421085E-14
  Pulay mixing of updated and previous charge densities.

  Evaluating partitioned Hartree potential by multipole expansion.
  | Analytical far-field extrapolation by fixed multipoles:
  | Hartree multipole sum: apparent total charge =  -0.379428E-05
  Summing up the Hartree potential.
  Time summed over all CPUs for potential: real work        1.654 s, elapsed        1.662 s
  | RMS charge density error from multipole expansion :   0.153672E-01

  Integrating Hamiltonian matrix: batch-based integration.
  Time summed over all CPUs for integration: real work        4.482 s, elapsed        4.599 s

  Updating Kohn-Sham eigenvalues, eigenvectors, occupation numbers, and Fermi level.
  Solving generalized eigenproblem
[...]
  |                                 -0.00404095       0.12133623      -0.00184849
  |                                  0.00230890      -0.00184849       0.14099660
  ----------------------------------------------------------------------


  Total energy components:
  | Sum of eigenvalues            :        -165.54726654 Ha       -4504.77032265 eV
  | XC energy correction          :         -37.19686773 Ha       -1012.17826995 eV
  | XC potential correction       :          47.54503680 Ha        1293.76627756 eV
  | Free-atom electrostatic energy:        -143.43770367 Ha       -3903.13850625 eV
  | Hartree energy correction     :          -7.53499609 Ha        -205.03767569 eV
  | van der Waals energy corr.    :          -0.00151241 Ha          -0.04115470 eV
  | Entropy correction            :           0.00000000 Ha           0.00000000 eV
  | ---------------------------
  | Total energy                  :        -306.17330962 Ha       -8331.39965168 eV
  | Total energy, T -> 0          :        -306.17330962 Ha       -8331.39965168 eV  <-- do not rely on this value for anything but (periodic) metals
  | Electronic free energy        :        -306.17330962 Ha       -8331.39965168 eV

  Derived energy quantities:
  | Kinetic energy                :         305.16956342 Ha        8304.08632779 eV
  | Electrostatic energy          :        -574.14449290 Ha      -15623.26655482 eV
  | Energy correction for multipole
  | error in Hartree potential    :          -0.00616871 Ha          -0.16785919 eV
  | Sum of eigenvalues per atom                           :        -375.39752689 eV
  | Total energy (T->0) per atom                          :        -694.28330431 eV  <-- do not rely on this value for anything but (periodic) metals
  | Electronic free energy per atom                       :        -694.28330431 eV

  atomic forces [eV/Ang]:
  -----------------------
  atom #    1
   Hellmann-Feynman + Multipole  : -.721904E+01 -.109918E+02 0.363971E+01
   Pulay + GGA                   : 0.576633E+01 0.145407E+02 -.585973E+01
   Van der Waals               : -.157518E-02 -.752982E-03 -.480679E-02
   ----------------------------------------------------------------
   Total forces(   1)            : -.145429E+01 0.354814E+01 -.222482E+01
  atom #    2
   Hellmann-Feynman + Multipole  : 0.224196E+01 -.364915E+01 0.149157E+01
   Pulay + GGA                   : -.313356E-01 0.110939E+00 -.463388E-01
   Van der Waals               : -.162895E-02 0.983542E-03 0.153699E-02
   ----------------------------------------------------------------
   Total forces(   2)            : 0.220899E+01 -.353722E+01 0.144677E+01
  atom #    3
   Hellmann-Feynman + Multipole  : -.184850E+01 -.329058E+00 -.268251E+00
   Pulay + GGA                   : 0.685896E-01 0.185374E-01 0.118163E-01
   Van der Waals               : -.468674E-03 0.965801E-03 0.469835E-04
   ----------------------------------------------------------------
   Total forces(   3)            : -.178037E+01 -.309554E+00 -.256387E+00
  atom #    4
   Hellmann-Feynman + Multipole  : 0.816506E+01 -.471496E+01 -.149059E+02
   Pulay + GGA                   : -.887373E+01 0.274942E+01 0.143956E+02
   Van der Waals               : 0.130925E-02 -.105255E-03 0.473583E-02
   ----------------------------------------------------------------
   Total forces(   4)            : -.707364E+00 -.196564E+01 -.505554E+00
  atom #    5
   Hellmann-Feynman + Multipole  : -.268762E+00 0.709095E+00 0.917080E+00
   Pulay + GGA                   : 0.564132E-02 0.381388E-01 0.879520E-01
   Van der Waals               : 0.148677E-02 -.826009E-03 -.171638E-02
   ----------------------------------------------------------------
   Total forces(   5)            : -.261634E+00 0.746408E+00 0.100332E+01
  atom #    6
   Hellmann-Feynman + Multipole  : 0.747382E+00 0.745061E+00 0.135458E+00
   Pulay + GGA                   : -.105966E+00 -.467659E-01 0.658824E-01
   Van der Waals               : 0.222600E-02 0.374471E-02 0.466996E-03
   ----------------------------------------------------------------
   Total forces(   6)            : 0.643642E+00 0.702039E+00 0.201807E+00
  atom #    7
   Hellmann-Feynman + Multipole  : -.626797E+01 0.769455E+00 -.102173E+02
   Pulay + GGA                   : 0.915146E+01 -.416868E+00 0.117224E+02
   Van der Waals               : 0.137925E-02 -.300433E-03 0.459537E-02
   ----------------------------------------------------------------
   Total forces(   7)            : 0.288487E+01 0.352286E+00 0.150964E+01
  atom #    8
   Hellmann-Feynman + Multipole  : -.213669E+00 -.991132E+00 -.121151E+01
   Pulay + GGA                   : 0.414015E-01 0.900155E-01 0.948926E-01
   Van der Waals               : -.191581E-02 0.102800E-02 0.353666E-02
   ----------------------------------------------------------------
   Total forces(   8)            : -.174183E+00 -.900089E+00 -.111308E+01
  atom #    9
   Hellmann-Feynman + Multipole  : -.166581E+01 0.102596E+01 -.315823E+00
   Pulay + GGA                   : 0.126248E+00 -.553774E-01 0.217571E-01
   Van der Waals               : -.210745E-02 0.150782E-04 0.514024E-03
   ----------------------------------------------------------------
   Total forces(   9)            : -.154167E+01 0.970600E+00 -.293552E+00
  atom #   10
   Hellmann-Feynman + Multipole  : 0.741501E+01 -.573616E+01 -.973098E+01
   Pulay + GGA                   : -.862361E+01 0.761332E+01 0.115306E+02
   Van der Waals               : 0.152451E-02 -.184930E-02 -.560202E-02
   ----------------------------------------------------------------
   Total forces(  10)            : -.120707E+01 0.187531E+01 0.179401E+01
  atom #   11
   Hellmann-Feynman + Multipole  : -.440483E+00 0.322850E+00 -.224130E+01
   Pulay + GGA                   : 0.247021E-01 0.170443E-01 0.133169E+00
   Van der Waals               : -.369012E-03 -.143481E-02 -.163720E-02
   ----------------------------------------------------------------
   Total forces(  11)            : -.416150E+00 0.338459E+00 -.210977E+01
  atom #   12
   Hellmann-Feynman + Multipole  : 0.189373E+01 -.192005E+01 0.576581E+00
   Pulay + GGA                   : -.850963E-01 0.104763E+00 -.141446E-01
   Van der Waals               : 0.139302E-03 -.146834E-02 -.167047E-02
   ----------------------------------------------------------------
   Total forces(  12)            : 0.180877E+01 -.181675E+01 0.560766E+00
  Timings for vdw_correction_hirshfeld (Tkatchenko-Scheffler 2009):
  | CPU time:        3.159 s, Wall clock time:        3.159 s.
  Removing unitary transformations (pure translations, rotations) from forces on atoms.
  Atomic forces before filtering:
  | Net force on center of mass :  0.353211E-02 0.398476E-02 0.131376E-01 eV/A
  | Net torque on center of mass:  0.194720E-01 -.349375E-03 0.212059E-02 eV
  Atomic forces after filtering:
  | Net force on center of mass :  -.356812E-15 0.178406E-14 -.267609E-15 eV/A
  | Net torque on center of mass:  0.302107E-14 0.169935E-14 -.755268E-15 eV
 
  Energy and forces in a compact form:
  | Total energy uncorrected      :         -0.833139965168201E+04 eV
  | Total energy corrected        :         -0.833139965168201E+04 eV  <-- do not rely on this value for anything but (periodic) metals
  | Electronic free energy        :         -0.833139965168201E+04 eV
  Total atomic forces (unitary forces cleaned) [eV/Ang]:
  |   1         -0.145450807816778E+01          0.354698359174214E+01         -0.222556649564053E+01
  |   2          0.220866363995946E+01         -0.353861057143549E+01          0.144562760933939E+01
  |   3         -0.178062439436578E+01         -0.310579197538532E+00         -0.257256234582608E+00
  |   4         -0.707523826178706E+00         -0.196577711910121E+01         -0.506151123985924E+00
  |   5         -0.261872467847574E+00          0.746544449891573E+00          0.100239632195235E+01
  |   6          0.643538461000612E+00          0.701934856021160E+00          0.201423856404782E+00
  |   7          0.288455717463955E+01          0.351413791651573E+00          0.150852319435679E+01
  |   8         -0.174560923668080E+00         -0.900609124798831E+00         -0.111447951585972E+01
  |   9         -0.154191629766199E+01          0.969877034401643E+00         -0.294420396921085E+00
  |  10         -0.120748531293368E+01          0.187580830496701E+01          0.179240234121212E+01
  |  11         -0.416544450669906E+00          0.339417127370655E+00         -0.211134691490566E+01
  |  12          0.180827647589387E+01         -0.181640314317169E+01          0.558847358630094E+00
 
  ------------------------------------ 
  Start decomposition of the XC Energy 
  ------------------------------------ 
  Hartree-Fock part   :          0.000000000 Ha              0.000000000 eV
  ------------------------------------ 
  X Energy            :        -35.892513380 Ha           -976.684982250 eV
  C Energy GGA        :         -1.304354348 Ha            -35.493287697 eV
  Total XC Energy     :        -37.196867728 Ha          -1012.178269947 eV
  LDA X and C from self-consistent density 
  X Energy LDA        :        -32.337202010 Ha           -879.940037541 eV
  C Energy LDA        :         -2.635468755 Ha            -71.714753633 eV
  ------------------------------------ 
  End decomposition of the XC Energy 
  ------------------------------------ 
  Performing Hirshfeld analysis of fragment charges and moments.
  ----------------------------------------------------------------------
  | Atom     1: O
  |   Hirshfeld charge        :     -0.33093828
  |   Free atom volume        :     23.95238533
  |   Hirshfeld volume        :     23.53732585
  |   Hirshfeld dipole vector :      0.03078367       0.04590628       0.02837720
  |   Hirshfeld dipole moment :      0.06213121
  |   Hirshfeld second moments:      0.01169954      -0.02875788       0.01819137
  |                                 -0.02875788      -0.02819587      -0.03687020
  |                                  0.01819137      -0.03687020      -0.07081249
  ----------------------------------------------------------------------
  | Atom     2: H
  |   Hirshfeld charge        :      0.10772137
  |   Free atom volume        :     10.44207651
  |   Hirshfeld volume        :      7.35075217
  |   Hirshfeld dipole vector :     -0.05817634       0.09253616      -0.02930433
  |   Hirshfeld dipole moment :      0.11316435
  |   Hirshfeld second moments:      0.10416669       0.00358228       0.00714893
  |                                  0.00358228       0.07807908      -0.00669212
  |                                  0.00714893      -0.00669212       0.07441638
  ----------------------------------------------------------------------
  | Atom     3: H
  |   Hirshfeld charge        :      0.06004246
  |   Free atom volume        :     10.44207651
  |   Hirshfeld volume        :      8.39978299
  |   Hirshfeld dipole vector :      0.04578128       0.00764083       0.01620375
  |   Hirshfeld dipole moment :      0.04916166
  |   Hirshfeld second moments:      0.02540848      -0.02769883      -0.00066963
  |                                 -0.02769883       0.07840943      -0.00516898
  |                                 -0.00066963      -0.00516898       0.05793150
  ----------------------------------------------------------------------
  | Atom     4: O
  |   Hirshfeld charge        :     -0.31230207
  |   Free atom volume        :     23.95238533
  |   Hirshfeld volume        :     22.42979212
  |   Hirshfeld dipole vector :     -0.02941799       0.02186580       0.01538050
  |   Hirshfeld dipole moment :      0.03975036
  |   Hirshfeld second moments:      0.01630748       0.05469625      -0.01213657
  |                                  0.05469625       0.00841332       0.01872336
  |                                 -0.01213657       0.01872336      -0.01262259
  ----------------------------------------------------------------------
  | Atom     5: H
  |   Hirshfeld charge        :      0.07001213
  |   Free atom volume        :     10.44207651
  |   Hirshfeld volume        :      8.00210592
  |   Hirshfeld dipole vector :      0.01418176       0.04107166       0.03164949
  |   Hirshfeld dipole moment :      0.05375587
  |   Hirshfeld second moments:      0.08414304      -0.00157963      -0.01117917
  |                                 -0.00157963       0.03628676      -0.01922621
  |                                 -0.01117917      -0.01922621       0.06890677
  ----------------------------------------------------------------------
  | Atom     6: H
  |   Hirshfeld charge        :      0.12438707
  |   Free atom volume        :     10.44207651
  |   Hirshfeld volume        :      6.86338694
  |   Hirshfeld dipole vector :     -0.10225499      -0.06121220       0.02080254
  |   Hirshfeld dipole moment :      0.12097835
  |   Hirshfeld second moments:      0.09300653       0.01336453      -0.00040848
  |                                  0.01336453       0.10706403       0.01238932
  |                                 -0.00040848       0.01238932       0.09708433
  ----------------------------------------------------------------------
  | Atom     7: O
  |   Hirshfeld charge        :     -0.18275898
  |   Free atom volume        :     23.95238533
  |   Hirshfeld volume        :     20.43535421
  |   Hirshfeld dipole vector :     -0.01787780      -0.02644702       0.03103354
  |   Hirshfeld dipole moment :      0.04452124
  |   Hirshfeld second moments:      0.07357826      -0.02694360       0.00605779
  |                                 -0.02694360       0.08156457       0.03818382
  |                                  0.00605779       0.03818382       0.04866389
  ----------------------------------------------------------------------
  | Atom     8: H
  |   Hirshfeld charge        :      0.17000353
  |   Free atom volume        :     10.44207651
  |   Hirshfeld volume        :      6.15735827
  |   Hirshfeld dipole vector :      0.00399863       0.07132656       0.08861050
  |   Hirshfeld dipole moment :      0.11382130
  |   Hirshfeld second moments:      0.13046789      -0.00919657       0.00989956
  |                                 -0.00919657       0.12860279      -0.00230264
  |                                  0.00989956      -0.00230264       0.10493914
  ----------------------------------------------------------------------
  | Atom     9: H
  |   Hirshfeld charge        :      0.17422488
  |   Free atom volume        :     10.44207651
  |   Hirshfeld volume        :      5.71547675
  |   Hirshfeld dipole vector :      0.09114117      -0.07818241       0.01252078
  |   Hirshfeld dipole moment :      0.12073099
  |   Hirshfeld second moments:      0.12633381       0.00179533       0.00070973
  |                                  0.00179533       0.13128928       0.01577010
  |                                  0.00070973       0.01577010       0.13300358
  ----------------------------------------------------------------------
  | Atom    10: O
  |   Hirshfeld charge        :     -0.21456776
  |   Free atom volume        :     23.95238533
  |   Hirshfeld volume        :     20.68401230
  |   Hirshfeld dipole vector :     -0.03519917      -0.02103028       0.01013124
  |   Hirshfeld dipole moment :      0.04223619
  |   Hirshfeld second moments:      0.02993922      -0.03902465       0.02670777
  |                                 -0.03902465       0.05344272      -0.00671417
  |                                  0.02670777      -0.00671417       0.07994027
  ----------------------------------------------------------------------
  | Atom    11: H
  |   Hirshfeld charge        :      0.16494072
  |   Free atom volume        :     10.44207651
  |   Hirshfeld volume        :      5.83947800
  |   Hirshfeld dipole vector :      0.01801090      -0.01891524       0.11876327
  |   Hirshfeld dipole moment :      0.12160137
  |   Hirshfeld second moments:      0.12687042      -0.01443803       0.00585239
  |                                 -0.01443803       0.12816780       0.00138759
  |                                  0.00585239       0.00138759       0.12053455
  ----------------------------------------------------------------------
  | Atom    12: H
  |   Hirshfeld charge        :      0.16925009
  |   Free atom volume        :     10.44207651
  |   Hirshfeld volume        :      5.87153514
  |   Hirshfeld dipole vector :     -0.08781786       0.08006424      -0.02578015
  |   Hirshfeld dipole moment :      0.12160130
  |   Hirshfeld second moments:      0.11251324      -0.00404095       0.00230890
  |                                 -0.00404095       0.12133623      -0.00184849
  |                                  0.00230890      -0.00184849       0.14099660
  ----------------------------------------------------------------------


------------------------------------------------------------------------------
  Final output of selected total energy values:

  The following output summarizes some interesting total energy values
  at the end of a run (AFTER all relaxation, molecular dynamics, etc.).

  | Total energy of the DFT / Hartree-Fock s.c.f. calculation      :          -8331.399651682 eV
  | Final zero-broadening corrected energy (caution - metals only) :          -8331.399651682 eV
  | For reference only, the value of 1 Hartree used in FHI-aims is :             27.211384500 eV

  Before relying on these values, please be sure to understand exactly which
  total energy value is referred to by a given number. Different objects may
  all carry the same name 'total energy'. Definitions:

  Total energy of the DFT / Hartree-Fock s.c.f. calculation:
  | Note that this energy does not include ANY quantities calculated after the
  | s.c.f. cycle, in particular not ANY RPA, MP2, etc. many-body perturbation terms.

  Final zero-broadening corrected energy:
  | For metallic systems only, a broadening of the occupation numbers at the Fermi
  | level can be extrapolated back to zero broadening by an electron-gas inspired
  | formula. For all systems that are not real metals, this value can be
  | meaningless and should be avoided.

------------------------------------------------------------------------------

------------------------------------------------------------
          Leaving FHI-aims.
          Date     :  20150727, Time     :  120249.433

          Computational steps:
          | Number of self-consistency cycles          :           15

          Detailed time accounting                     :  max(cpu_time)    wall_clock(cpu1)
          | Total time                                 :       22.395 s          22.417 s
          | Preparation time                           :        0.171 s           0.584 s
          | Grid partitioning                          :        0.107 s           0.106 s
          | Preloading free-atom quantities on grid    :        0.013 s           0.013 s
          | Free-atom superposition energy             :        0.046 s           0.045 s
          | Total time for integrations                :        9.551 s           9.551 s
          | Total time for solution of K.-S. equations :        0.577 s           0.575 s
          | Total time for density & force components  :        7.289 s           7.286 s
          | Total time for mixing                      :        0.146 s           0.147 s
          | Total time for Hartree multipole update    :        0.064 s           0.064 s
          | Total time for Hartree multipole sum       :        3.815 s           3.818 s
          | Total time for total energy evaluation     :        0.003 s           0.004 s
          | Total time for scaled ZORA corrections     :        0.000 s           0.000 s
          | Total time for TS (2009) vdW correction    :        0.034 s           0.035 s

          Have a nice day.
------------------------------------------------------------
