  MPI-parallelism will be employed.
------------------------------------------------------------
          Invoking FHI-aims ...
          Version 081213
          Compiled on 2013/08/29 at 17:41:06 on host generoso.

          When using FHI-aims, please cite the following reference:

          Volker Blum, Ralf Gehrke, Felix Hanke, Paula Havu,
          Ville Havu, Xinguo Ren, Karsten Reuter, and Matthias Scheffler,
          'Ab Initio Molecular Simulations with Numeric Atom-Centered Orbitals: FHI-aims',
          Computer Physics Communications 180, 2175-2196 (2009)

          For any questions about FHI-aims, please visit the aimsclub website
          with its forums and wiki. Contributions to both the forums and the
          wiki are warmly encouraged - they are for you, and everyone is welcome there.

------------------------------------------------------------

  Date     :  20150727, Time     :  120113.361
  Time zero on CPU 1             :   0.479910000000000E-01  s.
  Internal wall clock time zero  :           207230473.361  s.

  Using        8 parallel tasks.
  Task        0 on host gen60 reporting.
  Task        1 on host gen60 reporting.
  Task        2 on host gen60 reporting.
  Task        3 on host gen60 reporting.
  Task        4 on host gen60 reporting.
  Task        5 on host gen60 reporting.
  Task        6 on host gen60 reporting.
  Task        7 on host gen60 reporting.

  Performing system and environment tests:
  | Environment variable OMP_NUM_THREADS correctly set to 1.
  | Checking for scalapack...
  | No scalapack compiled in.

  Obtaining array dimensions for all initial allocations:
  
  -----------------------------------------------------------------------
  Parsing control.in (first pass over file, find array dimensions only).
  The contents of control.in will be repeated verbatim below
  unless switched off by setting 'verbatim_writeout .false.' .
  in the first line of control.in .
  -----------------------------------------------------------------------
  
  #########################################################################################
  #
  #  Volker Blum, FHI 2008 : Test run input file control.in
  #
  #########################################################################################
  #
  #  Physical model
  #
    xc                 rpbe
    spin               none
    relativistic       atomic_zora scalar
    charge             0.
   vdw_correction_hirshfeld
  #
  #  SCF convergence
  #
    occupation_type    gaussian 0.01
    mixer              pulay
      n_max_pulay        10
      charge_mix_param   0.1
    sc_accuracy_rho    5E-5
    sc_accuracy_eev    5E-3
    sc_accuracy_etot   5E-6
    sc_iter_limit      3000
  #
  #  Eigenvalue solver
  #
    KS_method          lapack
      empty_states       8
      basis_threshold    0.e-5
  #
  #  Efficiency
  #
  #   all previous settings are now default, except stratmann still
  #   undecided. Continue to handle stratmann with care, if at all.
  #
  #  partition_type stratmann
    partition_type rho_r2
  #  hartree_partition_type stratmann
  #
  #  Oprions for large clusters (100's of atoms: memory saving / better scaling)
  #
  # for periodic systems:
  #
    density_update_method orbital
    packed_matrix_format none
  #  k_grid 6 6 6
  #  output k_eigenvalue 1
  #  distributed_spline_storage .true.
  #
  #  Relaxation
  #
  #  relax_geometry   bfgs 5.e-3
    sc_accuracy_forces 5.E-4
    final_forces_cleaned .true.
  #
  #  Output options
  #
  #  output mulliken
    output Hirshfeld
  #  output dipole
  
  #harmonic_length_scale 0.001
  
  ################################################################################
  #
  #  FHI-aims code project
  #  VB, Fritz-Haber Institut, 2007
  #
  #  Suggested "safe" defaults for H atom (to be pasted into control.in file)
  #  Basis constructed for a non-relativistic H2 molecule using the
  #  PW-LDA functional.
  #
  ################################################################################
    species        H
  #     global species definitions
      nucleus             1
      cut_pot             4.0  2.0  1.0
      cut_free_atom       finite 8.0
      logarithmic         0.00010000 100.00  1.0123
      basis_dep_cutoff    1d-4  # 1d-4 is safe default - please check 5d-4 if you wish!
      radial_base         24 7.0
      radial_multiplier   2
      angular_grids       specified
        division   0.2783  110
        division   0.3822  194
        division   0.5626  302
  #      division   0.5922  434
  #      division   0.6227  590
  #      division   0.7206  770
        outer_grid  302
      l_hartree           4
  ################################################################################
  #
  #  Definition of "minimal" basis
  #
  ################################################################################
  #     valence basis states
      valence      1  s   1.
  #     ion occupancy
      ion_occ      1  s   0.5
  ################################################################################
  #
  #  Suggested additional basis functions. For production calculations,
  #  uncomment them one after another (the most important basis functions are
  #  listed first).
  #
  ################################################################################
  #  "First tier" - improvements: -1014.90 meV to -62.69 meV
       hydro 2 s 2.1
       hydro 2 p 3.5
  #  "Second tier" - improvements: -12.89 meV to -1.83 meV
       hydro 1 s 0.85
       hydro 2 p 3.7
       hydro 2 s 1.2
       hydro 3 d 7
  #  "Third tier" - improvements: -0.25 meV to -0.12 meV
  #     hydro 4 f 11.2
  #     hydro 3 p 4.8
  #     hydro 4 d 9
  #     hydro 3 s 3.2
  
  ################################################################################
  #
  #  FHI-aims code project
  #  VB, Fritz-Haber Institut, 2007
  #
  #  Suggested "safe" defaults for O atom (to be pasted into control.in file)
  #  All values have been tested for a non-relativistic, non-spinpolarized O2
  #  molecule using the PW-LDA functional. Validity for PBE is expected.
  #
  #  Constructed for dimers: 1.0 A, 1.208 A, 1.5 A, 2.0 A, 3.0 A
  #
  ################################################################################
    species        O
  #     global species definitions
      nucleus             8
      mass                15.9994
      l_hartree           4
      cut_pot             4.0  2.0  1.0
      cut_free_atom       finite 8.0
      basis_dep_cutoff    1d-4  # 1d-4 is safe default - please check 5d-4 if you wish!
      logarithmic         0.00010000 100.00  1.0123
      radial_base         36 7.0
      radial_multiplier   2
       angular_grids specified
        division   0.4087  110
        division   0.5181  194
        division   0.6184  302
  #      division   0.7315  434
  #      division   0.7934  590
  #      division   0.9656  770
  #      division   1.4041  974
  #      outer_grid 974
        outer_grid 302
  ################################################################################
  #
  #  Definition of "minimal" basis
  #
  ################################################################################
  #     valence basis states
      valence      2  s   2.
      valence      2  p   4.
  #     ion occupancy
      ion_occ      2  s   1.
      ion_occ      2  p   3.
  ################################################################################
  #
  #  Suggested additional basis functions. For production calculations,
  #  uncomment them one after another (the most important basis functions are
  #  listed first).
  #
  ################################################################################
  #  "First tier" - improvements: -699.05 meV to -159.38 meV
       hydro 2 p 1.8
       hydro 3 d 7.6
       hydro 3 s 6.4
  #  "Second tier" - improvements: -49.91 meV to -5.39 meV
       hydro 4 f 11.6
       hydro 3 p 6.2
       hydro 3 d 5.6
       hydro 5 g 17.6
       hydro 1 s 0.75
  #  "Third tier" - improvements: -2.83 meV to -0.50 meV
  #     ionic 2 p auto
  #     hydro 4 f 10.8
  #     hydro 4 d 4.7
  #     hydro 2 s 6.8
  #  "Fourth tier" - improvements: -0.40 meV to -0.12 meV
  #     hydro 3 p 5
  #     hydro 3 s 3.3
  #     hydro 5 g 15.6
  #     hydro 4 f 17.6
  #     hydro 4 d 14
  # Further basis functions - -0.08 meV and below
  #     hydro 3 s 2.1
  #     hydro 4 d 11.6
  #     hydro 3 p 16
  #     hydro 2 s 17.2
  
  
  -----------------------------------------------------------------------
  Completed first pass over input file control.in .
  -----------------------------------------------------------------------
  
  
  -----------------------------------------------------------------------
  Parsing geometry.in (first pass over file, find array dimensions only).
  The contents of geometry.in will be repeated verbatim below
  unless switched off by setting 'verbatim_writeout .false.' .
  in the first line of geometry.in .
  -----------------------------------------------------------------------
  
  atom      -4.053030000      0.065001000     -1.525160000  O
  atom      -4.566710000      0.974813000     -1.912820000  H
  atom      -3.067820000      0.330172000     -1.477310000  H
  atom      -4.581760000     -0.256435000      0.939478000  O
  atom      -4.349860000      0.471090000      1.504340000  H
  atom      -5.393870000     -0.726611000      1.228070000  H
  atom      -1.645860000      0.870179000     -1.502250000  O
  atom      -1.568890000      1.501730000     -0.721051000  H
  atom      -0.824432000      0.282220000     -1.377720000  H
  atom      -3.818880000      2.024990000      2.187990000  O
  atom      -3.690880000      1.961360000      3.202150000  H
  atom      -4.546490000      2.751300000      2.045370000  H
  atom      -4.066610000      4.258280000     -0.900064000  O
  atom      -3.224110000      3.876870000     -0.569443000  H
  atom      -3.737450000      5.116530000     -1.322720000  H
  
  -----------------------------------------------------------------------
  Completed first pass over input file geometry.in .
  -----------------------------------------------------------------------
  
 
  Basic array size parameters: 
  | Number of species                 :        2
  | Number of atoms                   :       15
  | Max. basis fn. angular momentum   :        4
  | Max. atomic/ionic basis occupied n:        2
  | Max. number of basis fn. types    :        2
  | Max. radial fns per species/type  :        8
  | Max. logarithmic grid size        :     1301
  | Max. radial integration grid size :       73
  | Max. angular integration grid size:      302
  | Max. angular grid division number :        8
  | Radial grid for Hartree potential :     1301
  | Number of spin channels           :        1

------------------------------------------------------------
          Reading file control.in.
------------------------------------------------------------
  XC: Using RPBE gradient-corrected functionals.
  Spin treatment: No spin polarisation.
  Scalar relativistic treatment of kinetic energy: on-site free-atom approximation to ZORA.
  Charge =   0.000000E+00: Neutral system requested explicitly.
  Using non-empirical van der Waals correction (Hirshfeld partitioning):
  Occupation type: Gaussian broadening, width =   0.100000E-01 eV.
  Using pulay charge density mixing.
  Pulay mixing - number of memorized iterations:   10
  Charge density mixing - mixing parameter:     0.1000
  Convergence accuracy of self-consistent charge density: 0.5000E-04
  Convergence accuracy of sum of eigenvalues: 0.5000E-02
  Convergence accuracy of total energy: 0.5000E-05
  Maximum number of s.-c. iterations  :  3000
  Kohn-Sham eigenvalues and eigenfunctions calculated by lapack diagonalisation (D&C).
  Number of empty states per atom:        8
  Threshold for basis singularities: 0.0000E+00
  Partition function in integrals calculations: rho / r^2
 Using packed matrix format           0
  Convergence accuracy of forces: 0.5000E-03
  Cleaning forces before final output.
  Hirshfeld charge analysis will be performed.
 
  Reading configuration options for species H                   .
  | Found nuclear charge :   1.0000
  | Found cutoff potl. onset [A], width [A], scale factor :    4.00000    2.00000    1.00000
  | Found cutoff specification for free atom: Cutoff potential begins at    8.00000 A.
  | Found logarithmic grid data [bohr] : 0.1000E-03 0.1000E+03 0.1012E+01
  | Threshold for basis-dependent cutoff potential is   0.100000E-03
  | Found data for basic radial integration grid :    24 points, outermost radius =    7.000 A
  | Found multiplier for basic radial grid :   2
  | Found angular grid specification: user-specified.
  | Specified grid contains     4 separate shells.
  | Check grid settings after all constraints further below.
  | Found l_max for Hartree potential  :   4
  | Found free-atom valence shell :  1 s   1.000
  | No ionic wave fns used. Skipping ion_occ.
  | Found hydrogenic basis function :  2 s   2.100
  | Found hydrogenic basis function :  2 p   3.500
  | Found hydrogenic basis function :  1 s   0.850
  | Found hydrogenic basis function :  2 p   3.700
  | Found hydrogenic basis function :  2 s   1.200
  | Found hydrogenic basis function :  3 d   7.000
  Species H                   : Missing cutoff potential type.
  Defaulting to exp(1/x)/(1-x)^2 type cutoff potential.
  Species H : On-site basis accuracy parameter (for Gram-Schmidt orthonormalisation) not specified.
  Using default value basis_acc =  0.1000000E-03.
  Species H                   : Using default innermost maximum threshold i_radial=  2 for radial functions.
  Species H                   : Basic radial grid will be enhanced according to radial_multiplier =   2, to contain    49 grid points.
 
  Reading configuration options for species O                   .
  | Found nuclear charge :   8.0000
  | Found atomic mass :    15.9994000000000      amu
  | Found l_max for Hartree potential  :   4
  | Found cutoff potl. onset [A], width [A], scale factor :    4.00000    2.00000    1.00000
  | Found cutoff specification for free atom: Cutoff potential begins at    8.00000 A.
  | Threshold for basis-dependent cutoff potential is   0.100000E-03
  | Found logarithmic grid data [bohr] : 0.1000E-03 0.1000E+03 0.1012E+01
  | Found data for basic radial integration grid :    36 points, outermost radius =    7.000 A
  | Found multiplier for basic radial grid :   2
  | Found angular grid specification: user-specified.
  | Specified grid contains     4 separate shells.
  | Check grid settings after all constraints further below.
  | Found free-atom valence shell :  2 s   2.000
  | Found free-atom valence shell :  2 p   4.000
  | No ionic wave fns used. Skipping ion_occ.
  | No ionic wave fns used. Skipping ion_occ.
  | Found hydrogenic basis function :  2 p   1.800
  | Found hydrogenic basis function :  3 d   7.600
  | Found hydrogenic basis function :  3 s   6.400
  | Found hydrogenic basis function :  4 f  11.600
  | Found hydrogenic basis function :  3 p   6.200
  | Found hydrogenic basis function :  3 d   5.600
  | Found hydrogenic basis function :  5 g  17.600
  | Found hydrogenic basis function :  1 s   0.750
  Species O                   : Missing cutoff potential type.
  Defaulting to exp(1/x)/(1-x)^2 type cutoff potential.
  Species O : On-site basis accuracy parameter (for Gram-Schmidt orthonormalisation) not specified.
  Using default value basis_acc =  0.1000000E-03.
  Species O                   : Using default innermost maximum threshold i_radial=  2 for radial functions.
  Species O                   : Basic radial grid will be enhanced according to radial_multiplier =   2, to contain    73 grid points.
 
  Finished reading input file 'control.in'. Consistency checks are next.
 
  Target number of points in a grid batch is not set. Defaulting to  100
  Method for grid partitioning is not set. Defaulting to parallel hash+maxmin partitioning.
  Batch size limit is not set. Defaulting to    200
  By default, will store active basis functions for each batch.
  If in need of memory, prune_basis_once .false. can be used to disable this option.
  communication_type for Hartree potential was not specified.
  Defaulting to calc_hartree .
  Pulay mixer: Number of initial linear mixing iterations not set.
  Defaulting to    0 iterations.
  Work space size for distributed Hartree potential not set.
  Defaulting to   0.200000E+03 MB.
  Algorithm-dependent basis array size parameters:
  | n_max_pulay                         :       10
  Geometry relaxation not requested: no relaxation will be performed.
  Handling of forces: Unphysical translation and rotation will be removed from forces.
  No accuracy limit for integral partition fn. given. Defaulting to 0.1000E-14.
  No threshold value for u(r) in integrations given. Defaulting to 0.1000E-05.
  No accuracy for occupation numbers given. Defaulting to 0.1000E-07.
  No threshold value for occupation numbers given. Defaulting to 0.0000E+00.
  No accuracy for fermi level given. Defaulting to 0.1000E-19.
  Maximum # of iterations to find E_F not set. Defaulting to  200.
  Will not use alltoall communication since running on < 1024 CPUs.
  Partitioning for Hartree potential was not defined. Using partition_type for integrals.
  | Reporting present value of keyword multip_moments_threshold  :       0.10000000E-09
  | This value may affect high angular momentum components of the Hartree potential in periodic systems.
  No q(lm)/r^(l+1) cutoff set for long-range Hartree potential.
  | Using default value of  0.100000E-09 .
  | Verify using the multipole_threshold keyword.
  Defaulting to new monopole extrapolation.
  Density update method: Loop over occupied states selected for charge density update.
------------------------------------------------------------


------------------------------------------------------------
          Reading geometry description geometry.in.
------------------------------------------------------------
  Input structure read successfully.
  The structure contains       15 atoms,  and a total of         50.000 electrons.

  Input geometry:
  | No unit cell requested.
  | Atomic structure:
  |       Atom                x [A]            y [A]            z [A]
  |    1: Species O             -4.053030         0.065001        -1.525160
  |    2: Species H             -4.566710         0.974813        -1.912820
  |    3: Species H             -3.067820         0.330172        -1.477310
  |    4: Species O             -4.581760        -0.256435         0.939478
  |    5: Species H             -4.349860         0.471090         1.504340
  |    6: Species H             -5.393870        -0.726611         1.228070
  |    7: Species O             -1.645860         0.870179        -1.502250
  |    8: Species H             -1.568890         1.501730        -0.721051
  |    9: Species H             -0.824432         0.282220        -1.377720
  |   10: Species O             -3.818880         2.024990         2.187990
  |   11: Species H             -3.690880         1.961360         3.202150
  |   12: Species H             -4.546490         2.751300         2.045370
  |   13: Species O             -4.066610         4.258280        -0.900064
  |   14: Species H             -3.224110         3.876870        -0.569443
  |   15: Species H             -3.737450         5.116530        -1.322720
  |

  | The smallest distance between any two atoms is         0.94981015 AA.
  |
  | The first atom of this pair is atom number                      4 .
  | The second atom of this pair is atom number                     5 .

  Structure-dependent array size parameters: 
  | Maximum number of distinct radial functions  :       18
  | Maximum number of basis functions            :      345
  | Number of Kohn-Sham states (occupied + empty):       85
------------------------------------------------------------

------------------------------------------------------------
          Preparing all fixed parts of the calculation.
------------------------------------------------------------
  Determining machine precision:
    2.225073858507201E-308
  Setting up grids for atomic and cluster calculations.

  Creating wave function, potential, and density for free atoms.

  Species: H

  List of occupied orbitals and eigenvalues:
    n    l              occ      energy [Ha]    energy [eV]
    1    0           1.0000        -0.241408        -6.5691


  Species: O

  List of occupied orbitals and eigenvalues:
    n    l              occ      energy [Ha]    energy [eV]
    1    0           2.0000       -18.944147      -515.4965
    2    0           2.0000        -0.883529       -24.0421
    2    1           4.0000        -0.330176        -8.9845

  Creating fixed part of basis set: Ionic, confined, hydrogenic.
 
  H                    hydrogenic:
 
  List of hydrogenic basis orbitals: 
    n    l      effective z      eigenvalue [eV]  inner max. [A]     outer max. [A]     outer radius [A]   
    2    0         2.100000       -14.9965           0.193241           1.317192           5.372934
    2    1         3.500000       -41.6672           0.602363           0.602363           4.056010
    1    0         0.850000        -9.8292           0.624864           0.624864           5.372934
    2    1         3.700000       -46.5653           0.573616           0.573616           3.909951
    2    0         1.200000        -4.5995           0.334977           2.228160           5.505921
    3    2         7.000000       -74.0753           0.680692           0.680692           3.769152
 
 
  O                    hydrogenic:
 
  List of hydrogenic basis orbitals: 
    n    l      effective z      eigenvalue [eV]  inner max. [A]     outer max. [A]     outer radius [A]   
    2    1         1.800000       -11.0118           1.178546           1.178546           5.432516
    3    2         7.600000       -87.3182           0.624117           0.624117           3.541422
    3    0         6.400000       -61.9209           0.061166           1.081887           4.306510
    4    3        11.600000      -114.4238           0.731621           0.731621           3.584982
    3    1         6.200000       -58.1113           0.255677           1.030255           4.306510
    3    2         5.600000       -47.4081           0.847222           0.847222           4.413102
    5    4        17.600000      -168.5799           0.749730           0.749730           3.372413
    1    0         0.750000        -7.6499           0.705275           0.705275           5.366508
 

  Adding cutoff potential to free-atom effective potential.
  Creating atomic-like basis functions for current effective potential.

  Species H                   :

  List of atomic basis orbitals and eigenvalues:
    n    l      energy [Ha]    energy [eV]    outer radius [A]
    1    0        -0.241374        -6.5681       5.372934


  Species O                   :

  List of atomic basis orbitals and eigenvalues:
    n    l      energy [Ha]    energy [eV]    outer radius [A]
    1    0       -18.944147      -515.4965       1.415745
    2    0        -0.883529       -24.0421       5.048305
    2    1        -0.330173        -8.9845       5.301302

  Assembling full basis from fixed parts.
  | Species H :   atomic orbital   1 s accepted.
  | Species H :    hydro orbital   2 s accepted.
  | Species H :    hydro orbital   1 s accepted.
  | Species H :    hydro orbital   2 s accepted.
  | Species H :    hydro orbital   2 p accepted.
  | Species H :    hydro orbital   2 p accepted.
  | Species H :    hydro orbital   3 d accepted.
  | Species O :   atomic orbital   1 s accepted.
  | Species O :    hydro orbital   3 s accepted.
  | Species O :   atomic orbital   2 s accepted.
  | Species O :    hydro orbital   1 s accepted.
  | Species O :    hydro orbital   3 p accepted.
  | Species O :   atomic orbital   2 p accepted.
  | Species O :    hydro orbital   2 p accepted.
  | Species O :    hydro orbital   3 d accepted.
  | Species O :    hydro orbital   3 d accepted.
  | Species O :    hydro orbital   4 f accepted.
  | Species O :    hydro orbital   5 g accepted.
 
  Basis size parameters after reduction:
  | Total number of radial functions:       18
  | Total number of basis functions :      345
 
  Testing on-site integration grid accuracy.
  |  Species  Function  <phi|h_atom|phi> (log., in eV)  <phi|h_atom|phi> (rad., in eV)
           1        1                 -6.5683835025                 -6.5684759159
           1        2                 13.3711789951                 13.3708738703
           1        3                 23.6590910787                 23.6532055418
           1        4                 16.2963827186                 16.1870710655 ***
           1        5                 28.7627214838                 28.7627215090
           1        6                 59.5965249172                 59.5965950857
           1        7                 60.2220506392                 60.2220503827
           2        8               -515.4964576505               -515.4964530710
           2        9                 15.3030791347                 15.3030722972
           2       10                -21.7296094581                -21.7296135470
           2       11                 14.2969371730                 14.2969701621
           2       12                 21.0679693190                 21.0679697493
           2       13                 -2.3833606469                 -2.3833613176
           2       14                 13.7067136422                 13.7066766629
           2       15                 45.8013116808                 45.8013116965
           2       16                 52.2309815402                 52.2309831494
           2       17                 85.4120732416                 85.4120732763
           2       18                142.1019167745                142.1019167817
 * Note: Onsite integrals marked "***" above are less accurate than
 * onsite_accuracy_threshold =    0.03000 eV. Usually, this is harmless.
 * When in doubt, tighten the "radial" and/or "radial_multiplier" flags to check.

  Preparing densities etc. for the partition functions (integrals / Hartree potential).

  Preparations completed.
  max(cpu_time)          :      0.174 s.
  Wall clock time (cpu1) :      0.544 s.
------------------------------------------------------------

------------------------------------------------------------
          Begin self-consistency loop: Initialization.

          Date     :  20150727, Time     :  120113.930
------------------------------------------------------------

  Initializing index lists of integration centers etc. from given atomic structure:
  | Number of centers in hartree potential         :        15
  | Number of centers in hartree multipole         :        15
  | Number of centers in electron density summation:        15
  | Number of centers in basis integrals           :        15
  | Number of centers in integrals                 :        15
  Partitioning the integration grid into batches with parallel hashing+maxmin method.
  | Number of batches:     2002
  | Maximal batch size:     194
  | Minimal batch size:      58
  | Average batch size:      98.257
  | Standard deviation of batch sizes:      31.882

  Integration load balanced across     8 MPI tasks.
  Work distribution over tasks is as follows:
  Task     0 has      24553 integration points.
  Task     1 has      24529 integration points.
  Task     2 has      24649 integration points.
  Task     3 has      24506 integration points.
  Task     4 has      24627 integration points.
  Task     5 has      24530 integration points.
  Task     6 has      24650 integration points.
  Task     7 has      24666 integration points.
  Initializing partition tables, free-atom densities, potentials, etc. across the integration grid (initialize_grid_storage).
  | Net number of integration points:   196710
  | of which are non-zero points    :   196153
  Obtaining max. number of non-zero basis functions in each batch (get_n_compute_maxes).
  | Maximal number of non-zero basis functions:      342 in task     0
  | Maximal number of non-zero basis functions:      342 in task     1
  | Maximal number of non-zero basis functions:      342 in task     2
  | Maximal number of non-zero basis functions:      341 in task     3
  | Maximal number of non-zero basis functions:      341 in task     4
  | Maximal number of non-zero basis functions:      341 in task     5
  | Maximal number of non-zero basis functions:      341 in task     6
  | Maximal number of non-zero basis functions:      342 in task     7
  Integrating Hamiltonian matrix: batch-based integration.
  Time summed over all CPUs for integration: real work        6.965 s, elapsed        7.087 s
  Integrating overlap matrix.
  Time summed over all CPUs for integration: real work        3.750 s, elapsed        3.815 s

  Updating Kohn-Sham eigenvalues, eigenvectors, occupation numbers, and Fermi level.
  Solving generalized eigenproblem
  Updating Kohn-Sham eigenvalues and eigenfunctions.
  Transforming overlap matrix and checking for singularities.
  Overlap matrix is nonsingular:
  | Lowest eigenvalue:  0.300339E-03
  Solving real generalised eigenvalue problem by standard LAPACK (fast)
  Determining occupation numbers for Kohn-Sham eigenstates.
  | Chemical potential (Fermi level) in eV                 : -.45943317E+01
  | Error in electron count due to remaining E_F inaccuracy: 0.00000000E+00
  | Maximum occupation number of highest empty state:  0.00E+00

  Writing Kohn-Sham eigenvalues.

  State    Occupation    Eigenvalue [Ha]    Eigenvalue [eV]
      1       2.00000         -19.052085         -518.43360
      2       2.00000         -19.042428         -518.17082
      3       2.00000         -19.040030         -518.10557
      4       2.00000         -19.032050         -517.88842
      5       2.00000         -19.019703         -517.55246
      6       2.00000          -1.100281          -29.94018
      7       2.00000          -1.086731          -29.57145
      8       2.00000          -1.083060          -29.47156
      9       2.00000          -1.064252          -28.95978
     10       2.00000          -1.042009          -28.35452
     11       2.00000          -0.648442          -17.64500
     12       2.00000          -0.605224          -16.46897
     13       2.00000          -0.603069          -16.41035
     14       2.00000          -0.593782          -16.15764
     15       2.00000          -0.589102          -16.03028
     16       2.00000          -0.519342          -14.13202
     17       2.00000          -0.505525          -13.75604
     18       2.00000          -0.504805          -13.73644
     19       2.00000          -0.491393          -13.37148
     20       2.00000          -0.469914          -12.78700
     21       2.00000          -0.440239          -11.97951
     22       2.00000          -0.430625          -11.71791
     23       2.00000          -0.427035          -11.62022
     24       2.00000          -0.424388          -11.54818
     25       2.00000          -0.402432          -10.95074
     26       0.00000          -0.102648           -2.79319
     27       0.00000          -0.075571           -2.05640
     28       0.00000          -0.062488           -1.70039
     29       0.00000          -0.060604           -1.64911
     30       0.00000          -0.039351           -1.07080
     31       0.00000          -0.019269           -0.52433
     32       0.00000          -0.013656           -0.37161
     33       0.00000           0.028216            0.76780
     34       0.00000           0.044243            1.20391
     35       0.00000           0.047711            1.29827
     36       0.00000           0.072718            1.97875
     37       0.00000           0.076394            2.07879
     38       0.00000           0.085816            2.33516
     39       0.00000           0.091862            2.49970
     40       0.00000           0.100009            2.72137
     41       0.00000           0.102266            2.78281
     42       0.00000           0.109705            2.98522
     43       0.00000           0.111627            3.03751
     44       0.00000           0.127539            3.47051
     45       0.00000           0.133882            3.64312
     46       0.00000           0.139856            3.80566
     47       0.00000           0.150315            4.09027
     48       0.00000           0.156088            4.24736
     49       0.00000           0.170189            4.63107
     50       0.00000           0.174349            4.74427
     51       0.00000           0.190535            5.18471
     52       0.00000           0.204447            5.56328
     53       0.00000           0.224567            6.11077
     54       0.00000           0.234634            6.38472
     55       0.00000           0.251348            6.83951
     56       0.00000           0.257126            6.99676
     57       0.00000           0.280755            7.63973
     58       0.00000           0.294385            8.01064
     59       0.00000           0.302934            8.24325
     60       0.00000           0.331864            9.03049
     61       0.00000           0.339095            9.22725
     62       0.00000           0.349189            9.50190
     63       0.00000           0.365207            9.93779
     64       0.00000           0.371504           10.10913
     65       0.00000           0.382071           10.39667
     66       0.00000           0.388545           10.57285
     67       0.00000           0.399168           10.86192
     68       0.00000           0.411298           11.19199
     69       0.00000           0.416248           11.32667
     70       0.00000           0.427014           11.61964
     71       0.00000           0.439814           11.96794
     72       0.00000           0.451831           12.29495
     73       0.00000           0.459095           12.49262
     74       0.00000           0.488662           13.29717
     75       0.00000           0.501500           13.64651
     76       0.00000           0.505065           13.74351
     77       0.00000           0.523137           14.23527
     78       0.00000           0.556273           15.13696
     79       0.00000           0.567791           15.45038
     80       0.00000           0.577669           15.71917
     81       0.00000           0.588206           16.00591
     82       0.00000           0.622675           16.94386
     83       0.00000           0.675955           18.39367
     84       0.00000           0.695237           18.91837
     85       0.00000           0.705862           19.20749

  Highest occupied state (VBM) at    -10.95073566 eV
  | Occupation number:      2.00000000

  Lowest unoccupied state (CBM) at    -2.79319138 eV
  | Occupation number:      0.00000000

  Overall HOMO-LUMO gap:      8.15754427 eV.
  Calculating total energy contributions from superposition of free atom densities.

  Total energy components:
  | Sum of eigenvalues            :        -216.43589201 Ha       -5889.52027713 eV
  | XC energy correction          :         -45.50628692 Ha       -1238.28907045 eV
  | XC potential correction       :          58.13945610 Ha        1582.05509458 eV
  | Free-atom electrostatic energy:        -179.26283246 Ha       -4877.98986075 eV
  | Hartree energy correction     :           0.00000000 Ha           0.00000000 eV
  | van der Waals energy corr.    :           0.00000000 Ha           0.00000000 eV
  | Entropy correction            :           0.00000000 Ha           0.00000000 eV
  | ---------------------------
  | Total energy                  :        -383.06555529 Ha      -10423.74411375 eV
  | Total energy, T -> 0          :        -383.06555529 Ha      -10423.74411375 eV  <-- do not rely on this value for anything but (periodic) metals
  | Electronic free energy        :        -383.06555529 Ha      -10423.74411375 eV

  Derived energy quantities:
  | Kinetic energy                :         379.05271971 Ha       10314.54930169 eV
  | Electrostatic energy          :        -716.61198808 Ha      -19500.00434499 eV
  | Energy correction for multipole
  | error in Hartree potential    :           0.00000000 Ha           0.00000000 eV
  | Sum of eigenvalues per atom                           :        -392.63468514 eV
  | Total energy (T->0) per atom                          :        -694.91627425 eV  <-- do not rely on this value for anything but (periodic) metals
  | Electronic free energy per atom                       :        -694.91627425 eV
  Initialize hartree_potential_storage
  Max. number of atoms included in rho_multipole:           15

  End scf initialization - timings             :  max(cpu_time)    wall_clock(cpu1)
  | Time for scf. initialization               :        1.942 s           1.942 s
  | Boundary condition initialization          :        0.000 s           0.007 s
  | Integration                                :        1.367 s           1.367 s
  | Solution of K.-S. eqns.                    :        0.197 s           0.197 s
  | Grid partitioning                          :        0.156 s           0.156 s
  | Preloading free-atom quantities on grid    :        0.013 s           0.013 s
  | Free-atom superposition energy             :        0.066 s           0.066 s
  | Total energy evaluation                    :        0.000 s           0.000 s
------------------------------------------------------------

------------------------------------------------------------
          Begin self-consistency iteration #    1

  Date     :  20150727, Time     :  120115.872
------------------------------------------------------------
  Evaluating new KS density.
  Integration grid: deviation in total charge (<rho> - N_e) =   2.842171E-14
  Pulay mixing of updated and previous charge densities.

  Evaluating partitioned Hartree potential by multipole expansion.
  | Analytical far-field extrapolation by fixed multipoles:
  | Hartree multipole sum: apparent total charge =  -0.183259E-05
  Summing up the Hartree potential.
  Time summed over all CPUs for potential: real work        2.566 s, elapsed        2.577 s
  | RMS charge density error from multipole expansion :   0.155436E-02

  Integrating Hamiltonian matrix: batch-based integration.
  Time summed over all CPUs for integration: real work        6.993 s, elapsed        7.139 s

  Updating Kohn-Sham eigenvalues, eigenvectors, occupation numbers, and Fermi level.
  Solving generalized eigenproblem
  Updating Kohn-Sham eigenvalues and eigenfunctions.
  Solving real generalised eigenvalue problem by standard LAPACK (fast)
  Determining occupation numbers for Kohn-Sham eigenstates.
  | Chemical potential (Fermi level) in eV                 : -.40801995E+01
  | Error in electron count due to remaining E_F inaccuracy: 0.00000000E+00
  | Maximum occupation number of highest empty state:  0.00E+00

  Writing Kohn-Sham eigenvalues.

  State    Occupation    Eigenvalue [Ha]    Eigenvalue [eV]
      1       2.00000         -18.976504         -516.37694
      2       2.00000         -18.965591         -516.07999
      3       2.00000         -18.965180         -516.06881
      4       2.00000         -18.959939         -515.92619
      5       2.00000         -18.928959         -515.08319
      6       2.00000          -1.054215          -28.68665
      7       2.00000          -1.051567          -28.61460
      8       2.00000          -1.046668          -28.48128
      9       2.00000          -1.031373          -28.06509
     10       2.00000          -0.991412          -26.97770
     11       2.00000          -0.605327          -16.47179
     12       2.00000          -0.577562          -15.71627
     13       2.00000          -0.572552          -15.57994
     14       2.00000          -0.567511          -15.44277
     15       2.00000          -0.550003          -14.96633
     16       2.00000          -0.480080          -13.06363
     17       2.00000          -0.468345          -12.74431
     18       2.00000          -0.466262          -12.68763
     19       2.00000          -0.450229          -12.25136
     20       2.00000          -0.424695          -11.55655
     21       2.00000          -0.394912          -10.74609
     22       2.00000          -0.389935          -10.61066
     23       2.00000          -0.387914          -10.55568
     24       2.00000          -0.385840          -10.49924
     25       2.00000          -0.348731           -9.48946
     26       0.00000          -0.094066           -2.55967
     27       0.00000          -0.068033           -1.85128
     28       0.00000          -0.053746           -1.46250
     29       0.00000          -0.048578           -1.32188
     30       0.00000          -0.027576           -0.75039
     31       0.00000          -0.012406           -0.33757
     32       0.00000          -0.007208           -0.19613
     33       0.00000           0.036406            0.99065
     34       0.00000           0.053899            1.46668
     35       0.00000           0.057653            1.56883
     36       0.00000           0.080110            2.17990
     37       0.00000           0.086842            2.36309
     38       0.00000           0.094053            2.55932
     39       0.00000           0.099667            2.71207
     40       0.00000           0.107950            2.93746
     41       0.00000           0.110335            3.00237
     42       0.00000           0.119350            3.24769
     43       0.00000           0.122693            3.33864
     44       0.00000           0.135323            3.68232
     45       0.00000           0.144520            3.93259
     46       0.00000           0.159092            4.32911
     47       0.00000           0.163498            4.44901
     48       0.00000           0.164953            4.48859
     49       0.00000           0.183929            5.00497
     50       0.00000           0.186241            5.06789
     51       0.00000           0.204150            5.55520
     52       0.00000           0.214904            5.84785
     53       0.00000           0.232812            6.33515
     54       0.00000           0.246220            6.69999
     55       0.00000           0.263916            7.18153
     56       0.00000           0.267820            7.28775
     57       0.00000           0.291690            7.93730
     58       0.00000           0.304612            8.28892
     59       0.00000           0.312698            8.50894
     60       0.00000           0.343632            9.35070
     61       0.00000           0.350681            9.54252
     62       0.00000           0.357459            9.72697
     63       0.00000           0.373273           10.15728
     64       0.00000           0.380332           10.34935
     65       0.00000           0.392794           10.68848
     66       0.00000           0.398525           10.84441
     67       0.00000           0.409887           11.15358
     68       0.00000           0.423083           11.51267
     69       0.00000           0.426046           11.59329
     70       0.00000           0.435775           11.85805
     71       0.00000           0.447388           12.17405
     72       0.00000           0.463003           12.59895
     73       0.00000           0.471441           12.82857
     74       0.00000           0.500532           13.62016
     75       0.00000           0.511602           13.92140
     76       0.00000           0.514407           13.99773
     77       0.00000           0.535693           14.57695
     78       0.00000           0.567017           15.42932
     79       0.00000           0.584860           15.91484
     80       0.00000           0.592500           16.12276
     81       0.00000           0.604340           16.44493
     82       0.00000           0.635575           17.29487
     83       0.00000           0.689795           18.77028
     84       0.00000           0.710426           19.33167
     85       0.00000           0.722130           19.65017

  Highest occupied state (VBM) at     -9.48945798 eV
  | Occupation number:      2.00000000

  Lowest unoccupied state (CBM) at    -2.55967163 eV
  | Occupation number:      0.00000000

  Overall HOMO-LUMO gap:      6.92978635 eV.

  Total energy components:
  | Sum of eigenvalues            :        -214.08261123 Ha       -5825.48424906 eV
  | XC energy correction          :         -45.74715033 Ha       -1244.84329733 eV
  | XC potential correction       :          58.45503355 Ha        1590.64239376 eV
  | Free-atom electrostatic energy:        -179.26283246 Ha       -4877.98986075 eV
  | Hartree energy correction     :          -2.27693856 Ha         -61.95865053 eV
  | van der Waals energy corr.    :           0.00000000 Ha           0.00000000 eV
  | Entropy correction            :           0.00000000 Ha           0.00000000 eV
  | ---------------------------
  | Total energy                  :        -382.91449904 Ha      -10419.63366391 eV
  | Total energy, T -> 0          :        -382.91449904 Ha      -10419.63366391 eV  <-- do not rely on this value for anything but (periodic) metals
  | Electronic free energy        :        -382.91449904 Ha      -10419.63366391 eV

  Derived energy quantities:
  | Kinetic energy                :         380.47615028 Ha       10353.28281831 eV
  | Electrostatic energy          :        -717.64349899 Ha      -19528.07318488 eV
  | Energy correction for multipole
  | error in Hartree potential    :          -0.00014931 Ha          -0.00406293 eV
  | Sum of eigenvalues per atom                           :        -388.36561660 eV
  | Total energy (T->0) per atom                          :        -694.64224426 eV  <-- do not rely on this value for anything but (periodic) metals
  | Electronic free energy per atom                       :        -694.64224426 eV

  Self-consistency convergence accuracy:
  | Change of charge density      : 0.6609E+00
  | Change of sum of eigenvalues  : 0.6404E+02 eV
  | Change of total energy        : 0.4110E+01 eV

  End self-consistency iteration #     1       :  max(cpu_time)    wall_clock(cpu1)
  | Time for this iteration                    :        1.908 s           1.908 s
  | Charge density update                      :        0.628 s           0.629 s
  | Density mixing                             :        0.003 s           0.003 s
  | Hartree multipole update                   :        0.005 s           0.005 s
  | Hartree multipole summation                :        0.323 s           0.323 s
  | Integration                                :        0.895 s           0.894 s
  | Solution of K.-S. eqns.                    :        0.053 s           0.053 s
  | Total energy evaluation                    :        0.000 s           0.000 s
------------------------------------------------------------

------------------------------------------------------------
          Begin self-consistency iteration #    2

  Date     :  20150727, Time     :  120117.781
------------------------------------------------------------
  Evaluating new KS density.
  Integration grid: deviation in total charge (<rho> - N_e) =   7.105427E-15
  Pulay mixing of updated and previous charge densities.

  Evaluating partitioned Hartree potential by multipole expansion.
  | Analytical far-field extrapolation by fixed multipoles:
  | Hartree multipole sum: apparent total charge =  -0.500763E-05
  Summing up the Hartree potential.
  Time summed over all CPUs for potential: real work        2.565 s, elapsed        2.575 s
  | RMS charge density error from multipole expansion :   0.609964E-02

  Integrating Hamiltonian matrix: batch-based integration.
  Time summed over all CPUs for integration: real work        6.962 s, elapsed        7.105 s

  Updating Kohn-Sham eigenvalues, eigenvectors, occupation numbers, and Fermi level.
  Solving generalized eigenproblem
  Updating Kohn-Sham eigenvalues and eigenfunctions.
  Solving real generalised eigenvalue problem by standard LAPACK (fast)
  Determining occupation numbers for Kohn-Sham eigenstates.
  | Chemical potential (Fermi level) in eV                 : -.28909779E+01
  | Error in electron count due to remaining E_F inaccuracy: 0.00000000E+00
  | Maximum occupation number of highest empty state:  0.00E+00

  Highest occupied state (VBM) at     -6.10449684 eV
  | Occupation number:      2.00000000

  Lowest unoccupied state (CBM) at    -2.08197009 eV
  | Occupation number:      0.00000000

  Overall HOMO-LUMO gap:      4.02252674 eV.

  Total energy components:
  | Sum of eigenvalues            :        -208.72271495 Ha       -5679.63405041 eV
  | XC energy correction          :         -46.31826825 Ha       -1260.38420682 eV
  | XC potential correction       :          59.20274275 Ha        1610.98859636 eV
  | Free-atom electrostatic energy:        -179.26283246 Ha       -4877.98986075 eV
  | Hartree energy correction     :          -7.64327479 Ha        -207.98408906 eV
  | van der Waals energy corr.    :           0.00000000 Ha           0.00000000 eV
  | Entropy correction            :           0.00000000 Ha           0.00000000 eV
  | ---------------------------
  | Total energy                  :        -382.74434771 Ha      -10415.00361068 eV
  | Total energy, T -> 0          :        -382.74434771 Ha      -10415.00361068 eV  <-- do not rely on this value for anything but (periodic) metals
  | Electronic free energy        :        -382.74434771 Ha      -10415.00361068 eV

  Derived energy quantities:
  | Kinetic energy                :         383.20898751 Ha       10427.64710300 eV
  | Electrostatic energy          :        -719.63506696 Ha      -19582.26650685 eV
  | Energy correction for multipole
  | error in Hartree potential    :          -0.00130020 Ha          -0.03538026 eV
  | Sum of eigenvalues per atom                           :        -378.64227003 eV
  | Total energy (T->0) per atom                          :        -694.33357405 eV  <-- do not rely on this value for anything but (periodic) metals
  | Electronic free energy per atom                       :        -694.33357405 eV

  Self-consistency convergence accuracy:
  | Change of charge density      : 0.4979E+00
  | Change of sum of eigenvalues  : 0.1459E+03 eV
  | Change of total energy        : 0.4630E+01 eV

  End self-consistency iteration #     2       :  max(cpu_time)    wall_clock(cpu1)
  | Time for this iteration                    :        1.902 s           1.901 s
  | Charge density update                      :        0.625 s           0.624 s
  | Density mixing                             :        0.005 s           0.005 s
  | Hartree multipole update                   :        0.005 s           0.004 s
  | Hartree multipole summation                :        0.323 s           0.323 s
  | Integration                                :        0.890 s           0.890 s
  | Solution of K.-S. eqns.                    :        0.054 s           0.054 s
  | Total energy evaluation                    :        0.000 s           0.000 s
------------------------------------------------------------

------------------------------------------------------------
          Begin self-consistency iteration #    3

  Date     :  20150727, Time     :  120119.683
------------------------------------------------------------
  Evaluating new KS density.
  Integration grid: deviation in total charge (<rho> - N_e) =  -7.105427E-15
  Pulay mixing of updated and previous charge densities.

  Evaluating partitioned Hartree potential by multipole expansion.
  | Analytical far-field extrapolation by fixed multipoles:
  | Hartree multipole sum: apparent total charge =  -0.417128E-05
  Summing up the Hartree potential.
  Time summed over all CPUs for potential: real work        2.565 s, elapsed        2.575 s
  | RMS charge density error from multipole expansion :   0.126055E-01

  Integrating Hamiltonian matrix: batch-based integration.
  Time summed over all CPUs for integration: real work        6.958 s, elapsed        7.095 s

  Updating Kohn-Sham eigenvalues, eigenvectors, occupation numbers, and Fermi level.
  Solving generalized eigenproblem
  Updating Kohn-Sham eigenvalues and eigenfunctions.
  Solving real generalised eigenvalue problem by standard LAPACK (fast)
  Determining occupation numbers for Kohn-Sham eigenstates.
  | Chemical potential (Fermi level) in eV                 : -.26841333E+01
  | Error in electron count due to remaining E_F inaccuracy: 0.00000000E+00
  | Maximum occupation number of highest empty state:  0.00E+00

  Highest occupied state (VBM) at     -5.85978045 eV
  | Occupation number:      2.00000000

  Lowest unoccupied state (CBM) at    -2.02756687 eV
  | Occupation number:      0.00000000

  Overall HOMO-LUMO gap:      3.83221358 eV.

  Total energy components:
  | Sum of eigenvalues            :        -208.97601297 Ha       -5686.52664009 eV
  | XC energy correction          :         -46.28267140 Ha       -1259.41556727 eV
  | XC potential correction       :          59.15146776 Ha        1609.59333302 eV
  | Free-atom electrostatic energy:        -179.26283246 Ha       -4877.98986075 eV
  | Hartree energy correction     :          -7.36870922 Ha        -200.51277975 eV
  | van der Waals energy corr.    :           0.00000000 Ha           0.00000000 eV
  | Entropy correction            :           0.00000000 Ha           0.00000000 eV
  | ---------------------------
  | Total energy                  :        -382.73875829 Ha      -10414.85151485 eV
  | Total energy, T -> 0          :        -382.73875829 Ha      -10414.85151485 eV  <-- do not rely on this value for anything but (periodic) metals
  | Electronic free energy        :        -382.73875829 Ha      -10414.85151485 eV

  Derived energy quantities:
  | Kinetic energy                :         381.11854768 Ha       10370.76334101 eV
  | Electrostatic energy          :        -717.57463456 Ha      -19526.19928859 eV
  | Energy correction for multipole
  | error in Hartree potential    :          -0.00579378 Ha          -0.15765669 eV
  | Sum of eigenvalues per atom                           :        -379.10177601 eV
  | Total energy (T->0) per atom                          :        -694.32343432 eV  <-- do not rely on this value for anything but (periodic) metals
  | Electronic free energy per atom                       :        -694.32343432 eV

  Self-consistency convergence accuracy:
  | Change of charge density      : 0.2583E+00
  | Change of sum of eigenvalues  : -.6893E+01 eV
  | Change of total energy        : 0.1521E+00 eV

  End self-consistency iteration #     3       :  max(cpu_time)    wall_clock(cpu1)
  | Time for this iteration                    :        1.896 s           1.895 s
  | Charge density update                      :        0.619 s           0.618 s
  | Density mixing                             :        0.007 s           0.007 s
  | Hartree multipole update                   :        0.005 s           0.005 s
  | Hartree multipole summation                :        0.323 s           0.323 s
  | Integration                                :        0.889 s           0.888 s
  | Solution of K.-S. eqns.                    :        0.053 s           0.054 s
  | Total energy evaluation                    :        0.000 s           0.000 s
------------------------------------------------------------

------------------------------------------------------------
          Begin self-consistency iteration #    4

  Date     :  20150727, Time     :  120121.578
------------------------------------------------------------
  Evaluating new KS density.
  Integration grid: deviation in total charge (<rho> - N_e) =  -2.131628E-14
  Pulay mixing of updated and previous charge densities.

  Evaluating partitioned Hartree potential by multipole expansion.
  | Analytical far-field extrapolation by fixed multipoles:
  | Hartree multipole sum: apparent total charge =  -0.503838E-05
  Summing up the Hartree potential.
  Time summed over all CPUs for potential: real work        2.565 s, elapsed        2.574 s
  | RMS charge density error from multipole expansion :   0.167698E-01

  Integrating Hamiltonian matrix: batch-based integration.
  Time summed over all CPUs for integration: real work        6.936 s, elapsed        7.096 s

  Updating Kohn-Sham eigenvalues, eigenvectors, occupation numbers, and Fermi level.
  Solving generalized eigenproblem
  Updating Kohn-Sham eigenvalues and eigenfunctions.
  Solving real generalised eigenvalue problem by standard LAPACK (fast)
  Determining occupation numbers for Kohn-Sham eigenstates.
  | Chemical potential (Fermi level) in eV                 : -.22116089E+01
  | Error in electron count due to remaining E_F inaccuracy: 0.00000000E+00
  | Maximum occupation number of highest empty state:  0.00E+00

  Highest occupied state (VBM) at     -4.45363743 eV
  | Occupation number:      2.00000000

  Lowest unoccupied state (CBM) at    -1.86208581 eV
  | Occupation number:      0.00000000

  Overall HOMO-LUMO gap:      2.59155161 eV.

  Total energy components:
  | Sum of eigenvalues            :        -207.01551480 Ha       -5633.17877064 eV
  | XC energy correction          :         -46.51169236 Ha       -1265.64754466 eV
  | XC potential correction       :          59.45055266 Ha        1617.73184715 eV
  | Free-atom electrostatic energy:        -179.26283246 Ha       -4877.98986075 eV
  | Hartree energy correction     :          -9.38576959 Ha        -255.39978525 eV
  | van der Waals energy corr.    :           0.00000000 Ha           0.00000000 eV
  | Entropy correction            :           0.00000000 Ha           0.00000000 eV
  | ---------------------------
  | Total energy                  :        -382.72525656 Ha      -10414.48411414 eV
  | Total energy, T -> 0          :        -382.72525656 Ha      -10414.48411414 eV  <-- do not rely on this value for anything but (periodic) metals
  | Electronic free energy        :        -382.72525656 Ha      -10414.48411414 eV

  Derived energy quantities:
  | Kinetic energy                :         381.36174966 Ha       10377.38120359 eV
  | Electrostatic energy          :        -717.57531386 Ha      -19526.21777307 eV
  | Energy correction for multipole
  | error in Hartree potential    :          -0.00794809 Ha          -0.21627862 eV
  | Sum of eigenvalues per atom                           :        -375.54525138 eV
  | Total energy (T->0) per atom                          :        -694.29894094 eV  <-- do not rely on this value for anything but (periodic) metals
  | Electronic free energy per atom                       :        -694.29894094 eV

  Self-consistency convergence accuracy:
  | Change of charge density      : 0.1456E+00
  | Change of sum of eigenvalues  : 0.5335E+02 eV
  | Change of total energy        : 0.3674E+00 eV

  End self-consistency iteration #     4       :  max(cpu_time)    wall_clock(cpu1)
  | Time for this iteration                    :        1.899 s           1.898 s
  | Charge density update                      :        0.620 s           0.619 s
  | Density mixing                             :        0.008 s           0.009 s
  | Hartree multipole update                   :        0.005 s           0.004 s
  | Hartree multipole summation                :        0.322 s           0.323 s
  | Integration                                :        0.889 s           0.889 s
  | Solution of K.-S. eqns.                    :        0.054 s           0.054 s
  | Total energy evaluation                    :        0.000 s           0.000 s
------------------------------------------------------------

------------------------------------------------------------
          Begin self-consistency iteration #    5

  Date     :  20150727, Time     :  120123.476
------------------------------------------------------------
  Evaluating new KS density.
  Integration grid: deviation in total charge (<rho> - N_e) =  -1.421085E-14
  Pulay mixing of updated and previous charge densities.

  Evaluating partitioned Hartree potential by multipole expansion.
  | Analytical far-field extrapolation by fixed multipoles:
  | Hartree multipole sum: apparent total charge =  -0.486042E-05
  Summing up the Hartree potential.
  Time summed over all CPUs for potential: real work        2.565 s, elapsed        2.574 s
  | RMS charge density error from multipole expansion :   0.169442E-01

  Integrating Hamiltonian matrix: batch-based integration.
  Time summed over all CPUs for integration: real work        6.931 s, elapsed        7.100 s

  Updating Kohn-Sham eigenvalues, eigenvectors, occupation numbers, and Fermi level.
  Solving generalized eigenproblem
  Updating Kohn-Sham eigenvalues and eigenfunctions.
  Solving real generalised eigenvalue problem by standard LAPACK (fast)
  Determining occupation numbers for Kohn-Sham eigenstates.
  | Chemical potential (Fermi level) in eV                 : -.22298231E+01
  | Error in electron count due to remaining E_F inaccuracy: 0.00000000E+00
  | Maximum occupation number of highest empty state:  0.00E+00

  Highest occupied state (VBM) at     -4.45453650 eV
  | Occupation number:      2.00000000

  Lowest unoccupied state (CBM) at    -1.86660632 eV
  | Occupation number:      0.00000000

  Overall HOMO-LUMO gap:      2.58793018 eV.

  Total energy components:
  | Sum of eigenvalues            :        -207.09619157 Ha       -5635.37409722 eV
  | XC energy correction          :         -46.50550526 Ha       -1265.47918499 eV
  | XC potential correction       :          59.44197043 Ha        1617.49831275 eV
  | Free-atom electrostatic energy:        -179.26283246 Ha       -4877.98986075 eV
  | Hartree energy correction     :          -9.30234477 Ha        -253.12968031 eV
  | van der Waals energy corr.    :           0.00000000 Ha           0.00000000 eV
  | Entropy correction            :           0.00000000 Ha           0.00000000 eV
  | ---------------------------
  | Total energy                  :        -382.72490363 Ha      -10414.47451053 eV
  | Total energy, T -> 0          :        -382.72490363 Ha      -10414.47451053 eV  <-- do not rely on this value for anything but (periodic) metals
  | Electronic free energy        :        -382.72490363 Ha      -10414.47451053 eV

  Derived energy quantities:
  | Kinetic energy                :         381.38623799 Ha       10378.04756486 eV
  | Electrostatic energy          :        -717.60563636 Ha      -19527.04289039 eV
  | Energy correction for multipole
  | error in Hartree potential    :          -0.00784977 Ha          -0.21360322 eV
  | Sum of eigenvalues per atom                           :        -375.69160648 eV
  | Total energy (T->0) per atom                          :        -694.29830070 eV  <-- do not rely on this value for anything but (periodic) metals
  | Electronic free energy per atom                       :        -694.29830070 eV

  Self-consistency convergence accuracy:
  | Change of charge density      : 0.2807E-01
  | Change of sum of eigenvalues  : -.2195E+01 eV
  | Change of total energy        : 0.9604E-02 eV

  End self-consistency iteration #     5       :  max(cpu_time)    wall_clock(cpu1)
  | Time for this iteration                    :        1.898 s           1.899 s
  | Charge density update                      :        0.619 s           0.619 s
  | Density mixing                             :        0.009 s           0.009 s
  | Hartree multipole update                   :        0.005 s           0.004 s
  | Hartree multipole summation                :        0.323 s           0.323 s
  | Integration                                :        0.889 s           0.889 s
  | Solution of K.-S. eqns.                    :        0.053 s           0.053 s
  | Total energy evaluation                    :        0.000 s           0.001 s
------------------------------------------------------------

------------------------------------------------------------
          Begin self-consistency iteration #    6

  Date     :  20150727, Time     :  120125.375
------------------------------------------------------------
  Evaluating new KS density.
  Integration grid: deviation in total charge (<rho> - N_e) =   7.105427E-15
  Pulay mixing of updated and previous charge densities.

  Evaluating partitioned Hartree potential by multipole expansion.
  | Analytical far-field extrapolation by fixed multipoles:
  | Hartree multipole sum: apparent total charge =  -0.485415E-05
  Summing up the Hartree potential.
  Time summed over all CPUs for potential: real work        2.565 s, elapsed        2.574 s
  | RMS charge density error from multipole expansion :   0.171762E-01

  Integrating Hamiltonian matrix: batch-based integration.
  Time summed over all CPUs for integration: real work        6.944 s, elapsed        7.110 s

  Updating Kohn-Sham eigenvalues, eigenvectors, occupation numbers, and Fermi level.
  Solving generalized eigenproblem
  Updating Kohn-Sham eigenvalues and eigenfunctions.
  Solving real generalised eigenvalue problem by standard LAPACK (fast)
  Determining occupation numbers for Kohn-Sham eigenstates.
  | Chemical potential (Fermi level) in eV                 : -.22151808E+01
  | Error in electron count due to remaining E_F inaccuracy: 0.00000000E+00
  | Maximum occupation number of highest empty state:  0.00E+00

  Highest occupied state (VBM) at     -4.41766500 eV
  | Occupation number:      2.00000000

  Lowest unoccupied state (CBM) at    -1.86037412 eV
  | Occupation number:      0.00000000

  Overall HOMO-LUMO gap:      2.55729088 eV.

  Total energy components:
  | Sum of eigenvalues            :        -207.03887316 Ha       -5633.81438391 eV
  | XC energy correction          :         -46.51317012 Ha       -1265.68775641 eV
  | XC potential correction       :          59.45186944 Ha        1617.76767860 eV
  | Free-atom electrostatic energy:        -179.26283246 Ha       -4877.98986075 eV
  | Hartree energy correction     :          -9.36197286 Ha        -254.75224329 eV
  | van der Waals energy corr.    :           0.00000000 Ha           0.00000000 eV
  | Entropy correction            :           0.00000000 Ha           0.00000000 eV
  | ---------------------------
  | Total energy                  :        -382.72497916 Ha      -10414.47656577 eV
  | Total energy, T -> 0          :        -382.72497916 Ha      -10414.47656577 eV  <-- do not rely on this value for anything but (periodic) metals
  | Electronic free energy        :        -382.72497916 Ha      -10414.47656577 eV

  Derived energy quantities:
  | Kinetic energy                :         381.39172407 Ha       10378.19684866 eV
  | Electrostatic energy          :        -717.60353311 Ha      -19526.98565802 eV
  | Energy correction for multipole
  | error in Hartree potential    :          -0.00793506 Ha          -0.21592410 eV
  | Sum of eigenvalues per atom                           :        -375.58762559 eV
  | Total energy (T->0) per atom                          :        -694.29843772 eV  <-- do not rely on this value for anything but (periodic) metals
  | Electronic free energy per atom                       :        -694.29843772 eV

  Self-consistency convergence accuracy:
  | Change of charge density      : 0.1085E-01
  | Change of sum of eigenvalues  : 0.1560E+01 eV
  | Change of total energy        : -.2055E-02 eV

  End self-consistency iteration #     6       :  max(cpu_time)    wall_clock(cpu1)
  | Time for this iteration                    :        1.904 s           1.904 s
  | Charge density update                      :        0.621 s           0.621 s
  | Density mixing                             :        0.011 s           0.011 s
  | Hartree multipole update                   :        0.005 s           0.005 s
  | Hartree multipole summation                :        0.322 s           0.322 s
  | Integration                                :        0.891 s           0.891 s
  | Solution of K.-S. eqns.                    :        0.054 s           0.054 s
  | Total energy evaluation                    :        0.000 s           0.000 s
------------------------------------------------------------

------------------------------------------------------------
          Begin self-consistency iteration #    7

  Date     :  20150727, Time     :  120127.279
------------------------------------------------------------
  Evaluating new KS density.
  Integration grid: deviation in total charge (<rho> - N_e) =   3.552714E-14
  Pulay mixing of updated and previous charge densities.

  Evaluating partitioned Hartree potential by multipole expansion.
  | Analytical far-field extrapolation by fixed multipoles:
  | Hartree multipole sum: apparent total charge =  -0.457014E-05
  Summing up the Hartree potential.
  Time summed over all CPUs for potential: real work        2.565 s, elapsed        2.576 s
  | RMS charge density error from multipole expansion :   0.171771E-01

  Integrating Hamiltonian matrix: batch-based integration.
  Time summed over all CPUs for integration: real work        6.944 s, elapsed        7.092 s

  Updating Kohn-Sham eigenvalues, eigenvectors, occupation numbers, and Fermi level.
  Solving generalized eigenproblem
  Updating Kohn-Sham eigenvalues and eigenfunctions.
  Solving real generalised eigenvalue problem by standard LAPACK (fast)
  Determining occupation numbers for Kohn-Sham eigenstates.
  | Chemical potential (Fermi level) in eV                 : -.23043429E+01
  | Error in electron count due to remaining E_F inaccuracy: 0.00000000E+00
  | Maximum occupation number of highest empty state:  0.00E+00

  Highest occupied state (VBM) at     -4.57772637 eV
  | Occupation number:      2.00000000

  Lowest unoccupied state (CBM) at    -1.87271781 eV
  | Occupation number:      0.00000000

  Overall HOMO-LUMO gap:      2.70500855 eV.

  Total energy components:
  | Sum of eigenvalues            :        -207.20645564 Ha       -5638.37453540 eV
  | XC energy correction          :         -46.49683620 Ha       -1265.24328787 eV
  | XC potential correction       :          59.42986678 Ha        1617.16895581 eV
  | Free-atom electrostatic energy:        -179.26283246 Ha       -4877.98986075 eV
  | Hartree energy correction     :          -9.18859504 Ha        -250.03439262 eV
  | van der Waals energy corr.    :           0.00000000 Ha           0.00000000 eV
  | Entropy correction            :           0.00000000 Ha           0.00000000 eV
  | ---------------------------
  | Total energy                  :        -382.72485256 Ha      -10414.47312083 eV
  | Total energy, T -> 0          :        -382.72485256 Ha      -10414.47312083 eV  <-- do not rely on this value for anything but (periodic) metals
  | Electronic free energy        :        -382.72485256 Ha      -10414.47312083 eV

  Derived energy quantities:
  | Kinetic energy                :         381.45913642 Ha       10380.03123208 eV
  | Electrostatic energy          :        -717.68715278 Ha      -19529.26106503 eV
  | Energy correction for multipole
  | error in Hartree potential    :          -0.00765880 Ha          -0.20840652 eV
  | Sum of eigenvalues per atom                           :        -375.89163569 eV
  | Total energy (T->0) per atom                          :        -694.29820806 eV  <-- do not rely on this value for anything but (periodic) metals
  | Electronic free energy per atom                       :        -694.29820806 eV

  Self-consistency convergence accuracy:
  | Change of charge density      : 0.1125E-01
  | Change of sum of eigenvalues  : -.4560E+01 eV
  | Change of total energy        : 0.3445E-02 eV

  End self-consistency iteration #     7       :  max(cpu_time)    wall_clock(cpu1)
  | Time for this iteration                    :        1.901 s           1.902 s
  | Charge density update                      :        0.619 s           0.620 s
  | Density mixing                             :        0.012 s           0.012 s
  | Hartree multipole update                   :        0.005 s           0.005 s
  | Hartree multipole summation                :        0.323 s           0.323 s
  | Integration                                :        0.888 s           0.888 s
  | Solution of K.-S. eqns.                    :        0.053 s           0.053 s
  | Total energy evaluation                    :        0.000 s           0.001 s
------------------------------------------------------------

------------------------------------------------------------
          Begin self-consistency iteration #    8

  Date     :  20150727, Time     :  120129.181
------------------------------------------------------------
  Evaluating new KS density.
  Integration grid: deviation in total charge (<rho> - N_e) =   2.131628E-14
  Pulay mixing of updated and previous charge densities.

  Evaluating partitioned Hartree potential by multipole expansion.
  | Analytical far-field extrapolation by fixed multipoles:
  | Hartree multipole sum: apparent total charge =  -0.457934E-05
  Summing up the Hartree potential.
  Time summed over all CPUs for potential: real work        2.565 s, elapsed        2.575 s
  | RMS charge density error from multipole expansion :   0.172290E-01

  Integrating Hamiltonian matrix: batch-based integration.
  Time summed over all CPUs for integration: real work        6.954 s, elapsed        7.107 s

  Updating Kohn-Sham eigenvalues, eigenvectors, occupation numbers, and Fermi level.
  Solving generalized eigenproblem
  Updating Kohn-Sham eigenvalues and eigenfunctions.
  Solving real generalised eigenvalue problem by standard LAPACK (fast)
  Determining occupation numbers for Kohn-Sham eigenstates.
  | Chemical potential (Fermi level) in eV                 : -.23040123E+01
  | Error in electron count due to remaining E_F inaccuracy: 0.00000000E+00
  | Maximum occupation number of highest empty state:  0.00E+00

  Highest occupied state (VBM) at     -4.55161844 eV
  | Occupation number:      2.00000000

  Lowest unoccupied state (CBM) at    -1.87159703 eV
  | Occupation number:      0.00000000

  Overall HOMO-LUMO gap:      2.68002141 eV.

  Total energy components:
  | Sum of eigenvalues            :        -207.18414686 Ha       -5637.76748249 eV
  | XC energy correction          :         -46.49926492 Ha       -1265.30937677 eV
  | XC potential correction       :          59.43304056 Ha        1617.25531882 eV
  | Free-atom electrostatic energy:        -179.26283246 Ha       -4877.98986075 eV
  | Hartree energy correction     :          -9.21164787 Ha        -250.66169206 eV
  | van der Waals energy corr.    :           0.00000000 Ha           0.00000000 eV
  | Entropy correction            :           0.00000000 Ha           0.00000000 eV
  | ---------------------------
  | Total energy                  :        -382.72485155 Ha      -10414.47309325 eV
  | Total energy, T -> 0          :        -382.72485155 Ha      -10414.47309325 eV  <-- do not rely on this value for anything but (periodic) metals
  | Electronic free energy        :        -382.72485155 Ha      -10414.47309325 eV

  Derived energy quantities:
  | Kinetic energy                :         381.46035809 Ha       10380.06447541 eV
  | Electrostatic energy          :        -717.68594472 Ha      -19529.22819189 eV
  | Energy correction for multipole
  | error in Hartree potential    :          -0.00769308 Ha          -0.20933943 eV
  | Sum of eigenvalues per atom                           :        -375.85116550 eV
  | Total energy (T->0) per atom                          :        -694.29820622 eV  <-- do not rely on this value for anything but (periodic) metals
  | Electronic free energy per atom                       :        -694.29820622 eV

  Self-consistency convergence accuracy:
  | Change of charge density      : 0.2225E-02
  | Change of sum of eigenvalues  : 0.6071E+00 eV
  | Change of total energy        : 0.2758E-04 eV

  End self-consistency iteration #     8       :  max(cpu_time)    wall_clock(cpu1)
  | Time for this iteration                    :        1.906 s           1.905 s
  | Charge density update                      :        0.620 s           0.620 s
  | Density mixing                             :        0.014 s           0.013 s
  | Hartree multipole update                   :        0.005 s           0.004 s
  | Hartree multipole summation                :        0.322 s           0.323 s
  | Integration                                :        0.890 s           0.890 s
  | Solution of K.-S. eqns.                    :        0.053 s           0.053 s
  | Total energy evaluation                    :        0.001 s           0.000 s
------------------------------------------------------------

------------------------------------------------------------
          Begin self-consistency iteration #    9

  Date     :  20150727, Time     :  120131.086
------------------------------------------------------------
  Evaluating new KS density.
  Integration grid: deviation in total charge (<rho> - N_e) =   1.421085E-14
  Pulay mixing of updated and previous charge densities.

  Evaluating partitioned Hartree potential by multipole expansion.
  | Analytical far-field extrapolation by fixed multipoles:
  | Hartree multipole sum: apparent total charge =  -0.457967E-05
  Summing up the Hartree potential.
  Time summed over all CPUs for potential: real work        2.565 s, elapsed        2.574 s
  | RMS charge density error from multipole expansion :   0.172394E-01

  Integrating Hamiltonian matrix: batch-based integration.
  Time summed over all CPUs for integration: real work        6.953 s, elapsed        7.105 s

  Updating Kohn-Sham eigenvalues, eigenvectors, occupation numbers, and Fermi level.
  Solving generalized eigenproblem
  Updating Kohn-Sham eigenvalues and eigenfunctions.
  Solving real generalised eigenvalue problem by standard LAPACK (fast)
  Determining occupation numbers for Kohn-Sham eigenstates.
  | Chemical potential (Fermi level) in eV                 : -.23622303E+01
  | Error in electron count due to remaining E_F inaccuracy: 0.00000000E+00
  | Maximum occupation number of highest empty state:  0.00E+00

  Highest occupied state (VBM) at     -4.54738375 eV
  | Occupation number:      2.00000000

  Lowest unoccupied state (CBM) at    -1.87154173 eV
  | Occupation number:      0.00000000

  Overall HOMO-LUMO gap:      2.67584202 eV.

  Total energy components:
  | Sum of eigenvalues            :        -207.17840128 Ha       -5637.61113732 eV
  | XC energy correction          :         -46.49977997 Ha       -1265.32339193 eV
  | XC potential correction       :          59.43371134 Ha        1617.27357167 eV
  | Free-atom electrostatic energy:        -179.26283246 Ha       -4877.98986075 eV
  | Hartree energy correction     :          -9.21754906 Ha        -250.82227175 eV
  | van der Waals energy corr.    :           0.00000000 Ha           0.00000000 eV
  | Entropy correction            :           0.00000000 Ha           0.00000000 eV
  | ---------------------------
  | Total energy                  :        -382.72485143 Ha      -10414.47309008 eV
  | Total energy, T -> 0          :        -382.72485143 Ha      -10414.47309008 eV  <-- do not rely on this value for anything but (periodic) metals
  | Electronic free energy        :        -382.72485143 Ha      -10414.47309008 eV

  Derived energy quantities:
  | Kinetic energy                :         381.46261043 Ha       10380.12576478 eV
  | Electrostatic energy          :        -717.68768189 Ha      -19529.27546293 eV
  | Energy correction for multipole
[...]
   ----------------------------------------------------------------
   Total forces(   4)            : -.685334E+00 -.198008E+01 -.493335E+00
  atom #    5
   Hellmann-Feynman + Multipole  : -.287200E+00 0.711047E+00 0.910718E+00
   Pulay + GGA                   : 0.725835E-02 0.371606E-01 0.885728E-01
   Van der Waals               : 0.167003E-02 0.400919E-03 -.230561E-02
   ----------------------------------------------------------------
   Total forces(   5)            : -.278271E+00 0.748608E+00 0.996985E+00
  atom #    6
   Hellmann-Feynman + Multipole  : 0.743491E+00 0.754209E+00 0.129809E+00
   Pulay + GGA                   : -.104889E+00 -.482111E-01 0.670232E-01
   Van der Waals               : 0.231449E-02 0.401706E-02 0.370171E-03
   ----------------------------------------------------------------
   Total forces(   6)            : 0.640917E+00 0.710015E+00 0.197202E+00
  atom #    7
   Hellmann-Feynman + Multipole  : -.635024E+01 0.646348E+00 -.102039E+02
   Pulay + GGA                   : 0.925766E+01 -.248414E+00 0.116979E+02
   Van der Waals               : -.841017E-03 0.350832E-02 0.553476E-02
   ----------------------------------------------------------------
   Total forces(   7)            : 0.290658E+01 0.401442E+00 0.149949E+01
  atom #    8
   Hellmann-Feynman + Multipole  : -.190539E+00 -.106659E+01 -.120057E+01
   Pulay + GGA                   : 0.405930E-01 0.988877E-01 0.923443E-01
   Van der Waals               : -.306541E-02 0.231090E-02 0.347262E-02
   ----------------------------------------------------------------
   Total forces(   8)            : -.153011E+00 -.965389E+00 -.110475E+01
  atom #    9
   Hellmann-Feynman + Multipole  : -.165398E+01 0.101854E+01 -.306067E+00
   Pulay + GGA                   : 0.126996E+00 -.527425E-01 0.186004E-01
   Van der Waals               : -.241446E-02 0.411279E-03 0.578676E-03
   ----------------------------------------------------------------
   Total forces(   9)            : -.152940E+01 0.966211E+00 -.286888E+00
  atom #   10
   Hellmann-Feynman + Multipole  : 0.712781E+01 -.579482E+01 -.967303E+01
   Pulay + GGA                   : -.830566E+01 0.768246E+01 0.114846E+02
   Van der Waals               : 0.175963E-02 0.155038E-02 -.104857E-01
   ----------------------------------------------------------------
   Total forces(  10)            : -.117610E+01 0.188920E+01 0.180111E+01
  atom #   11
   Hellmann-Feynman + Multipole  : -.442507E+00 0.320332E+00 -.224439E+01
   Pulay + GGA                   : 0.286643E-01 0.139527E-01 0.128754E+00
   Van der Waals               : -.364374E-03 -.109038E-02 -.228995E-02
   ----------------------------------------------------------------
   Total forces(  11)            : -.414207E+00 0.333194E+00 -.211793E+01
  atom #   12
   Hellmann-Feynman + Multipole  : 0.185976E+01 -.188660E+01 0.516262E+00
   Pulay + GGA                   : -.805581E-01 0.995414E-01 -.793068E-02
   Van der Waals               : 0.138802E-02 0.677687E-03 -.549520E-02
   ----------------------------------------------------------------
   Total forces(  12)            : 0.178059E+01 -.178638E+01 0.502836E+00
  atom #   13
   Hellmann-Feynman + Multipole  : -.143809E+02 -.518284E+01 0.328134E+00
   Pulay + GGA                   : 0.155328E+02 0.653308E+01 -.811628E+00
   Van der Waals               : 0.215788E-02 -.127184E-01 0.418708E-02
   ----------------------------------------------------------------
   Total forces(  13)            : 0.115399E+01 0.133753E+01 -.479307E+00
  atom #   14
   Hellmann-Feynman + Multipole  : -.632401E+00 0.115756E+00 -.173713E+00
   Pulay + GGA                   : 0.135264E+00 -.616239E-01 0.407632E-01
   Van der Waals               : -.145967E-02 -.887276E-02 0.237899E-02
   ----------------------------------------------------------------
   Total forces(  14)            : -.498597E+00 0.452591E-01 -.130571E+00
  atom #   15
   Hellmann-Feynman + Multipole  : -.735387E+00 -.152258E+01 0.711764E+00
   Pulay + GGA                   : 0.502757E-01 0.115789E+00 -.596491E-01
   Van der Waals               : 0.150675E-03 -.197154E-02 0.613066E-03
   ----------------------------------------------------------------
   Total forces(  15)            : -.684960E+00 -.140876E+01 0.652728E+00
  Timings for vdw_correction_hirshfeld (Tkatchenko-Scheffler 2009):
  | CPU time:        5.153 s, Wall clock time:        5.152 s.
  Removing unitary transformations (pure translations, rotations) from forces on atoms.
  Atomic forces before filtering:
  | Net force on center of mass :  0.508503E-02 -.614164E-03 0.102329E-01 eV/A
  | Net torque on center of mass:  0.811074E-03 0.777040E-02 -.121072E-01 eV
  Atomic forces after filtering:
  | Net force on center of mass :  -.892031E-16 -.160566E-14 -.624421E-15 eV/A
  | Net torque on center of mass:  -.188817E-14 0.217139E-14 -.302107E-14 eV
 
  Energy and forces in a compact form:
  | Total energy uncorrected      :         -0.104145398487592E+05 eV
  | Total energy corrected        :         -0.104145398487592E+05 eV  <-- do not rely on this value for anything but (periodic) metals
  | Electronic free energy        :         -0.104145398487592E+05 eV
  Total atomic forces (unitary forces cleaned) [eV/Ang]:
  |   1         -0.139050724704617E+01          0.355103271432500E+01         -0.222948846542849E+01
  |   2          0.220570101025805E+01         -0.350645735199459E+01          0.146668435233448E+01
  |   3         -0.187204222240545E+01         -0.336320128909065E+00         -0.266580292276418E+00
  |   4         -0.685441789353545E+00         -0.198020220844217E+01         -0.494077580871035E+00
  |   5         -0.278593536494557E+00          0.748553836358554E+00          0.996242555898474E+00
  |   6          0.640863267033106E+00          0.709746293836202E+00          0.196373644006111E+00
  |   7          0.290657029617653E+01          0.401791744969497E+00          0.149907874700476E+01
  |   8         -0.153245673179764E+00         -0.964992688092645E+00         -0.110517819537347E+01
  |   9         -0.152931272767989E+01          0.966725342056646E+00         -0.287165792996509E+00
  |  10         -0.117681297890018E+01          0.188927294041500E+01          0.180037601894422E+01
  |  11         -0.415039907932305E+00          0.333337000997073E+00         -0.211864430051391E+01
  |  12          0.177975495140261E+01         -0.178644672502719E+01          0.501975769872223E+00
  |  13          0.115324161930208E+01          0.133742888258197E+01         -0.480166747902834E+00
  |  14         -0.499314131745473E+00          0.453393400314933E-01         -0.131305669976799E+00
  |  15         -0.685820929435033E+00         -0.140880899310577E+01          0.651875957279198E+00
 
  ------------------------------------ 
  Start decomposition of the XC Energy 
  ------------------------------------ 
  Hartree-Fock part   :          0.000000000 Ha              0.000000000 eV
  ------------------------------------ 
  X Energy            :        -44.870976911 Ha          -1221.001405604 eV
  C Energy GGA        :         -1.627806772 Ha            -44.294875969 eV
  Total XC Energy     :        -46.498783683 Ha          -1265.296281573 eV
  LDA X and C from self-consistent density 
  X Energy LDA        :        -40.418415408 Ha          -1099.841042539 eV
  C Energy LDA        :         -3.293676933 Ha            -89.625509434 eV
  ------------------------------------ 
  End decomposition of the XC Energy 
  ------------------------------------ 
  Performing Hirshfeld analysis of fragment charges and moments.
  ----------------------------------------------------------------------
  | Atom     1: O
  |   Hirshfeld charge        :     -0.33239617
  |   Free atom volume        :     23.95238533
  |   Hirshfeld volume        :     23.57051498
  |   Hirshfeld dipole vector :      0.02854514       0.04777508       0.02847347
  |   Hirshfeld dipole moment :      0.06251417
  |   Hirshfeld second moments:      0.01207771      -0.02847939       0.01803573
  |                                 -0.02847939      -0.02987657      -0.03638527
  |                                  0.01803573      -0.03638527      -0.07122590
  ----------------------------------------------------------------------
  | Atom     2: H
  |   Hirshfeld charge        :      0.10912954
  |   Free atom volume        :     10.44207651
  |   Hirshfeld volume        :      7.71623152
  |   Hirshfeld dipole vector :     -0.05918336       0.08565660      -0.02913854
  |   Hirshfeld dipole moment :      0.10811465
  |   Hirshfeld second moments:      0.10324082       0.00393776       0.00733169
  |                                  0.00393776       0.06085686      -0.00782049
  |                                  0.00733169      -0.00782049       0.07335184
  ----------------------------------------------------------------------
  | Atom     3: H
  |   Hirshfeld charge        :      0.05878714
  |   Free atom volume        :     10.44207651
  |   Hirshfeld volume        :      8.47680625
  |   Hirshfeld dipole vector :      0.04622182       0.00746565       0.01633464
  |   Hirshfeld dipole moment :      0.04958844
  |   Hirshfeld second moments:      0.02552542      -0.02734998      -0.00093019
  |                                 -0.02734998       0.07531587      -0.00501438
  |                                 -0.00093019      -0.00501438       0.05729829
  ----------------------------------------------------------------------
  | Atom     4: O
  |   Hirshfeld charge        :     -0.31241361
  |   Free atom volume        :     23.95238533
  |   Hirshfeld volume        :     22.43608098
  |   Hirshfeld dipole vector :     -0.03108767       0.02317178       0.01460665
  |   Hirshfeld dipole moment :      0.04143343
  |   Hirshfeld second moments:      0.01599203       0.05462170      -0.01200597
  |                                  0.05462170       0.00855259       0.01853493
  |                                 -0.01200597       0.01853493      -0.01272438
  ----------------------------------------------------------------------
  | Atom     5: H
  |   Hirshfeld charge        :      0.06999202
  |   Free atom volume        :     10.44207651
  |   Hirshfeld volume        :      8.02726636
  |   Hirshfeld dipole vector :      0.01331854       0.04166413       0.03122388
  |   Hirshfeld dipole moment :      0.05374211
  |   Hirshfeld second moments:      0.08398515      -0.00136990      -0.01130972
  |                                 -0.00136990       0.03573729      -0.01894297
  |                                 -0.01130972      -0.01894297       0.06881619
  ----------------------------------------------------------------------
  | Atom     6: H
  |   Hirshfeld charge        :      0.12458015
  |   Free atom volume        :     10.44207651
  |   Hirshfeld volume        :      6.87013154
  |   Hirshfeld dipole vector :     -0.10274932      -0.06060491       0.02037685
  |   Hirshfeld dipole moment :      0.12101898
  |   Hirshfeld second moments:      0.09282374       0.01330936      -0.00039175
  |                                  0.01330936       0.10720966       0.01235839
  |                                 -0.00039175       0.01235839       0.09704731
  ----------------------------------------------------------------------
  | Atom     7: O
  |   Hirshfeld charge        :     -0.18128349
  |   Free atom volume        :     23.95238533
  |   Hirshfeld volume        :     20.46329239
  |   Hirshfeld dipole vector :     -0.01859532      -0.02885967       0.02969725
  |   Hirshfeld dipole moment :      0.04539376
  |   Hirshfeld second moments:      0.07298824      -0.02675717       0.00612045
  |                                 -0.02675717       0.08074973       0.03782036
  |                                  0.00612045       0.03782036       0.04935166
  ----------------------------------------------------------------------
  | Atom     8: H
  |   Hirshfeld charge        :      0.16538988
  |   Free atom volume        :     10.44207651
  |   Hirshfeld volume        :      6.27884496
  |   Hirshfeld dipole vector :      0.00437231       0.06842095       0.08857162
  |   Hirshfeld dipole moment :      0.11200658
  |   Hirshfeld second moments:      0.12732784      -0.00714153       0.00882758
  |                                 -0.00714153       0.12444608      -0.00123395
  |                                  0.00882758      -0.00123395       0.10424876
  ----------------------------------------------------------------------
  | Atom     9: H
  |   Hirshfeld charge        :      0.17475976
  |   Free atom volume        :     10.44207651
  |   Hirshfeld volume        :      5.72831206
  |   Hirshfeld dipole vector :      0.09071713      -0.07905019       0.01219556
  |   Hirshfeld dipole moment :      0.12094322
  |   Hirshfeld second moments:      0.12622261       0.00171718       0.00071407
  |                                  0.00171718       0.13100536       0.01567167
  |                                  0.00071407       0.01567167       0.13303199
  ----------------------------------------------------------------------
  | Atom    10: O
  |   Hirshfeld charge        :     -0.21544720
  |   Free atom volume        :     23.95238533
  |   Hirshfeld volume        :     20.70126734
  |   Hirshfeld dipole vector :     -0.03711571      -0.02016856       0.00896401
  |   Hirshfeld dipole moment :      0.04318218
  |   Hirshfeld second moments:      0.03008563      -0.03710542       0.02497650
  |                                 -0.03710542       0.05263369      -0.00681473
  |                                  0.02497650      -0.00681473       0.08063930
  ----------------------------------------------------------------------
  | Atom    11: H
  |   Hirshfeld charge        :      0.16405030
  |   Free atom volume        :     10.44207651
  |   Hirshfeld volume        :      5.86689120
  |   Hirshfeld dipole vector :      0.01709802      -0.01884249       0.11867087
  |   Hirshfeld dipole moment :      0.12136786
  |   Hirshfeld second moments:      0.12641178      -0.01421076       0.00574844
  |                                 -0.01421076       0.12736256       0.00138056
  |                                  0.00574844       0.00138056       0.12018892
  ----------------------------------------------------------------------
  | Atom    12: H
  |   Hirshfeld charge        :      0.16801969
  |   Free atom volume        :     10.44207651
  |   Hirshfeld volume        :      6.30871391
  |   Hirshfeld dipole vector :     -0.08653945       0.07287372      -0.01807333
  |   Hirshfeld dipole moment :      0.11457007
  |   Hirshfeld second moments:      0.11202398      -0.00179741      -0.00105460
  |                                 -0.00179741       0.11004574       0.00816257
  |                                 -0.00105460       0.00816257       0.12786030
  ----------------------------------------------------------------------
  | Atom    13: O
  |   Hirshfeld charge        :     -0.28015733
  |   Free atom volume        :     23.95238533
  |   Hirshfeld volume        :     21.71553847
  |   Hirshfeld dipole vector :      0.04505159       0.01037005      -0.00658088
  |   Hirshfeld dipole moment :      0.04669574
  |   Hirshfeld second moments:      0.01877380      -0.01240016       0.01687798
  |                                 -0.01240016       0.05072100      -0.05154946
  |                                  0.01687798      -0.05154946      -0.01012336
  ----------------------------------------------------------------------
  | Atom    14: H
  |   Hirshfeld charge        :      0.13766079
  |   Free atom volume        :     10.44207651
  |   Hirshfeld volume        :      6.67721080
  |   Hirshfeld dipole vector :      0.09814042      -0.04488532       0.03526554
  |   Hirshfeld dipole moment :      0.11353366
  |   Hirshfeld second moments:      0.10680354       0.01013380      -0.00272289
  |                                  0.01013380       0.11495069      -0.00882658
  |                                 -0.00272289      -0.00882658       0.09572502
  ----------------------------------------------------------------------
  | Atom    15: H
  |   Hirshfeld charge        :      0.14932100
  |   Free atom volume        :     10.44207651
  |   Hirshfeld volume        :      6.11362805
  |   Hirshfeld dipole vector :      0.03673085       0.10539880      -0.05485670
  |   Hirshfeld dipole moment :      0.12436768
  |   Hirshfeld second moments:      0.12685762      -0.01021178       0.01000232
  |                                 -0.01021178       0.11676361      -0.00922203
  |                                  0.01000232      -0.00922203       0.10779919
  ----------------------------------------------------------------------


------------------------------------------------------------------------------
  Final output of selected total energy values:

  The following output summarizes some interesting total energy values
  at the end of a run (AFTER all relaxation, molecular dynamics, etc.).

  | Total energy of the DFT / Hartree-Fock s.c.f. calculation      :         -10414.539848759 eV
  | Final zero-broadening corrected energy (caution - metals only) :         -10414.539848759 eV
  | For reference only, the value of 1 Hartree used in FHI-aims is :             27.211384500 eV

  Before relying on these values, please be sure to understand exactly which
  total energy value is referred to by a given number. Different objects may
  all carry the same name 'total energy'. Definitions:

  Total energy of the DFT / Hartree-Fock s.c.f. calculation:
  | Note that this energy does not include ANY quantities calculated after the
  | s.c.f. cycle, in particular not ANY RPA, MP2, etc. many-body perturbation terms.

  Final zero-broadening corrected energy:
  | For metallic systems only, a broadening of the occupation numbers at the Fermi
  | level can be extrapolated back to zero broadening by an electron-gas inspired
  | formula. For all systems that are not real metals, this value can be
  | meaningless and should be avoided.

------------------------------------------------------------------------------

------------------------------------------------------------
          Leaving FHI-aims.
          Date     :  20150727, Time     :  120150.271

          Computational steps:
          | Number of self-consistency cycles          :           16

          Detailed time accounting                     :  max(cpu_time)    wall_clock(cpu1)
          | Total time                                 :       36.896 s          36.910 s
          | Preparation time                           :        0.174 s           0.544 s
          | Grid partitioning                          :        0.156 s           0.156 s
          | Preloading free-atom quantities on grid    :        0.013 s           0.013 s
          | Free-atom superposition energy             :        0.066 s           0.066 s
          | Total time for integrations                :       15.588 s          15.588 s
          | Total time for solution of K.-S. equations :        1.053 s           1.052 s
          | Total time for density & force components  :       12.652 s          12.652 s
          | Total time for mixing                      :        0.207 s           0.205 s
          | Total time for Hartree multipole update    :        0.078 s           0.075 s
          | Total time for Hartree multipole sum       :        6.236 s           6.238 s
          | Total time for total energy evaluation     :        0.001 s           0.003 s
          | Total time for scaled ZORA corrections     :        0.000 s           0.000 s
          | Total time for TS (2009) vdW correction    :        0.052 s           0.052 s

          Have a nice day.
------------------------------------------------------------
