generated from tmp.xyz

6 atoms
2 atom types

-25.42857 16.93218 xlo xhi
-19.934999 22.98866 ylo yhi
-23.23517 18.52269 zlo zhi

Atoms

1	2 -4.053030 0.065001 -1.525160
2	1 -4.566710 0.974813 -1.912820
3	1 -3.067820 0.330172 -1.477310
4	2 -5.293160 2.192130 -2.328800
5	1 -4.829300 2.988660 -1.973850
6	1 -5.428570 2.328640 -3.235170
