  MPI-parallelism will be employed.
------------------------------------------------------------
          Invoking FHI-aims ...
          Version 081213
          Compiled on 2013/08/29 at 17:41:06 on host generoso.

          When using FHI-aims, please cite the following reference:

          Volker Blum, Ralf Gehrke, Felix Hanke, Paula Havu,
          Ville Havu, Xinguo Ren, Karsten Reuter, and Matthias Scheffler,
          'Ab Initio Molecular Simulations with Numeric Atom-Centered Orbitals: FHI-aims',
          Computer Physics Communications 180, 2175-2196 (2009)

          For any questions about FHI-aims, please visit the aimsclub website
          with its forums and wiki. Contributions to both the forums and the
          wiki are warmly encouraged - they are for you, and everyone is welcome there.

------------------------------------------------------------

  Date     :  20150727, Time     :  120959.795
  Time zero on CPU 1             :   0.449920000000000E-01  s.
  Internal wall clock time zero  :           207230999.795  s.

  Using        8 parallel tasks.
  Task        0 on host gen59 reporting.
  Task        1 on host gen59 reporting.
  Task        2 on host gen59 reporting.
  Task        3 on host gen59 reporting.
  Task        4 on host gen59 reporting.
  Task        5 on host gen59 reporting.
  Task        6 on host gen59 reporting.
  Task        7 on host gen59 reporting.

  Performing system and environment tests:
  | Environment variable OMP_NUM_THREADS correctly set to 1.
  | Checking for scalapack...
  | No scalapack compiled in.

  Obtaining array dimensions for all initial allocations:
  
  -----------------------------------------------------------------------
  Parsing control.in (first pass over file, find array dimensions only).
  The contents of control.in will be repeated verbatim below
  unless switched off by setting 'verbatim_writeout .false.' .
  in the first line of control.in .
  -----------------------------------------------------------------------
  
  #########################################################################################
  #
  #  Volker Blum, FHI 2008 : Test run input file control.in
  #
  #########################################################################################
  #
  #  Physical model
  #
    xc                 rpbe
    spin               none
    relativistic       atomic_zora scalar
    charge             0.
   vdw_correction_hirshfeld
  #
  #  SCF convergence
  #
    occupation_type    gaussian 0.01
    mixer              pulay
      n_max_pulay        10
      charge_mix_param   0.1
    sc_accuracy_rho    5E-5
    sc_accuracy_eev    5E-3
    sc_accuracy_etot   5E-6
    sc_iter_limit      3000
  #
  #  Eigenvalue solver
  #
    KS_method          lapack
      empty_states       8
      basis_threshold    0.e-5
  #
  #  Efficiency
  #
  #   all previous settings are now default, except stratmann still
  #   undecided. Continue to handle stratmann with care, if at all.
  #
  #  partition_type stratmann
    partition_type rho_r2
  #  hartree_partition_type stratmann
  #
  #  Oprions for large clusters (100's of atoms: memory saving / better scaling)
  #
  # for periodic systems:
  #
    density_update_method orbital
    packed_matrix_format none
  #  k_grid 6 6 6
  #  output k_eigenvalue 1
  #  distributed_spline_storage .true.
  #
  #  Relaxation
  #
  #  relax_geometry   bfgs 5.e-3
    sc_accuracy_forces 5.E-4
    final_forces_cleaned .true.
  #
  #  Output options
  #
  #  output mulliken
    output Hirshfeld
  #  output dipole
  
  #harmonic_length_scale 0.001
  
  ################################################################################
  #
  #  FHI-aims code project
  #  VB, Fritz-Haber Institut, 2007
  #
  #  Suggested "safe" defaults for H atom (to be pasted into control.in file)
  #  Basis constructed for a non-relativistic H2 molecule using the
  #  PW-LDA functional.
  #
  ################################################################################
    species        H
  #     global species definitions
      nucleus             1
      cut_pot             4.0  2.0  1.0
      cut_free_atom       finite 8.0
      logarithmic         0.00010000 100.00  1.0123
      basis_dep_cutoff    1d-4  # 1d-4 is safe default - please check 5d-4 if you wish!
      radial_base         24 7.0
      radial_multiplier   2
      angular_grids       specified
        division   0.2783  110
        division   0.3822  194
        division   0.5626  302
  #      division   0.5922  434
  #      division   0.6227  590
  #      division   0.7206  770
        outer_grid  302
      l_hartree           4
  ################################################################################
  #
  #  Definition of "minimal" basis
  #
  ################################################################################
  #     valence basis states
      valence      1  s   1.
  #     ion occupancy
      ion_occ      1  s   0.5
  ################################################################################
  #
  #  Suggested additional basis functions. For production calculations,
  #  uncomment them one after another (the most important basis functions are
  #  listed first).
  #
  ################################################################################
  #  "First tier" - improvements: -1014.90 meV to -62.69 meV
       hydro 2 s 2.1
       hydro 2 p 3.5
  #  "Second tier" - improvements: -12.89 meV to -1.83 meV
       hydro 1 s 0.85
       hydro 2 p 3.7
       hydro 2 s 1.2
       hydro 3 d 7
  #  "Third tier" - improvements: -0.25 meV to -0.12 meV
  #     hydro 4 f 11.2
  #     hydro 3 p 4.8
  #     hydro 4 d 9
  #     hydro 3 s 3.2
  
  ################################################################################
  #
  #  FHI-aims code project
  #  VB, Fritz-Haber Institut, 2007
  #
  #  Suggested "safe" defaults for O atom (to be pasted into control.in file)
  #  All values have been tested for a non-relativistic, non-spinpolarized O2
  #  molecule using the PW-LDA functional. Validity for PBE is expected.
  #
  #  Constructed for dimers: 1.0 A, 1.208 A, 1.5 A, 2.0 A, 3.0 A
  #
  ################################################################################
    species        O
  #     global species definitions
      nucleus             8
      mass                15.9994
      l_hartree           4
      cut_pot             4.0  2.0  1.0
      cut_free_atom       finite 8.0
      basis_dep_cutoff    1d-4  # 1d-4 is safe default - please check 5d-4 if you wish!
      logarithmic         0.00010000 100.00  1.0123
      radial_base         36 7.0
      radial_multiplier   2
       angular_grids specified
        division   0.4087  110
        division   0.5181  194
        division   0.6184  302
  #      division   0.7315  434
  #      division   0.7934  590
  #      division   0.9656  770
  #      division   1.4041  974
  #      outer_grid 974
        outer_grid 302
  ################################################################################
  #
  #  Definition of "minimal" basis
  #
  ################################################################################
  #     valence basis states
      valence      2  s   2.
      valence      2  p   4.
  #     ion occupancy
      ion_occ      2  s   1.
      ion_occ      2  p   3.
  ################################################################################
  #
  #  Suggested additional basis functions. For production calculations,
  #  uncomment them one after another (the most important basis functions are
  #  listed first).
  #
  ################################################################################
  #  "First tier" - improvements: -699.05 meV to -159.38 meV
       hydro 2 p 1.8
       hydro 3 d 7.6
       hydro 3 s 6.4
  #  "Second tier" - improvements: -49.91 meV to -5.39 meV
       hydro 4 f 11.6
       hydro 3 p 6.2
       hydro 3 d 5.6
       hydro 5 g 17.6
       hydro 1 s 0.75
  #  "Third tier" - improvements: -2.83 meV to -0.50 meV
  #     ionic 2 p auto
  #     hydro 4 f 10.8
  #     hydro 4 d 4.7
  #     hydro 2 s 6.8
  #  "Fourth tier" - improvements: -0.40 meV to -0.12 meV
  #     hydro 3 p 5
  #     hydro 3 s 3.3
  #     hydro 5 g 15.6
  #     hydro 4 f 17.6
  #     hydro 4 d 14
  # Further basis functions - -0.08 meV and below
  #     hydro 3 s 2.1
  #     hydro 4 d 11.6
  #     hydro 3 p 16
  #     hydro 2 s 17.2
  
  
  -----------------------------------------------------------------------
  Completed first pass over input file control.in .
  -----------------------------------------------------------------------
  
  
  -----------------------------------------------------------------------
  Parsing geometry.in (first pass over file, find array dimensions only).
  The contents of geometry.in will be repeated verbatim below
  unless switched off by setting 'verbatim_writeout .false.' .
  in the first line of geometry.in .
  -----------------------------------------------------------------------
  
  atom      -4.053030000      0.065001000     -1.525160000  O
  atom      -4.566710000      0.974813000     -1.912820000  H
  atom      -3.067820000      0.330172000     -1.477310000  H
  atom      -4.370360000     -0.049164000     -0.572274000  H
  atom      -4.581760000     -0.256435000      0.939478000  O
  atom      -4.349860000      0.471090000      1.504340000  H
  atom      -5.393870000     -0.726611000      1.228070000  H
  atom      -5.293160000      2.192130000     -2.328800000  O
  atom      -4.829300000      2.988660000     -1.973850000  H
  atom      -5.428570000      2.328640000     -3.235170000  H
  atom      -4.066610000      4.258280000     -0.900064000  O
  atom      -3.224110000      3.876870000     -0.569443000  H
  atom      -3.737450000      5.116530000     -1.322720000  H
  
  -----------------------------------------------------------------------
  Completed first pass over input file geometry.in .
  -----------------------------------------------------------------------
  
 
  Basic array size parameters: 
  | Number of species                 :        2
  | Number of atoms                   :       13
  | Max. basis fn. angular momentum   :        4
  | Max. atomic/ionic basis occupied n:        2
  | Max. number of basis fn. types    :        2
  | Max. radial fns per species/type  :        8
  | Max. logarithmic grid size        :     1301
  | Max. radial integration grid size :       73
  | Max. angular integration grid size:      302
  | Max. angular grid division number :        8
  | Radial grid for Hartree potential :     1301
  | Number of spin channels           :        1

------------------------------------------------------------
          Reading file control.in.
------------------------------------------------------------
  XC: Using RPBE gradient-corrected functionals.
  Spin treatment: No spin polarisation.
  Scalar relativistic treatment of kinetic energy: on-site free-atom approximation to ZORA.
  Charge =   0.000000E+00: Neutral system requested explicitly.
  Using non-empirical van der Waals correction (Hirshfeld partitioning):
  Occupation type: Gaussian broadening, width =   0.100000E-01 eV.
  Using pulay charge density mixing.
  Pulay mixing - number of memorized iterations:   10
  Charge density mixing - mixing parameter:     0.1000
  Convergence accuracy of self-consistent charge density: 0.5000E-04
  Convergence accuracy of sum of eigenvalues: 0.5000E-02
  Convergence accuracy of total energy: 0.5000E-05
  Maximum number of s.-c. iterations  :  3000
  Kohn-Sham eigenvalues and eigenfunctions calculated by lapack diagonalisation (D&C).
  Number of empty states per atom:        8
  Threshold for basis singularities: 0.0000E+00
  Partition function in integrals calculations: rho / r^2
 Using packed matrix format           0
  Convergence accuracy of forces: 0.5000E-03
  Cleaning forces before final output.
  Hirshfeld charge analysis will be performed.
 
  Reading configuration options for species H                   .
  | Found nuclear charge :   1.0000
  | Found cutoff potl. onset [A], width [A], scale factor :    4.00000    2.00000    1.00000
  | Found cutoff specification for free atom: Cutoff potential begins at    8.00000 A.
  | Found logarithmic grid data [bohr] : 0.1000E-03 0.1000E+03 0.1012E+01
  | Threshold for basis-dependent cutoff potential is   0.100000E-03
  | Found data for basic radial integration grid :    24 points, outermost radius =    7.000 A
  | Found multiplier for basic radial grid :   2
  | Found angular grid specification: user-specified.
  | Specified grid contains     4 separate shells.
  | Check grid settings after all constraints further below.
  | Found l_max for Hartree potential  :   4
  | Found free-atom valence shell :  1 s   1.000
  | No ionic wave fns used. Skipping ion_occ.
  | Found hydrogenic basis function :  2 s   2.100
  | Found hydrogenic basis function :  2 p   3.500
  | Found hydrogenic basis function :  1 s   0.850
  | Found hydrogenic basis function :  2 p   3.700
  | Found hydrogenic basis function :  2 s   1.200
  | Found hydrogenic basis function :  3 d   7.000
  Species H                   : Missing cutoff potential type.
  Defaulting to exp(1/x)/(1-x)^2 type cutoff potential.
  Species H : On-site basis accuracy parameter (for Gram-Schmidt orthonormalisation) not specified.
  Using default value basis_acc =  0.1000000E-03.
  Species H                   : Using default innermost maximum threshold i_radial=  2 for radial functions.
  Species H                   : Basic radial grid will be enhanced according to radial_multiplier =   2, to contain    49 grid points.
 
  Reading configuration options for species O                   .
  | Found nuclear charge :   8.0000
  | Found atomic mass :    15.9994000000000      amu
  | Found l_max for Hartree potential  :   4
  | Found cutoff potl. onset [A], width [A], scale factor :    4.00000    2.00000    1.00000
  | Found cutoff specification for free atom: Cutoff potential begins at    8.00000 A.
  | Threshold for basis-dependent cutoff potential is   0.100000E-03
  | Found logarithmic grid data [bohr] : 0.1000E-03 0.1000E+03 0.1012E+01
  | Found data for basic radial integration grid :    36 points, outermost radius =    7.000 A
  | Found multiplier for basic radial grid :   2
  | Found angular grid specification: user-specified.
  | Specified grid contains     4 separate shells.
  | Check grid settings after all constraints further below.
  | Found free-atom valence shell :  2 s   2.000
  | Found free-atom valence shell :  2 p   4.000
  | No ionic wave fns used. Skipping ion_occ.
  | No ionic wave fns used. Skipping ion_occ.
  | Found hydrogenic basis function :  2 p   1.800
  | Found hydrogenic basis function :  3 d   7.600
  | Found hydrogenic basis function :  3 s   6.400
  | Found hydrogenic basis function :  4 f  11.600
  | Found hydrogenic basis function :  3 p   6.200
  | Found hydrogenic basis function :  3 d   5.600
  | Found hydrogenic basis function :  5 g  17.600
  | Found hydrogenic basis function :  1 s   0.750
  Species O                   : Missing cutoff potential type.
  Defaulting to exp(1/x)/(1-x)^2 type cutoff potential.
  Species O : On-site basis accuracy parameter (for Gram-Schmidt orthonormalisation) not specified.
  Using default value basis_acc =  0.1000000E-03.
  Species O                   : Using default innermost maximum threshold i_radial=  2 for radial functions.
  Species O                   : Basic radial grid will be enhanced according to radial_multiplier =   2, to contain    73 grid points.
 
  Finished reading input file 'control.in'. Consistency checks are next.
 
  Target number of points in a grid batch is not set. Defaulting to  100
  Method for grid partitioning is not set. Defaulting to parallel hash+maxmin partitioning.
  Batch size limit is not set. Defaulting to    200
  By default, will store active basis functions for each batch.
  If in need of memory, prune_basis_once .false. can be used to disable this option.
  communication_type for Hartree potential was not specified.
  Defaulting to calc_hartree .
  Pulay mixer: Number of initial linear mixing iterations not set.
  Defaulting to    0 iterations.
  Work space size for distributed Hartree potential not set.
  Defaulting to   0.200000E+03 MB.
  Algorithm-dependent basis array size parameters:
  | n_max_pulay                         :       10
  Geometry relaxation not requested: no relaxation will be performed.
  Handling of forces: Unphysical translation and rotation will be removed from forces.
  No accuracy limit for integral partition fn. given. Defaulting to 0.1000E-14.
  No threshold value for u(r) in integrations given. Defaulting to 0.1000E-05.
  No accuracy for occupation numbers given. Defaulting to 0.1000E-07.
  No threshold value for occupation numbers given. Defaulting to 0.0000E+00.
  No accuracy for fermi level given. Defaulting to 0.1000E-19.
  Maximum # of iterations to find E_F not set. Defaulting to  200.
  Will not use alltoall communication since running on < 1024 CPUs.
  Partitioning for Hartree potential was not defined. Using partition_type for integrals.
  | Reporting present value of keyword multip_moments_threshold  :       0.10000000E-09
  | This value may affect high angular momentum components of the Hartree potential in periodic systems.
  No q(lm)/r^(l+1) cutoff set for long-range Hartree potential.
  | Using default value of  0.100000E-09 .
  | Verify using the multipole_threshold keyword.
  Defaulting to new monopole extrapolation.
  Density update method: Loop over occupied states selected for charge density update.
------------------------------------------------------------


------------------------------------------------------------
          Reading geometry description geometry.in.
------------------------------------------------------------
  Input structure read successfully.
  The structure contains       13 atoms,  and a total of         41.000 electrons.

  Input geometry:
  | No unit cell requested.
  | Atomic structure:
  |       Atom                x [A]            y [A]            z [A]
  |    1: Species O             -4.053030         0.065001        -1.525160
  |    2: Species H             -4.566710         0.974813        -1.912820
  |    3: Species H             -3.067820         0.330172        -1.477310
  |    4: Species H             -4.370360        -0.049164        -0.572274
  |    5: Species O             -4.581760        -0.256435         0.939478
  |    6: Species H             -4.349860         0.471090         1.504340
  |    7: Species H             -5.393870        -0.726611         1.228070
  |    8: Species O             -5.293160         2.192130        -2.328800
  |    9: Species H             -4.829300         2.988660        -1.973850
  |   10: Species H             -5.428570         2.328640        -3.235170
  |   11: Species O             -4.066610         4.258280        -0.900064
  |   12: Species H             -3.224110         3.876870        -0.569443
  |   13: Species H             -3.737450         5.116530        -1.322720
  |

  | The smallest distance between any two atoms is         0.92654057 AA.
  |
  | The first atom of this pair is atom number                      8 .
  | The second atom of this pair is atom number                    10 .

  Structure-dependent array size parameters: 
  | Maximum number of distinct radial functions  :       18
  | Maximum number of basis functions            :      291
  | Number of Kohn-Sham states (occupied + empty):       73
------------------------------------------------------------

------------------------------------------------------------
          Preparing all fixed parts of the calculation.
------------------------------------------------------------
  Determining machine precision:
    2.225073858507201E-308
  Setting up grids for atomic and cluster calculations.

  Creating wave function, potential, and density for free atoms.

  Species: H

  List of occupied orbitals and eigenvalues:
    n    l              occ      energy [Ha]    energy [eV]
    1    0           1.0000        -0.241408        -6.5691


  Species: O

  List of occupied orbitals and eigenvalues:
    n    l              occ      energy [Ha]    energy [eV]
    1    0           2.0000       -18.944147      -515.4965
    2    0           2.0000        -0.883529       -24.0421
    2    1           4.0000        -0.330176        -8.9845

  Creating fixed part of basis set: Ionic, confined, hydrogenic.
 
  H                    hydrogenic:
 
  List of hydrogenic basis orbitals: 
    n    l      effective z      eigenvalue [eV]  inner max. [A]     outer max. [A]     outer radius [A]   
    2    0         2.100000       -14.9965           0.193241           1.317192           5.372934
    2    1         3.500000       -41.6672           0.602363           0.602363           4.056010
    1    0         0.850000        -9.8292           0.624864           0.624864           5.372934
    2    1         3.700000       -46.5653           0.573616           0.573616           3.909951
    2    0         1.200000        -4.5995           0.334977           2.228160           5.505921
    3    2         7.000000       -74.0753           0.680692           0.680692           3.769152
 
 
  O                    hydrogenic:
 
  List of hydrogenic basis orbitals: 
    n    l      effective z      eigenvalue [eV]  inner max. [A]     outer max. [A]     outer radius [A]   
    2    1         1.800000       -11.0118           1.178546           1.178546           5.432516
    3    2         7.600000       -87.3182           0.624117           0.624117           3.541422
    3    0         6.400000       -61.9209           0.061166           1.081887           4.306510
    4    3        11.600000      -114.4238           0.731621           0.731621           3.584982
    3    1         6.200000       -58.1113           0.255677           1.030255           4.306510
    3    2         5.600000       -47.4081           0.847222           0.847222           4.413102
    5    4        17.600000      -168.5799           0.749730           0.749730           3.372413
    1    0         0.750000        -7.6499           0.705275           0.705275           5.366508
 

  Adding cutoff potential to free-atom effective potential.
  Creating atomic-like basis functions for current effective potential.

  Species H                   :

  List of atomic basis orbitals and eigenvalues:
    n    l      energy [Ha]    energy [eV]    outer radius [A]
    1    0        -0.241374        -6.5681       5.372934


  Species O                   :

  List of atomic basis orbitals and eigenvalues:
    n    l      energy [Ha]    energy [eV]    outer radius [A]
    1    0       -18.944147      -515.4965       1.415745
    2    0        -0.883529       -24.0421       5.048305
    2    1        -0.330173        -8.9845       5.301302

  Assembling full basis from fixed parts.
  | Species H :   atomic orbital   1 s accepted.
  | Species H :    hydro orbital   2 s accepted.
  | Species H :    hydro orbital   1 s accepted.
  | Species H :    hydro orbital   2 s accepted.
  | Species H :    hydro orbital   2 p accepted.
  | Species H :    hydro orbital   2 p accepted.
  | Species H :    hydro orbital   3 d accepted.
  | Species O :   atomic orbital   1 s accepted.
  | Species O :    hydro orbital   3 s accepted.
  | Species O :   atomic orbital   2 s accepted.
  | Species O :    hydro orbital   1 s accepted.
  | Species O :    hydro orbital   3 p accepted.
  | Species O :   atomic orbital   2 p accepted.
  | Species O :    hydro orbital   2 p accepted.
  | Species O :    hydro orbital   3 d accepted.
  | Species O :    hydro orbital   3 d accepted.
  | Species O :    hydro orbital   4 f accepted.
  | Species O :    hydro orbital   5 g accepted.
 
  Basis size parameters after reduction:
  | Total number of radial functions:       18
  | Total number of basis functions :      291
 
  Testing on-site integration grid accuracy.
  |  Species  Function  <phi|h_atom|phi> (log., in eV)  <phi|h_atom|phi> (rad., in eV)
           1        1                 -6.5683835025                 -6.5684759159
           1        2                 13.3711789951                 13.3708738703
           1        3                 23.6590910787                 23.6532055418
           1        4                 16.2963827186                 16.1870710655 ***
           1        5                 28.7627214838                 28.7627215090
           1        6                 59.5965249172                 59.5965950857
           1        7                 60.2220506392                 60.2220503827
           2        8               -515.4964576505               -515.4964530710
           2        9                 15.3030791347                 15.3030722972
           2       10                -21.7296094581                -21.7296135470
           2       11                 14.2969371730                 14.2969701621
           2       12                 21.0679693190                 21.0679697493
           2       13                 -2.3833606469                 -2.3833613176
           2       14                 13.7067136422                 13.7066766629
           2       15                 45.8013116808                 45.8013116965
           2       16                 52.2309815402                 52.2309831494
           2       17                 85.4120732416                 85.4120732763
           2       18                142.1019167745                142.1019167817
 * Note: Onsite integrals marked "***" above are less accurate than
 * onsite_accuracy_threshold =    0.03000 eV. Usually, this is harmless.
 * When in doubt, tighten the "radial" and/or "radial_multiplier" flags to check.

  Preparing densities etc. for the partition functions (integrals / Hartree potential).

  Preparations completed.
  max(cpu_time)          :      0.172 s.
  Wall clock time (cpu1) :      0.487 s.
------------------------------------------------------------

------------------------------------------------------------
          Begin self-consistency loop: Initialization.

          Date     :  20150727, Time     :  121000.309
------------------------------------------------------------

  Initializing index lists of integration centers etc. from given atomic structure:
  | Number of centers in hartree potential         :        13
  | Number of centers in hartree multipole         :        13
  | Number of centers in electron density summation:        13
  | Number of centers in basis integrals           :        13
  | Number of centers in integrals                 :        13
  Partitioning the integration grid into batches with parallel hashing+maxmin method.
  | Number of batches:     1748
  | Maximal batch size:     200
  | Minimal batch size:      49
  | Average batch size:      96.660
  | Standard deviation of batch sizes:      30.054

  Integration load balanced across     8 MPI tasks.
  Work distribution over tasks is as follows:
  Task     0 has      21119 integration points.
  Task     1 has      21158 integration points.
  Task     2 has      21158 integration points.
  Task     3 has      21172 integration points.
  Task     4 has      21083 integration points.
  Task     5 has      21118 integration points.
  Task     6 has      21072 integration points.
  Task     7 has      21082 integration points.
  Initializing partition tables, free-atom densities, potentials, etc. across the integration grid (initialize_grid_storage).
  | Net number of integration points:   168962
  | of which are non-zero points    :   168435
  Obtaining max. number of non-zero basis functions in each batch (get_n_compute_maxes).
  | Maximal number of non-zero basis functions:      289 in task     0
  | Maximal number of non-zero basis functions:      289 in task     1
  | Maximal number of non-zero basis functions:      289 in task     2
  | Maximal number of non-zero basis functions:      289 in task     3
  | Maximal number of non-zero basis functions:      289 in task     4
  | Maximal number of non-zero basis functions:      289 in task     5
  | Maximal number of non-zero basis functions:      289 in task     6
  | Maximal number of non-zero basis functions:      289 in task     7
  Integrating Hamiltonian matrix: batch-based integration.
  Time summed over all CPUs for integration: real work        5.223 s, elapsed        5.290 s
  Integrating overlap matrix.
  Time summed over all CPUs for integration: real work        2.755 s, elapsed        2.791 s

  Updating Kohn-Sham eigenvalues, eigenvectors, occupation numbers, and Fermi level.
  Solving generalized eigenproblem
  Updating Kohn-Sham eigenvalues and eigenfunctions.
  Transforming overlap matrix and checking for singularities.
  Overlap matrix is nonsingular:
  | Lowest eigenvalue:  0.218487E-03
  Solving real generalised eigenvalue problem by standard LAPACK (fast)
  Determining occupation numbers for Kohn-Sham eigenstates.
  | Chemical potential (Fermi level) in eV                 : -.26076343E+01
  | Error in electron count due to remaining E_F inaccuracy: 0.00000000E+00
  | Maximum occupation number of highest empty state:  0.00E+00

  Writing Kohn-Sham eigenvalues.

  State    Occupation    Eigenvalue [Ha]    Eigenvalue [eV]
      1       2.00000         -19.065136         -518.78874
      2       2.00000         -19.064961         -518.78398
      3       2.00000         -19.059128         -518.62526
      4       2.00000         -19.042842         -518.18209
      5       2.00000          -1.130324          -30.75767
      6       2.00000          -1.117058          -30.39670
      7       2.00000          -1.102891          -30.01120
      8       2.00000          -1.086598          -29.56783
      9       2.00000          -0.653890          -17.79326
     10       2.00000          -0.651126          -17.71804
     11       2.00000          -0.641089          -17.44493
     12       2.00000          -0.621115          -16.90141
     13       2.00000          -0.605889          -16.48707
     14       2.00000          -0.536138          -14.58906
     15       2.00000          -0.512812          -13.95431
     16       2.00000          -0.503972          -13.71377
     17       2.00000          -0.484125          -13.17372
     18       2.00000          -0.452948          -12.32533
     19       2.00000          -0.446067          -12.13811
     20       2.00000          -0.433503          -11.79623
     21       1.00000          -0.095829           -2.60763
     22       0.00000          -0.069021           -1.87815
     23       0.00000          -0.051442           -1.39982
     24       0.00000          -0.039347           -1.07069
     25       0.00000          -0.011724           -0.31903
     26       0.00000           0.005572            0.15161
     27       0.00000           0.029039            0.79020
     28       0.00000           0.041314            1.12422
     29       0.00000           0.060658            1.65060
     30       0.00000           0.069183            1.88256
     31       0.00000           0.079230            2.15597
     32       0.00000           0.092241            2.51001
     33       0.00000           0.096218            2.61822
     34       0.00000           0.104016            2.83043
     35       0.00000           0.109932            2.99139
     36       0.00000           0.116370            3.16658
     37       0.00000           0.130320            3.54618
     38       0.00000           0.134699            3.66535
     39       0.00000           0.143619            3.90807
     40       0.00000           0.154279            4.19815
     41       0.00000           0.165268            4.49716
     42       0.00000           0.177970            4.84282
     43       0.00000           0.203027            5.52464
     44       0.00000           0.214023            5.82386
     45       0.00000           0.246222            6.70005
     46       0.00000           0.254761            6.93240
     47       0.00000           0.266768            7.25913
     48       0.00000           0.283103            7.70361
     49       0.00000           0.291251            7.92534
     50       0.00000           0.301160            8.19497
     51       0.00000           0.340000            9.25186
     52       0.00000           0.350965            9.55024
     53       0.00000           0.363263            9.88490
     54       0.00000           0.371877           10.11930
     55       0.00000           0.386880           10.52753
     56       0.00000           0.396170           10.78034
     57       0.00000           0.423069           11.51228
     58       0.00000           0.431870           11.75178
     59       0.00000           0.440578           11.98874
     60       0.00000           0.451637           12.28968
     61       0.00000           0.458983           12.48956
     62       0.00000           0.486863           13.24821
     63       0.00000           0.517677           14.08671
     64       0.00000           0.530579           14.43778
     65       0.00000           0.553014           15.04827
     66       0.00000           0.581817           15.83204
     67       0.00000           0.608812           16.56661
     68       0.00000           0.641505           17.45623
     69       0.00000           0.668856           18.20050
     70       0.00000           0.712126           19.37792
     71       0.00000           0.728862           19.83334
     72       0.00000           0.752334           20.47205
     73       0.00000           0.784143           21.33761

  Highest occupied state (VBM) at     -2.60763433 eV
  | Occupation number:      1.00000000

  Lowest unoccupied state (CBM) at    -2.60763433 eV
  | Occupation number:      1.00000000

  Overall HOMO-LUMO gap:      0.00000000 eV.
  Calculating total energy contributions from superposition of free atom densities.

  Total energy components:
  | Sum of eigenvalues            :        -174.51905328 Ha       -4748.90506143 eV
  | XC energy correction          :         -36.85383409 Ha       -1002.84384977 eV
  | XC potential correction       :          47.10670531 Ha        1281.83867077 eV
  | Free-atom electrostatic energy:        -142.65321473 Ha       -3881.79147617 eV
  | Hartree energy correction     :           0.00000000 Ha           0.00000000 eV
  | van der Waals energy corr.    :           0.00000000 Ha           0.00000000 eV
  | Entropy correction            :          -0.00010367 Ha          -0.00282095 eV
  | ---------------------------
  | Total energy                  :        -306.91939679 Ha       -8351.70171660 eV
  | Total energy, T -> 0          :        -306.91950046 Ha       -8351.70453755 eV  <-- do not rely on this value for anything but (periodic) metals
  | Electronic free energy        :        -306.91960413 Ha       -8351.70735850 eV

  Derived energy quantities:
  | Kinetic energy                :         304.08602663 Ha        8274.60179166 eV
  | Electrostatic energy          :        -574.15158933 Ha      -15623.45965848 eV
  | Energy correction for multipole
  | error in Hartree potential    :           0.00000000 Ha           0.00000000 eV
  | Sum of eigenvalues per atom                           :        -365.30038934 eV
  | Total energy (T->0) per atom                          :        -642.43881058 eV  <-- do not rely on this value for anything but (periodic) metals
  | Electronic free energy per atom                       :        -642.43902758 eV
  Initialize hartree_potential_storage
  Max. number of atoms included in rho_multipole:           13

  End scf initialization - timings             :  max(cpu_time)    wall_clock(cpu1)
  | Time for scf. initialization               :        1.437 s           1.437 s
  | Boundary condition initialization          :        0.000 s           0.000 s
  | Integration                                :        1.013 s           1.013 s
  | Solution of K.-S. eqns.                    :        0.136 s           0.136 s
  | Grid partitioning                          :        0.121 s           0.121 s
  | Preloading free-atom quantities on grid    :        0.013 s           0.013 s
  | Free-atom superposition energy             :        0.053 s           0.053 s
  | Total energy evaluation                    :        0.000 s           0.000 s
------------------------------------------------------------

------------------------------------------------------------
          Begin self-consistency iteration #    1

  Date     :  20150727, Time     :  121001.746
------------------------------------------------------------
  Evaluating new KS density.
  Integration grid: deviation in total charge (<rho> - N_e) =   7.105427E-15
  Pulay mixing of updated and previous charge densities.

  Evaluating partitioned Hartree potential by multipole expansion.
  | Analytical far-field extrapolation by fixed multipoles:
  | Hartree multipole sum: apparent total charge =  -0.623878E-06
  Summing up the Hartree potential.
  Time summed over all CPUs for potential: real work        1.925 s, elapsed        1.933 s
  | RMS charge density error from multipole expansion :   0.152791E-02

  Integrating Hamiltonian matrix: batch-based integration.
  Time summed over all CPUs for integration: real work        5.232 s, elapsed        5.340 s

  Updating Kohn-Sham eigenvalues, eigenvectors, occupation numbers, and Fermi level.
  Solving generalized eigenproblem
  Updating Kohn-Sham eigenvalues and eigenfunctions.
  Solving real generalised eigenvalue problem by standard LAPACK (fast)
  Determining occupation numbers for Kohn-Sham eigenstates.
  | Chemical potential (Fermi level) in eV                 : -.24109937E+01
  | Error in electron count due to remaining E_F inaccuracy: 0.00000000E+00
  | Maximum occupation number of highest empty state:  0.00E+00

  Writing Kohn-Sham eigenvalues.

  State    Occupation    Eigenvalue [Ha]    Eigenvalue [eV]
      1       2.00000         -19.009658         -517.27910
      2       2.00000         -18.992241         -516.80517
      3       2.00000         -18.988178         -516.69460
      4       2.00000         -18.967420         -516.12976
      5       2.00000          -1.101328          -29.96865
      6       2.00000          -1.082860          -29.46612
      7       2.00000          -1.070318          -29.12483
      8       2.00000          -1.048682          -28.53608
      9       2.00000          -0.623216          -16.95858
     10       2.00000          -0.622314          -16.93403
     11       2.00000          -0.617006          -16.78959
     12       2.00000          -0.597310          -16.25364
     13       2.00000          -0.573318          -15.60078
     14       2.00000          -0.504447          -13.72671
     15       2.00000          -0.478152          -13.01117
     16       2.00000          -0.468203          -12.74045
     17       2.00000          -0.454147          -12.35798
     18       2.00000          -0.416896          -11.34431
     19       2.00000          -0.411236          -11.19031
     20       2.00000          -0.394137          -10.72500
     21       1.00000          -0.088602           -2.41099
     22       0.00000          -0.061747           -1.68023
     23       0.00000          -0.044935           -1.22274
     24       0.00000          -0.033211           -0.90371
     25       0.00000          -0.005740           -0.15619
     26       0.00000           0.012688            0.34527
     27       0.00000           0.036656            0.99747
     28       0.00000           0.048602            1.32254
     29       0.00000           0.064582            1.75736
     30       0.00000           0.078044            2.12370
     31       0.00000           0.087124            2.37077
     32       0.00000           0.102357            2.78528
     33       0.00000           0.104642            2.84746
     34       0.00000           0.109781            2.98729
     35       0.00000           0.118535            3.22550
     36       0.00000           0.124983            3.40096
     37       0.00000           0.139045            3.78361
     38       0.00000           0.146784            3.99421
     39       0.00000           0.151388            4.11946
     40       0.00000           0.163382            4.44585
     41       0.00000           0.171737            4.67321
     42       0.00000           0.185382            5.04451
     43       0.00000           0.209858            5.71052
     44       0.00000           0.220510            6.00037
     45       0.00000           0.252795            6.87889
     46       0.00000           0.262322            7.13814
     47       0.00000           0.273402            7.43965
     48       0.00000           0.289239            7.87058
     49       0.00000           0.296768            8.07547
     50       0.00000           0.306892            8.35095
     51       0.00000           0.347271            9.44972
     52       0.00000           0.359943            9.79456
     53       0.00000           0.370348           10.07768
     54       0.00000           0.379885           10.33721
     55       0.00000           0.393903           10.71864
     56       0.00000           0.403755           10.98673
     57       0.00000           0.428990           11.67342
     58       0.00000           0.439196           11.95113
     59       0.00000           0.447591           12.17957
     60       0.00000           0.460920           12.54226
     61       0.00000           0.465958           12.67937
     62       0.00000           0.495972           13.49610
     63       0.00000           0.526438           14.32510
     64       0.00000           0.538363           14.64960
     65       0.00000           0.562048           15.29411
     66       0.00000           0.591657           16.09981
     67       0.00000           0.619263           16.85101
     68       0.00000           0.650628           17.70449
     69       0.00000           0.680499           18.51731
     70       0.00000           0.721842           19.64233
     71       0.00000           0.737864           20.07831
     72       0.00000           0.762538           20.74970
     73       0.00000           0.792355           21.56106

  Highest occupied state (VBM) at     -2.41099374 eV
  | Occupation number:      1.00000000

  Lowest unoccupied state (CBM) at    -2.41099374 eV
  | Occupation number:      1.00000000

  Overall HOMO-LUMO gap:      0.00000000 eV.

  Total energy components:
  | Sum of eigenvalues            :        -172.93073588 Ha       -4705.68474589 eV
  | XC energy correction          :         -37.02665477 Ha       -1007.54653974 eV
  | XC potential correction       :          47.33223905 Ha        1287.97575598 eV
  | Free-atom electrostatic energy:        -142.65321473 Ha       -3881.79147617 eV
  | Hartree energy correction     :          -1.54984150 Ha         -42.17333302 eV
  | van der Waals energy corr.    :           0.00000000 Ha           0.00000000 eV
  | Entropy correction            :          -0.00010367 Ha          -0.00282095 eV
  | ---------------------------
  | Total energy                  :        -306.82820783 Ha       -8349.22033883 eV
  | Total energy, T -> 0          :        -306.82831150 Ha       -8349.22315978 eV  <-- do not rely on this value for anything but (periodic) metals
  | Electronic free energy        :        -306.82841517 Ha       -8349.22598073 eV

  Derived energy quantities:
  | Kinetic energy                :         305.15121573 Ha        8303.58706196 eV
  | Electrostatic energy          :        -574.95276880 Ha      -15645.26086105 eV
  | Energy correction for multipole
  | error in Hartree potential    :           0.00034303 Ha           0.00933436 eV
  | Sum of eigenvalues per atom                           :        -361.97574968 eV
  | Total energy (T->0) per atom                          :        -642.24793537 eV  <-- do not rely on this value for anything but (periodic) metals
  | Electronic free energy per atom                       :        -642.24815236 eV

  Self-consistency convergence accuracy:
  | Change of charge density      : 0.5642E+00
  | Change of sum of eigenvalues  : 0.4322E+02 eV
  | Change of total energy        : 0.2481E+01 eV

  End self-consistency iteration #     1       :  max(cpu_time)    wall_clock(cpu1)
  | Time for this iteration                    :        1.438 s           1.438 s
  | Charge density update                      :        0.480 s           0.479 s
  | Density mixing                             :        0.003 s           0.003 s
  | Hartree multipole update                   :        0.004 s           0.005 s
  | Hartree multipole summation                :        0.243 s           0.242 s
  | Integration                                :        0.669 s           0.669 s
  | Solution of K.-S. eqns.                    :        0.035 s           0.036 s
  | Total energy evaluation                    :        0.001 s           0.001 s
------------------------------------------------------------

------------------------------------------------------------
          Begin self-consistency iteration #    2

  Date     :  20150727, Time     :  121003.184
------------------------------------------------------------
  Evaluating new KS density.
  Integration grid: deviation in total charge (<rho> - N_e) =   0.000000E+00
  Pulay mixing of updated and previous charge densities.

  Evaluating partitioned Hartree potential by multipole expansion.
  | Analytical far-field extrapolation by fixed multipoles:
  | Hartree multipole sum: apparent total charge =  -0.313518E-05
  Summing up the Hartree potential.
  Time summed over all CPUs for potential: real work        1.920 s, elapsed        1.928 s
  | RMS charge density error from multipole expansion :   0.627074E-02

  Integrating Hamiltonian matrix: batch-based integration.
  Time summed over all CPUs for integration: real work        5.200 s, elapsed        5.270 s

  Updating Kohn-Sham eigenvalues, eigenvectors, occupation numbers, and Fermi level.
  Solving generalized eigenproblem
  Updating Kohn-Sham eigenvalues and eigenfunctions.
  Solving real generalised eigenvalue problem by standard LAPACK (fast)
  Determining occupation numbers for Kohn-Sham eigenstates.
  | Chemical potential (Fermi level) in eV                 : -.19540474E+01
  | Error in electron count due to remaining E_F inaccuracy: 0.31121772E-11
  | Maximum occupation number of highest empty state:  0.00E+00

  Highest occupied state (VBM) at     -1.95404743 eV
  | Occupation number:      1.00000000

  Lowest unoccupied state (CBM) at    -1.21183622 eV
  | Occupation number:      0.00000000

  Overall HOMO-LUMO gap:      0.74221121 eV.

  Total energy components:
  | Sum of eigenvalues            :        -169.06491281 Ha       -4600.49034791 eV
  | XC energy correction          :         -37.46990884 Ha       -1019.60809659 eV
  | XC potential correction       :          47.90929836 Ha        1303.67833884 eV
  | Free-atom electrostatic energy:        -142.65321473 Ha       -3881.79147617 eV
  | Hartree energy correction     :          -5.44653182 Ha        -148.20767152 eV
  | van der Waals energy corr.    :           0.00000000 Ha           0.00000000 eV
  | Entropy correction            :          -0.00010367 Ha          -0.00282095 eV
  | ---------------------------
  | Total energy                  :        -306.72526983 Ha       -8346.41925334 eV
  | Total energy, T -> 0          :        -306.72537350 Ha       -8346.42207429 eV  <-- do not rely on this value for anything but (periodic) metals
  | Electronic free energy        :        -306.72547717 Ha       -8346.42489524 eV

  Derived energy quantities:
  | Kinetic energy                :         307.42145718 Ha        8365.36347492 eV
  | Electrostatic energy          :        -576.67681818 Ha      -15692.17463167 eV
  | Energy correction for multipole
  | error in Hartree potential    :           0.00061241 Ha           0.01666451 eV
  | Sum of eigenvalues per atom                           :        -353.88387292 eV
  | Total energy (T->0) per atom                          :        -642.03246725 eV  <-- do not rely on this value for anything but (periodic) metals
  | Electronic free energy per atom                       :        -642.03268425 eV

  Self-consistency convergence accuracy:
  | Change of charge density      : 0.4300E+00
  | Change of sum of eigenvalues  : 0.1052E+03 eV
  | Change of total energy        : 0.2801E+01 eV

  End self-consistency iteration #     2       :  max(cpu_time)    wall_clock(cpu1)
  | Time for this iteration                    :        1.410 s           1.409 s
  | Charge density update                      :        0.461 s           0.460 s
  | Density mixing                             :        0.005 s           0.004 s
  | Hartree multipole update                   :        0.004 s           0.005 s
  | Hartree multipole summation                :        0.242 s           0.242 s
  | Integration                                :        0.660 s           0.660 s
  | Solution of K.-S. eqns.                    :        0.036 s           0.036 s
  | Total energy evaluation                    :        0.001 s           0.001 s
------------------------------------------------------------

------------------------------------------------------------
          Begin self-consistency iteration #    3

  Date     :  20150727, Time     :  121004.594
------------------------------------------------------------
  Evaluating new KS density.
  Integration grid: deviation in total charge (<rho> - N_e) =   3.105072E-12
  Pulay mixing of updated and previous charge densities.

  Evaluating partitioned Hartree potential by multipole expansion.
  | Analytical far-field extrapolation by fixed multipoles:
  | Hartree multipole sum: apparent total charge =  -0.338437E-05
  Summing up the Hartree potential.
  Time summed over all CPUs for potential: real work        1.920 s, elapsed        1.927 s
  | RMS charge density error from multipole expansion :   0.129448E-01

  Integrating Hamiltonian matrix: batch-based integration.
  Time summed over all CPUs for integration: real work        5.206 s, elapsed        5.264 s

  Updating Kohn-Sham eigenvalues, eigenvectors, occupation numbers, and Fermi level.
  Solving generalized eigenproblem
  Updating Kohn-Sham eigenvalues and eigenfunctions.
  Solving real generalised eigenvalue problem by standard LAPACK (fast)
  Determining occupation numbers for Kohn-Sham eigenstates.
  | Chemical potential (Fermi level) in eV                 : -.19223668E+01
  | Error in electron count due to remaining E_F inaccuracy: 0.00000000E+00
  | Maximum occupation number of highest empty state:  0.00E+00

  Highest occupied state (VBM) at     -1.92236677 eV
  | Occupation number:      1.00000000

  Lowest unoccupied state (CBM) at    -1.92236677 eV
  | Occupation number:      1.00000000

  Overall HOMO-LUMO gap:      0.00000000 eV.

  Total energy components:
  | Sum of eigenvalues            :        -169.30982415 Ha       -4607.15472469 eV
  | XC energy correction          :         -37.47009456 Ha       -1019.61315026 eV
  | XC potential correction       :          47.90204018 Ha        1303.48083380 eV
  | Free-atom electrostatic energy:        -142.65321473 Ha       -3881.79147617 eV
  | Hartree energy correction     :          -5.19425602 Ha        -141.34289783 eV
  | van der Waals energy corr.    :           0.00000000 Ha           0.00000000 eV
  | Entropy correction            :          -0.00010367 Ha          -0.00282095 eV
  | ---------------------------
  | Total energy                  :        -306.72534928 Ha       -8346.42141514 eV
  | Total energy, T -> 0          :        -306.72545295 Ha       -8346.42423609 eV  <-- do not rely on this value for anything but (periodic) metals
  | Electronic free energy        :        -306.72555662 Ha       -8346.42705704 eV

  Derived energy quantities:
  | Kinetic energy                :         306.01942358 Ha        8327.21219939 eV
  | Electrostatic energy          :        -575.27467830 Ha      -15654.02046427 eV
  | Energy correction for multipole
  | error in Hartree potential    :          -0.00297542 Ha          -0.08096537 eV
  | Sum of eigenvalues per atom                           :        -354.39651728 eV
  | Total energy (T->0) per atom                          :        -642.03263355 eV  <-- do not rely on this value for anything but (periodic) metals
  | Electronic free energy per atom                       :        -642.03285054 eV

  Self-consistency convergence accuracy:
  | Change of charge density      : 0.2066E+00
  | Change of sum of eigenvalues  : -.6664E+01 eV
  | Change of total energy        : -.2162E-02 eV

  End self-consistency iteration #     3       :  max(cpu_time)    wall_clock(cpu1)
  | Time for this iteration                    :        1.404 s           1.404 s
  | Charge density update                      :        0.455 s           0.455 s
  | Density mixing                             :        0.005 s           0.006 s
  | Hartree multipole update                   :        0.005 s           0.004 s
  | Hartree multipole summation                :        0.242 s           0.242 s
  | Integration                                :        0.659 s           0.659 s
  | Solution of K.-S. eqns.                    :        0.036 s           0.036 s
  | Total energy evaluation                    :        0.001 s           0.001 s
------------------------------------------------------------

------------------------------------------------------------
          Begin self-consistency iteration #    4

  Date     :  20150727, Time     :  121005.998
------------------------------------------------------------
  Evaluating new KS density.
  Integration grid: deviation in total charge (<rho> - N_e) =   0.000000E+00
  Pulay mixing of updated and previous charge densities.

  Evaluating partitioned Hartree potential by multipole expansion.
  | Analytical far-field extrapolation by fixed multipoles:
  | Hartree multipole sum: apparent total charge =  -0.393593E-05
  Summing up the Hartree potential.
  Time summed over all CPUs for potential: real work        1.920 s, elapsed        1.927 s
  | RMS charge density error from multipole expansion :   0.156185E-01

  Integrating Hamiltonian matrix: batch-based integration.
  Time summed over all CPUs for integration: real work        5.189 s, elapsed        5.244 s

  Updating Kohn-Sham eigenvalues, eigenvectors, occupation numbers, and Fermi level.
  Solving generalized eigenproblem
  Updating Kohn-Sham eigenvalues and eigenfunctions.
  Solving real generalised eigenvalue problem by standard LAPACK (fast)
  Determining occupation numbers for Kohn-Sham eigenstates.
  | Chemical potential (Fermi level) in eV                 : -.18466060E+01
  | Error in electron count due to remaining E_F inaccuracy: 0.14590285E-09
  | Maximum occupation number of highest empty state:  0.00E+00

  Highest occupied state (VBM) at     -1.84660601 eV
  | Occupation number:      1.00000000

  Lowest unoccupied state (CBM) at    -1.07847138 eV
  | Occupation number:      0.00000000

  Overall HOMO-LUMO gap:      0.76813463 eV.

  Total energy components:
  | Sum of eigenvalues            :        -168.62198320 Ha       -4588.43761992 eV
  | XC energy correction          :         -37.56655339 Ha       -1022.23792864 eV
  | XC potential correction       :          48.02585075 Ha        1306.84989083 eV
  | Free-atom electrostatic energy:        -142.65321473 Ha       -3881.79147617 eV
  | Hartree energy correction     :          -5.90644256 Ha        -160.72247942 eV
  | van der Waals energy corr.    :           0.00000000 Ha           0.00000000 eV
  | Entropy correction            :          -0.00010367 Ha          -0.00282095 eV
  | ---------------------------
  | Total energy                  :        -306.72234312 Ha       -8346.33961332 eV
  | Total energy, T -> 0          :        -306.72244679 Ha       -8346.34243427 eV  <-- do not rely on this value for anything but (periodic) metals
  | Electronic free energy        :        -306.72255045 Ha       -8346.34525521 eV

  Derived energy quantities:
  | Kinetic energy                :         306.08905106 Ha        8329.10685956 eV
  | Electrostatic energy          :        -575.24484078 Ha      -15653.20854423 eV
  | Energy correction for multipole
  | error in Hartree potential    :          -0.00392925 Ha          -0.10692026 eV
  | Sum of eigenvalues per atom                           :        -352.95673999 eV
  | Total energy (T->0) per atom                          :        -642.02634110 eV  <-- do not rely on this value for anything but (periodic) metals
  | Electronic free energy per atom                       :        -642.02655809 eV

  Self-consistency convergence accuracy:
  | Change of charge density      : 0.8824E-01
  | Change of sum of eigenvalues  : 0.1872E+02 eV
  | Change of total energy        : 0.8180E-01 eV

  End self-consistency iteration #     4       :  max(cpu_time)    wall_clock(cpu1)
  | Time for this iteration                    :        1.403 s           1.403 s
  | Charge density update                      :        0.456 s           0.456 s
  | Density mixing                             :        0.007 s           0.007 s
  | Hartree multipole update                   :        0.004 s           0.004 s
  | Hartree multipole summation                :        0.242 s           0.242 s
  | Integration                                :        0.657 s           0.657 s
  | Solution of K.-S. eqns.                    :        0.036 s           0.036 s
  | Total energy evaluation                    :        0.000 s           0.001 s
------------------------------------------------------------

------------------------------------------------------------
          Begin self-consistency iteration #    5

  Date     :  20150727, Time     :  121007.402
------------------------------------------------------------
  Evaluating new KS density.
  Integration grid: deviation in total charge (<rho> - N_e) =   1.458815E-10
  Pulay mixing of updated and previous charge densities.

  Evaluating partitioned Hartree potential by multipole expansion.
  | Analytical far-field extrapolation by fixed multipoles:
  | Hartree multipole sum: apparent total charge =  -0.395213E-05
  Summing up the Hartree potential.
  Time summed over all CPUs for potential: real work        1.920 s, elapsed        1.927 s
  | RMS charge density error from multipole expansion :   0.162677E-01

  Integrating Hamiltonian matrix: batch-based integration.
  Time summed over all CPUs for integration: real work        5.193 s, elapsed        5.250 s

  Updating Kohn-Sham eigenvalues, eigenvectors, occupation numbers, and Fermi level.
  Solving generalized eigenproblem
  Updating Kohn-Sham eigenvalues and eigenfunctions.
  Solving real generalised eigenvalue problem by standard LAPACK (fast)
  Determining occupation numbers for Kohn-Sham eigenstates.
  | Chemical potential (Fermi level) in eV                 : -.18526504E+01
  | Error in electron count due to remaining E_F inaccuracy: 0.12789769E-12
  | Maximum occupation number of highest empty state:  0.00E+00

  Highest occupied state (VBM) at     -1.85265035 eV
  | Occupation number:      1.00000000

  Lowest unoccupied state (CBM) at    -1.07933964 eV
  | Occupation number:      0.00000000

  Overall HOMO-LUMO gap:      0.77331071 eV.

  Total energy components:
  | Sum of eigenvalues            :        -168.55191035 Ha       -4586.53084068 eV
  | XC energy correction          :         -37.57896614 Ha       -1022.57569665 eV
  | XC potential correction       :          48.04144984 Ha        1307.27436345 eV
  | Free-atom electrostatic energy:        -142.65321473 Ha       -3881.79147617 eV
  | Hartree energy correction     :          -5.97953335 Ha        -162.71138106 eV
  | van der Waals energy corr.    :           0.00000000 Ha           0.00000000 eV
  | Entropy correction            :          -0.00010367 Ha          -0.00282095 eV
  | ---------------------------
  | Total energy                  :        -306.72217472 Ha       -8346.33503111 eV
  | Total energy, T -> 0          :        -306.72227839 Ha       -8346.33785206 eV  <-- do not rely on this value for anything but (periodic) metals
  | Electronic free energy        :        -306.72238206 Ha       -8346.34067301 eV

  Derived energy quantities:
  | Kinetic energy                :         306.08426770 Ha        8328.97669778 eV
  | Electrostatic energy          :        -575.22747629 Ha      -15652.73603224 eV
  | Energy correction for multipole
  | error in Hartree potential    :          -0.00437588 Ha          -0.11907366 eV
  | Sum of eigenvalues per atom                           :        -352.81006467 eV
  | Total energy (T->0) per atom                          :        -642.02598862 eV  <-- do not rely on this value for anything but (periodic) metals
  | Electronic free energy per atom                       :        -642.02620562 eV

  Self-consistency convergence accuracy:
  | Change of charge density      : 0.2790E-01
  | Change of sum of eigenvalues  : 0.1907E+01 eV
  | Change of total energy        : 0.4582E-02 eV

  End self-consistency iteration #     5       :  max(cpu_time)    wall_clock(cpu1)
  | Time for this iteration                    :        1.406 s           1.405 s
  | Charge density update                      :        0.456 s           0.455 s
  | Density mixing                             :        0.008 s           0.008 s
  | Hartree multipole update                   :        0.004 s           0.005 s
  | Hartree multipole summation                :        0.242 s           0.242 s
  | Integration                                :        0.657 s           0.657 s
  | Solution of K.-S. eqns.                    :        0.036 s           0.036 s
  | Total energy evaluation                    :        0.000 s           0.001 s
------------------------------------------------------------

------------------------------------------------------------
          Begin self-consistency iteration #    6

  Date     :  20150727, Time     :  121008.807
------------------------------------------------------------
  Evaluating new KS density.
  Integration grid: deviation in total charge (<rho> - N_e) =   1.492140E-13
  Pulay mixing of updated and previous charge densities.

  Evaluating partitioned Hartree potential by multipole expansion.
  | Analytical far-field extrapolation by fixed multipoles:
  | Hartree multipole sum: apparent total charge =  -0.395344E-05
  Summing up the Hartree potential.
  Time summed over all CPUs for potential: real work        1.920 s, elapsed        1.927 s
  | RMS charge density error from multipole expansion :   0.164947E-01

  Integrating Hamiltonian matrix: batch-based integration.
  Time summed over all CPUs for integration: real work        5.193 s, elapsed        5.259 s

  Updating Kohn-Sham eigenvalues, eigenvectors, occupation numbers, and Fermi level.
  Solving generalized eigenproblem
  Updating Kohn-Sham eigenvalues and eigenfunctions.
  Solving real generalised eigenvalue problem by standard LAPACK (fast)
  Determining occupation numbers for Kohn-Sham eigenstates.
  | Chemical potential (Fermi level) in eV                 : -.18566542E+01
  | Error in electron count due to remaining E_F inaccuracy: 0.13639578E-09
  | Maximum occupation number of highest empty state:  0.00E+00

  Highest occupied state (VBM) at     -1.85665416 eV
  | Occupation number:      1.00000000

  Lowest unoccupied state (CBM) at    -1.08386002 eV
  | Occupation number:      0.00000000

  Overall HOMO-LUMO gap:      0.77279414 eV.

  Total energy components:
  | Sum of eigenvalues            :        -168.55642760 Ha       -4586.65376139 eV
  | XC energy correction          :         -37.58008538 Ha       -1022.60615277 eV
  | XC potential correction       :          48.04267588 Ha        1307.30772581 eV
  | Free-atom electrostatic energy:        -142.65321473 Ha       -3881.79147617 eV
  | Hartree energy correction     :          -5.97514577 Ha        -162.59198895 eV
  | van der Waals energy corr.    :           0.00000000 Ha           0.00000000 eV
  | Entropy correction            :          -0.00010367 Ha          -0.00282095 eV
  | ---------------------------
  | Total energy                  :        -306.72219760 Ha       -8346.33565348 eV
  | Total energy, T -> 0          :        -306.72230126 Ha       -8346.33847443 eV  <-- do not rely on this value for anything but (periodic) metals
  | Electronic free energy        :        -306.72240493 Ha       -8346.34129537 eV

  Derived energy quantities:
  | Kinetic energy                :         306.06563679 Ha        8328.46972489 eV
  | Electrostatic energy          :        -575.20774901 Ha      -15652.19922559 eV
  | Energy correction for multipole
  | error in Hartree potential    :          -0.00455830 Ha          -0.12403768 eV
  | Sum of eigenvalues per atom                           :        -352.81952011 eV
  | Total energy (T->0) per atom                          :        -642.02603649 eV  <-- do not rely on this value for anything but (periodic) metals
  | Electronic free energy per atom                       :        -642.02625349 eV

  Self-consistency convergence accuracy:
  | Change of charge density      : 0.6608E-02
  | Change of sum of eigenvalues  : -.1229E+00 eV
  | Change of total energy        : -.6224E-03 eV

  End self-consistency iteration #     6       :  max(cpu_time)    wall_clock(cpu1)
  | Time for this iteration                    :        1.406 s           1.405 s
  | Charge density update                      :        0.455 s           0.453 s
  | Density mixing                             :        0.009 s           0.009 s
  | Hartree multipole update                   :        0.004 s           0.004 s
  | Hartree multipole summation                :        0.241 s           0.242 s
  | Integration                                :        0.659 s           0.658 s
  | Solution of K.-S. eqns.                    :        0.036 s           0.036 s
  | Total energy evaluation                    :        0.000 s           0.000 s
------------------------------------------------------------

------------------------------------------------------------
          Begin self-consistency iteration #    7

  Date     :  20150727, Time     :  121010.213
------------------------------------------------------------
  Evaluating new KS density.
  Integration grid: deviation in total charge (<rho> - N_e) =   1.364100E-10
  Pulay mixing of updated and previous charge densities.

  Evaluating partitioned Hartree potential by multipole expansion.
  | Analytical far-field extrapolation by fixed multipoles:
  | Hartree multipole sum: apparent total charge =  -0.394414E-05
  Summing up the Hartree potential.
  Time summed over all CPUs for potential: real work        1.920 s, elapsed        1.927 s
  | RMS charge density error from multipole expansion :   0.165461E-01

  Integrating Hamiltonian matrix: batch-based integration.
  Time summed over all CPUs for integration: real work        5.189 s, elapsed        5.252 s

  Updating Kohn-Sham eigenvalues, eigenvectors, occupation numbers, and Fermi level.
  Solving generalized eigenproblem
  Updating Kohn-Sham eigenvalues and eigenfunctions.
  Solving real generalised eigenvalue problem by standard LAPACK (fast)
  Determining occupation numbers for Kohn-Sham eigenstates.
  | Chemical potential (Fermi level) in eV                 : -.18709999E+01
  | Error in electron count due to remaining E_F inaccuracy: 0.00000000E+00
  | Maximum occupation number of highest empty state:  0.00E+00

  Highest occupied state (VBM) at     -1.87099992 eV
  | Occupation number:      1.00000000

  Lowest unoccupied state (CBM) at    -1.87099992 eV
  | Occupation number:      1.00000000

  Overall HOMO-LUMO gap:      0.00000000 eV.

  Total energy components:
  | Sum of eigenvalues            :        -168.59517500 Ha       -4587.70813165 eV
  | XC energy correction          :         -37.57619679 Ha       -1022.50033890 eV
  | XC potential correction       :          48.03746632 Ha        1307.16596645 eV
  | Free-atom electrostatic energy:        -142.65321473 Ha       -3881.79147617 eV
  | Hartree energy correction     :          -5.93507079 Ha        -161.50149328 eV
  | van der Waals energy corr.    :           0.00000000 Ha           0.00000000 eV
  | Entropy correction            :          -0.00010367 Ha          -0.00282095 eV
  | ---------------------------
  | Total energy                  :        -306.72219098 Ha       -8346.33547355 eV
  | Total energy, T -> 0          :        -306.72229465 Ha       -8346.33829449 eV  <-- do not rely on this value for anything but (periodic) metals
  | Electronic free energy        :        -306.72239832 Ha       -8346.34111544 eV

  Derived energy quantities:
  | Kinetic energy                :         306.09113035 Ha        8329.16343987 eV
  | Electrostatic energy          :        -575.23712454 Ha      -15652.99857452 eV
  | Energy correction for multipole
  | error in Hartree potential    :          -0.00476180 Ha          -0.12957505 eV
  | Sum of eigenvalues per atom                           :        -352.90062551 eV
  | Total energy (T->0) per atom                          :        -642.02602265 eV  <-- do not rely on this value for anything but (periodic) metals
  | Electronic free energy per atom                       :        -642.02623965 eV

  Self-consistency convergence accuracy:
  | Change of charge density      : 0.5328E-02
  | Change of sum of eigenvalues  : -.1054E+01 eV
  | Change of total energy        : 0.1799E-03 eV

  End self-consistency iteration #     7       :  max(cpu_time)    wall_clock(cpu1)
  | Time for this iteration                    :        1.407 s           1.407 s
  | Charge density update                      :        0.456 s           0.455 s
  | Density mixing                             :        0.010 s           0.010 s
  | Hartree multipole update                   :        0.005 s           0.004 s
  | Hartree multipole summation                :        0.241 s           0.242 s
  | Integration                                :        0.658 s           0.657 s
  | Solution of K.-S. eqns.                    :        0.036 s           0.036 s
  | Total energy evaluation                    :        0.000 s           0.001 s
------------------------------------------------------------

------------------------------------------------------------
          Begin self-consistency iteration #    8

  Date     :  20150727, Time     :  121011.620
------------------------------------------------------------
  Evaluating new KS density.
  Integration grid: deviation in total charge (<rho> - N_e) =   2.131628E-14
  Pulay mixing of updated and previous charge densities.

  Evaluating partitioned Hartree potential by multipole expansion.
  | Analytical far-field extrapolation by fixed multipoles:
  | Hartree multipole sum: apparent total charge =  -0.390900E-05
  Summing up the Hartree potential.
  Time summed over all CPUs for potential: real work        1.920 s, elapsed        1.927 s
  | RMS charge density error from multipole expansion :   0.165402E-01

  Integrating Hamiltonian matrix: batch-based integration.
  Time summed over all CPUs for integration: real work        5.187 s, elapsed        5.256 s

  Updating Kohn-Sham eigenvalues, eigenvectors, occupation numbers, and Fermi level.
  Solving generalized eigenproblem
  Updating Kohn-Sham eigenvalues and eigenfunctions.
  Solving real generalised eigenvalue problem by standard LAPACK (fast)
  Determining occupation numbers for Kohn-Sham eigenstates.
  | Chemical potential (Fermi level) in eV                 : -.18794782E+01
  | Error in electron count due to remaining E_F inaccuracy: 0.00000000E+00
  | Maximum occupation number of highest empty state:  0.00E+00

  Highest occupied state (VBM) at     -1.87947816 eV
  | Occupation number:      1.00000000

  Lowest unoccupied state (CBM) at    -1.87947816 eV
  | Occupation number:      1.00000000

  Overall HOMO-LUMO gap:      0.00000000 eV.

  Total energy components:
  | Sum of eigenvalues            :        -168.62534608 Ha       -4588.52912862 eV
  | XC energy correction          :         -37.57338018 Ha       -1022.42369513 eV
  | XC potential correction       :          48.03374678 Ha        1307.06475260 eV
  | Free-atom electrostatic energy:        -142.65321473 Ha       -3881.79147617 eV
  | Hartree energy correction     :          -5.90399253 Ha        -160.65581071 eV
  | van der Waals energy corr.    :           0.00000000 Ha           0.00000000 eV
  | Entropy correction            :          -0.00010367 Ha          -0.00282095 eV
  | ---------------------------
  | Total energy                  :        -306.72218674 Ha       -8346.33535803 eV
  | Total energy, T -> 0          :        -306.72229041 Ha       -8346.33817898 eV  <-- do not rely on this value for anything but (periodic) metals
  | Electronic free energy        :        -306.72239407 Ha       -8346.34099992 eV

  Derived energy quantities:
  | Kinetic energy                :         306.09896669 Ha        8329.37667752 eV
  | Electrostatic energy          :        -575.24777324 Ha      -15653.28834042 eV
  | Energy correction for multipole
  | error in Hartree potential    :          -0.00484244 Ha          -0.13176946 eV
  | Sum of eigenvalues per atom                           :        -352.96377912 eV
  | Total energy (T->0) per atom                          :        -642.02601377 eV  <-- do not rely on this value for anything but (periodic) metals
  | Electronic free energy per atom                       :        -642.02623076 eV

  Self-consistency convergence accuracy:
  | Change of charge density      : 0.2244E-02
  | Change of sum of eigenvalues  : -.8210E+00 eV
  | Change of total energy        : 0.1155E-03 eV

  End self-consistency iteration #     8       :  max(cpu_time)    wall_clock(cpu1)
  | Time for this iteration                    :        1.408 s           1.407 s
  | Charge density update                      :        0.454 s           0.453 s
  | Density mixing                             :        0.012 s           0.012 s
  | Hartree multipole update                   :        0.004 s           0.005 s
  | Hartree multipole summation                :        0.242 s           0.241 s
  | Integration                                :        0.658 s           0.658 s
  | Solution of K.-S. eqns.                    :        0.036 s           0.037 s
  | Total energy evaluation                    :        0.000 s           0.001 s
------------------------------------------------------------

------------------------------------------------------------
          Begin self-consistency iteration #    9

  Date     :  20150727, Time     :  121013.029
------------------------------------------------------------
  Evaluating new KS density.
  Integration grid: deviation in total charge (<rho> - N_e) =   7.105427E-15
  Pulay mixing of updated and previous charge densities.

  Evaluating partitioned Hartree potential by multipole expansion.
  | Analytical far-field extrapolation by fixed multipoles:
  | Hartree multipole sum: apparent total charge =  -0.389855E-05
  Summing up the Hartree potential.
  Time summed over all CPUs for potential: real work        1.919 s, elapsed        1.927 s
  | RMS charge density error from multipole expansion :   0.165367E-01

  Integrating Hamiltonian matrix: batch-based integration.
  Time summed over all CPUs for integration: real work        5.190 s, elapsed        5.259 s

  Updating Kohn-Sham eigenvalues, eigenvectors, occupation numbers, and Fermi level.
  Solving generalized eigenproblem
  Updating Kohn-Sham eigenvalues and eigenfunctions.
  Solving real generalised eigenvalue problem by standard LAPACK (fast)
  Determining occupation numbers for Kohn-Sham eigenstates.
  | Chemical potential (Fermi level) in eV                 : -.18796739E+01
  | Error in electron count due to remaining E_F inaccuracy: -.95173434E-08
  | Maximum occupation number of highest empty state:  0.00E+00

  Highest occupied state (VBM) at     -7.63699326 eV
  | Occupation number:      2.00000000

  Lowest unoccupied state (CBM) at    -1.87967390 eV
  | Occupation number:      0.99999999

  Overall HOMO-LUMO gap:      5.75731936 eV.

  Total energy components:
  | Sum of eigenvalues            :        -168.62389796 Ha       -4588.48972340 eV
  | XC energy correction          :         -37.57367907 Ha       -1022.43182836 eV
  | XC potential correction       :          48.03414107 Ha        1307.07548169 eV
  | Free-atom electrostatic energy:        -142.65321473 Ha       -3881.79147617 eV
  | Hartree energy correction     :          -5.90553540 Ha        -160.69779446 eV
  | van der Waals energy corr.    :           0.00000000 Ha           0.00000000 eV
  | Entropy correction            :          -0.00010367 Ha          -0.00282095 eV
  | ---------------------------
  | Total energy                  :        -306.72218610 Ha       -8346.33534069 eV
  | Total energy, T -> 0          :        -306.72228977 Ha       -8346.33816164 eV  <-- do not rely on this value for anything but (periodic) metals
  | Electronic free energy        :        -306.72239344 Ha       -8346.34098258 eV

  Derived energy quantities:
  | Kinetic energy                :         306.10404984 Ha        8329.51499734 eV
  | Electrostatic energy          :        -575.25255687 Ha      -15653.41850967 eV
  | Energy correction for multipole
  | error in Hartree potential    :          -0.00484869 Ha          -0.13193951 eV
  | Sum of eigenvalues per atom                           :        -352.96074795 eV
  | Total energy (T->0) per atom                          :        -642.02601243 eV  <-- do not rely on this value for anything but (periodic) metals
  | Electronic free energy per atom                       :        -642.02622943 eV

  Self-consistency convergence accuracy:
  | Change of charge density      : 0.7233E-03
  | Change of sum of eigenvalues  : 0.3941E-01 eV
  | Change of total energy        : 0.1734E-04 eV

  End self-consistency iteration #     9       :  max(cpu_time)    wall_clock(cpu1)
  | Time for this iteration                    :        1.409 s           1.408 s
  | Charge density update                      :        0.454 s           0.453 s
  | Density mixing                             :        0.013 s           0.013 s
  | Hartree multipole update                   :        0.004 s           0.004 s
  | Hartree multipole summation                :        0.241 s           0.242 s
  | Integration                                :        0.659 s           0.659 s
  | Solution of K.-S. eqns.                    :        0.036 s           0.036 s
  | Total energy evaluation                    :        0.001 s           0.001 s
------------------------------------------------------------

------------------------------------------------------------
          Begin self-consistency iteration #   10

  Date     :  20150727, Time     :  121014.438
------------------------------------------------------------
  Evaluating new KS density.
  Integration grid: deviation in total charge (<rho> - N_e) =  -9.517358E-09
[...]
  | Electronic free energy        :        -306.72439236 Ha       -8346.39537603 eV

  Derived energy quantities:
  | Kinetic energy                :         306.10306218 Ha        8329.48812165 eV
  | Electrostatic energy          :        -575.25128909 Ha      -15653.38401146 eV
  | Energy correction for multipole
  | error in Hartree potential    :          -0.00486950 Ha          -0.13250584 eV
  | Sum of eigenvalues per atom                           :        -352.95721000 eV
  | Total energy (T->0) per atom                          :        -642.03019654 eV  <-- do not rely on this value for anything but (periodic) metals
  | Electronic free energy per atom                       :        -642.03041354 eV

  atomic forces [eV/Ang]:
  -----------------------
  atom #    1
   Hellmann-Feynman + Multipole  : -.213027E+01 -.769123E+01 -.761362E+01
   Pulay + GGA                   : 0.232929E+01 0.884220E+01 0.618241E+01
   Van der Waals               : 0.595723E-02 -.244528E-02 -.359454E-02
   ----------------------------------------------------------------
   Total forces(   1)            : 0.204981E+00 0.114853E+01 -.143481E+01
  atom #    2
   Hellmann-Feynman + Multipole  : 0.228832E+00 -.546902E+00 0.145216E+00
   Pulay + GGA                   : -.244899E-01 0.601836E-01 -.369275E-01
   Van der Waals               : -.723256E-03 0.621591E-03 -.345676E-02
   ----------------------------------------------------------------
   Total forces(   2)            : 0.203618E+00 -.486096E+00 0.104832E+00
  atom #    3
   Hellmann-Feynman + Multipole  : -.587810E+00 -.228240E+00 0.580161E-01
   Pulay + GGA                   : 0.147763E+00 0.626135E-01 0.221654E-01
   Van der Waals               : 0.448704E-02 -.308699E-02 -.145556E-02
   ----------------------------------------------------------------
   Total forces(   3)            : -.435560E+00 -.168714E+00 0.787259E-01
  atom #    4
   Hellmann-Feynman + Multipole  : 0.466617E-01 -.131002E+00 0.804359E+00
   Pulay + GGA                   : -.307821E-01 -.119521E-01 0.745944E-01
   Van der Waals               : 0.123238E-02 0.867884E-03 0.702796E-03
   ----------------------------------------------------------------
   Total forces(   4)            : 0.171120E-01 -.142087E+00 0.879657E+00
  atom #    5
   Hellmann-Feynman + Multipole  : 0.745291E+01 -.570564E+01 -.778254E+01
   Pulay + GGA                   : -.768166E+01 0.418875E+01 0.660717E+01
   Van der Waals               : -.101213E-02 0.214007E-02 0.218419E-02
   ----------------------------------------------------------------
   Total forces(   5)            : -.229767E+00 -.151475E+01 -.117318E+01
  atom #    6
   Hellmann-Feynman + Multipole  : -.616250E-01 0.950505E+00 0.982226E+00
   Pulay + GGA                   : 0.453424E-01 0.102332E+00 0.108578E+00
   Van der Waals               : -.981516E-03 0.395365E-02 0.215563E-02
   ----------------------------------------------------------------
   Total forces(   6)            : -.172640E-01 0.105679E+01 0.109296E+01
  atom #    7
   Hellmann-Feynman + Multipole  : 0.249320E+00 0.477859E+00 0.270854E+00
   Pulay + GGA                   : -.127431E+00 -.680923E-01 0.445964E-01
   Van der Waals               : -.111787E-02 0.990596E-03 0.984081E-03
   ----------------------------------------------------------------
   Total forces(   7)            : 0.120771E+00 0.410757E+00 0.316435E+00
  atom #    8
   Hellmann-Feynman + Multipole  : -.611971E+01 -.673315E+01 0.887270E+01
   Pulay + GGA                   : 0.645931E+01 0.581840E+01 -.628878E+01
   Van der Waals               : -.581065E-02 -.985691E-03 -.264396E-02
   ----------------------------------------------------------------
   Total forces(   8)            : 0.333788E+00 -.915737E+00 0.258128E+01
  atom #    9
   Hellmann-Feynman + Multipole  : 0.865160E-01 0.285357E+00 0.259275E+00
   Pulay + GGA                   : 0.513128E-01 0.733537E-01 0.124956E-01
   Van der Waals               : -.257225E-02 0.406965E-02 0.351469E-03
   ----------------------------------------------------------------
   Total forces(   9)            : 0.135257E+00 0.362781E+00 0.272122E+00
  atom #   10
   Hellmann-Feynman + Multipole  : -.309302E+00 0.308398E+00 -.254797E+01
   Pulay + GGA                   : -.313126E-01 0.250175E-01 -.122460E+00
   Van der Waals               : -.131695E-02 0.255211E-02 -.601234E-03
   ----------------------------------------------------------------
   Total forces(  10)            : -.341931E+00 0.335968E+00 -.267103E+01
  atom #   11
   Hellmann-Feynman + Multipole  : -.123871E+02 -.285046E+01 0.291902E+01
   Pulay + GGA                   : 0.130306E+02 0.403952E+01 -.354618E+01
   Van der Waals               : 0.229302E-02 -.399965E-02 0.334061E-02
   ----------------------------------------------------------------
   Total forces(  11)            : 0.645823E+00 0.118507E+01 -.623828E+00
  atom #   12
   Hellmann-Feynman + Multipole  : -.177932E+00 -.132749E+00 0.546702E-01
   Pulay + GGA                   : 0.132123E+00 -.746405E-01 0.413902E-01
   Van der Waals               : 0.428368E-03 -.123430E-02 0.279279E-02
   ----------------------------------------------------------------
   Total forces(  12)            : -.453801E-01 -.208623E+00 0.988531E-01
  atom #   13
   Hellmann-Feynman + Multipole  : -.630605E+00 -.118582E+01 0.538776E+00
   Pulay + GGA                   : 0.469519E-01 0.119460E+00 -.652641E-01
   Van der Waals               : -.863435E-03 -.344364E-02 -.759522E-03
   ----------------------------------------------------------------
   Total forces(  13)            : -.584517E+00 -.106980E+01 0.472752E+00
  Timings for vdw_correction_hirshfeld (Tkatchenko-Scheffler 2009):
  | CPU time:        3.784 s, Wall clock time:        3.787 s.
  Removing unitary transformations (pure translations, rotations) from forces on atoms.
  Atomic forces before filtering:
  | Net force on center of mass :  0.693007E-02 -.592142E-02 -.523244E-02 eV/A
  | Net torque on center of mass:  0.126448E-01 0.833912E-02 -.135530E-01 eV
  Atomic forces after filtering:
  | Net force on center of mass :  0.892031E-16 0.535218E-15 0.624421E-15 eV/A
  | Net torque on center of mass:  0.519247E-15 0.151054E-14 0.377634E-15 eV
 
  Energy and forces in a compact form:
  | Total energy uncorrected      :         -0.834638973413449E+04 eV
  | Total energy corrected        :         -0.834639255508241E+04 eV  <-- do not rely on this value for anything but (periodic) metals
  | Electronic free energy        :         -0.834639537603032E+04 eV
  Total atomic forces (unitary forces cleaned) [eV/Ang]:
  |   1          0.205339682013657E+00          0.114898728609387E+01         -0.143391957842421E+01
  |   2          0.203807195867853E+00         -0.485914733639371E+00          0.105289617079233E+00
  |   3         -0.435326241632935E+00         -0.167863243257678E+00          0.800176432768646E-01
  |   4          0.170692169979001E-01         -0.141551890178245E+00          0.880417774279083E+00
  |   5         -0.230436326885218E+00         -0.151398465689732E+01         -0.117247923794164E+01
  |   6         -0.184787055088948E-01          0.105776294331526E+01          0.109362224433335E+01
  |   7          0.120147733859997E+00          0.411268848770454E+00          0.316857511422908E+00
  |   8          0.333700757173641E+00         -0.915922247834801E+00          0.258114682884956E+01
  |   9          0.134696282910172E+00          0.362848210806317E+00          0.272040081357534E+00
  |  10         -0.341646828377979E+00          0.335543107005053E+00         -0.267125592375045E+01
  |  11          0.644270106853374E+00          0.118565145421280E+01         -0.623816042772753E+00
  |  12         -0.469399449658837E-01         -0.207645553429042E+00          0.993382765645879E-01
  |  13         -0.586202928305685E+00         -0.106917952496729E+01          0.472740805725933E+00
 
  ------------------------------------ 
  Start decomposition of the XC Energy 
  ------------------------------------ 
  Hartree-Fock part   :          0.000000000 Ha              0.000000000 eV
  ------------------------------------ 
  X Energy            :        -36.240230190 Ha           -986.146838058 eV
  C Energy GGA        :         -1.333729687 Ha            -36.292631345 eV
  Total XC Energy     :        -37.573959877 Ha          -1022.439469403 eV
  LDA X and C from self-consistent density 
  X Energy LDA        :        -32.674263284 Ha           -889.111941486 eV
  C Energy LDA        :         -2.679639820 Ha            -72.916709464 eV
  ------------------------------------ 
  End decomposition of the XC Energy 
  ------------------------------------ 
  Performing Hirshfeld analysis of fragment charges and moments.
  ----------------------------------------------------------------------
  | Atom     1: O
  |   Hirshfeld charge        :     -0.14445112
  |   Free atom volume        :     23.95238533
  |   Hirshfeld volume        :     22.54727937
  |   Hirshfeld dipole vector :     -0.01249786       0.02618467       0.02548337
  |   Hirshfeld dipole moment :      0.03861652
  |   Hirshfeld second moments:      0.06429579      -0.00790945      -0.00580057
  |                                 -0.00790945       0.02698858      -0.02904315
  |                                 -0.00580057      -0.02904315       0.04114814
  ----------------------------------------------------------------------
  | Atom     2: H
  |   Hirshfeld charge        :      0.10664115
  |   Free atom volume        :     10.44207651
  |   Hirshfeld volume        :     10.21410628
  |   Hirshfeld dipole vector :     -0.01784488       0.00959973      -0.00029197
  |   Hirshfeld dipole moment :      0.02026524
  |   Hirshfeld second moments:      0.02731765       0.01479712       0.00148930
  |                                  0.01479712       0.02390880       0.00755252
  |                                  0.00148930       0.00755252       0.05186486
  ----------------------------------------------------------------------
  | Atom     3: H
  |   Hirshfeld charge        :      0.05839001
  |   Free atom volume        :     10.44207651
  |   Hirshfeld volume        :     15.94870684
  |   Hirshfeld dipole vector :     -0.04312203      -0.01439245      -0.00183141
  |   Hirshfeld dipole moment :      0.04549733
  |   Hirshfeld second moments:     -0.12475411      -0.04069827      -0.01257646
  |                                 -0.04069827      -0.04258470      -0.01069419
  |                                 -0.01257646      -0.01069419      -0.04393707
  ----------------------------------------------------------------------
  | Atom     4: H
  |   Hirshfeld charge        :      0.09789346
  |   Free atom volume        :     10.44207651
  |   Hirshfeld volume        :     10.35994163
  |   Hirshfeld dipole vector :     -0.02750998      -0.00231991       0.01366604
  |   Hirshfeld dipole moment :      0.03080490
  |   Hirshfeld second moments:      0.03805030       0.00330294       0.00441294
  |                                  0.00330294       0.04793290      -0.00178508
  |                                  0.00441294      -0.00178508       0.01064981
  ----------------------------------------------------------------------
  | Atom     5: O
  |   Hirshfeld charge        :     -0.23184125
  |   Free atom volume        :     23.95238533
  |   Hirshfeld volume        :     22.88329026
  |   Hirshfeld dipole vector :     -0.03092547       0.01784769      -0.00585550
  |   Hirshfeld dipole moment :      0.03618303
  |   Hirshfeld second moments:      0.00344957       0.04947844      -0.01081103
  |                                  0.04947844       0.01807484       0.01791688
  |                                 -0.01081103       0.01791688       0.04650073
  ----------------------------------------------------------------------
  | Atom     6: H
  |   Hirshfeld charge        :      0.09236049
  |   Free atom volume        :     10.44207651
  |   Hirshfeld volume        :     12.66492573
  |   Hirshfeld dipole vector :     -0.00006843       0.03380098       0.03506095
  |   Hirshfeld dipole moment :      0.04870094
  |   Hirshfeld second moments:     -0.02167445       0.00694902      -0.00036435
  |                                  0.00694902      -0.01577695      -0.00564448
  |                                 -0.00036435      -0.00564448       0.02723085
  ----------------------------------------------------------------------
  | Atom     7: H
  |   Hirshfeld charge        :      0.11881266
  |   Free atom volume        :     10.44207651
  |   Hirshfeld volume        :     10.87844097
  |   Hirshfeld dipole vector :     -0.06101778      -0.04282750       0.00656726
  |   Hirshfeld dipole moment :      0.07483644
  |   Hirshfeld second moments:      0.01735113       0.01811563       0.00410306
  |                                  0.01811563       0.03822374       0.01101539
  |                                  0.00410306       0.01101539       0.04493164
  ----------------------------------------------------------------------
  | Atom     8: O
  |   Hirshfeld charge        :     -0.21680140
  |   Free atom volume        :     23.95238533
  |   Hirshfeld volume        :     21.99227918
  |   Hirshfeld dipole vector :      0.02784012       0.00543417      -0.01692391
  |   Hirshfeld dipole moment :      0.03303061
  |   Hirshfeld second moments:     -0.00054839      -0.00136487       0.03349867
  |                                 -0.00136487       0.06192616       0.00268459
  |                                  0.03349867       0.00268459       0.06467005
  ----------------------------------------------------------------------
  | Atom     9: H
  |   Hirshfeld charge        :      0.09584011
  |   Free atom volume        :     10.44207651
  |   Hirshfeld volume        :     10.09640644
  |   Hirshfeld dipole vector :      0.00772780       0.03350940       0.00757607
  |   Hirshfeld dipole moment :      0.03521357
  |   Hirshfeld second moments:      0.01722034      -0.01507624       0.01143021
  |                                 -0.01507624       0.04249605      -0.01832879
  |                                  0.01143021      -0.01832879       0.04663351
  ----------------------------------------------------------------------
  | Atom    10: H
  |   Hirshfeld charge        :      0.12543294
  |   Free atom volume        :     10.44207651
  |   Hirshfeld volume        :     10.06438635
  |   Hirshfeld dipole vector :     -0.01966359       0.01131004      -0.07721648
  |   Hirshfeld dipole moment :      0.08047956
  |   Hirshfeld second moments:      0.03387631       0.00261598       0.01366464
  |                                  0.00261598       0.07314413       0.00338202
  |                                  0.01366464       0.00338202       0.04602898
  ----------------------------------------------------------------------
  | Atom    11: O
  |   Hirshfeld charge        :     -0.26392999
  |   Free atom volume        :     23.95238533
  |   Hirshfeld volume        :     23.57687653
  |   Hirshfeld dipole vector :      0.02270771      -0.00163631      -0.03377065
  |   Hirshfeld dipole moment :      0.04072806
  |   Hirshfeld second moments:     -0.00522051       0.00891818       0.04001609
  |                                  0.00891818       0.03361715      -0.02542354
  |                                  0.04001609      -0.02542354      -0.03714274
  ----------------------------------------------------------------------
  | Atom    12: H
  |   Hirshfeld charge        :      0.05490335
  |   Free atom volume        :     10.44207651
  |   Hirshfeld volume        :     14.10892550
  |   Hirshfeld dipole vector :      0.01528773       0.00720145       0.00601593
  |   Hirshfeld dipole moment :      0.01793787
  |   Hirshfeld second moments:     -0.05841841       0.04797197       0.01258212
  |                                  0.04797197      -0.00749811      -0.00092517
  |                                  0.01258212      -0.00092517      -0.04356733
  ----------------------------------------------------------------------
  | Atom    13: H
  |   Hirshfeld charge        :      0.10675000
  |   Free atom volume        :     10.44207651
  |   Hirshfeld volume        :     10.70845272
  |   Hirshfeld dipole vector :      0.01179853       0.07477520      -0.03604064
  |   Hirshfeld dipole moment :      0.08384189
  |   Hirshfeld second moments:      0.03454546      -0.00194689       0.01941358
  |                                 -0.00194689       0.04964226      -0.01059730
  |                                  0.01941358      -0.01059730       0.01997100
  ----------------------------------------------------------------------


------------------------------------------------------------------------------
  Final output of selected total energy values:

  The following output summarizes some interesting total energy values
  at the end of a run (AFTER all relaxation, molecular dynamics, etc.).

  | Total energy of the DFT / Hartree-Fock s.c.f. calculation      :          -8346.389734134 eV
  | Final zero-broadening corrected energy (caution - metals only) :          -8346.392555082 eV
  | For reference only, the value of 1 Hartree used in FHI-aims is :             27.211384500 eV

  Before relying on these values, please be sure to understand exactly which
  total energy value is referred to by a given number. Different objects may
  all carry the same name 'total energy'. Definitions:

  Total energy of the DFT / Hartree-Fock s.c.f. calculation:
  | Note that this energy does not include ANY quantities calculated after the
  | s.c.f. cycle, in particular not ANY RPA, MP2, etc. many-body perturbation terms.

  Final zero-broadening corrected energy:
  | For metallic systems only, a broadening of the occupation numbers at the Fermi
  | level can be extrapolated back to zero broadening by an electron-gas inspired
  | formula. For all systems that are not real metals, this value can be
  | meaningless and should be avoided.

------------------------------------------------------------------------------

------------------------------------------------------------
          Leaving FHI-aims.
          Date     :  20150727, Time     :  121027.216

          Computational steps:
          | Number of self-consistency cycles          :           16

          Detailed time accounting                     :  max(cpu_time)    wall_clock(cpu1)
          | Total time                                 :       27.394 s          27.421 s
          | Preparation time                           :        0.172 s           0.487 s
          | Grid partitioning                          :        0.121 s           0.121 s
          | Preloading free-atom quantities on grid    :        0.013 s           0.013 s
          | Free-atom superposition energy             :        0.053 s           0.053 s
          | Total time for integrations                :       11.546 s          11.547 s
          | Total time for solution of K.-S. equations :        0.712 s           0.715 s
          | Total time for density & force components  :        9.282 s           9.272 s
          | Total time for mixing                      :        0.174 s           0.173 s
          | Total time for Hartree multipole update    :        0.066 s           0.071 s
          | Total time for Hartree multipole sum       :        4.671 s           4.672 s
          | Total time for total energy evaluation     :        0.008 s           0.021 s
          | Total time for scaled ZORA corrections     :        0.000 s           0.000 s
          | Total time for TS (2009) vdW correction    :        0.044 s           0.047 s

          Have a nice day.
------------------------------------------------------------
