  MPI-parallelism will be employed.
------------------------------------------------------------
          Invoking FHI-aims ...
          Version 081213
          Compiled on 2013/08/29 at 17:41:06 on host generoso.

          When using FHI-aims, please cite the following reference:

          Volker Blum, Ralf Gehrke, Felix Hanke, Paula Havu,
          Ville Havu, Xinguo Ren, Karsten Reuter, and Matthias Scheffler,
          'Ab Initio Molecular Simulations with Numeric Atom-Centered Orbitals: FHI-aims',
          Computer Physics Communications 180, 2175-2196 (2009)

          For any questions about FHI-aims, please visit the aimsclub website
          with its forums and wiki. Contributions to both the forums and the
          wiki are warmly encouraged - they are for you, and everyone is welcome there.

------------------------------------------------------------

  Date     :  20150727, Time     :  124226.403
  Time zero on CPU 1             :   0.399920000000000E-01  s.
  Internal wall clock time zero  :           207232946.403  s.

  Using        8 parallel tasks.
  Task        0 on host gen59 reporting.
  Task        1 on host gen59 reporting.
  Task        2 on host gen59 reporting.
  Task        3 on host gen59 reporting.
  Task        4 on host gen59 reporting.
  Task        5 on host gen59 reporting.
  Task        6 on host gen59 reporting.
  Task        7 on host gen59 reporting.

  Performing system and environment tests:
  | Environment variable OMP_NUM_THREADS correctly set to 1.
  | Checking for scalapack...
  | No scalapack compiled in.

  Obtaining array dimensions for all initial allocations:
  
  -----------------------------------------------------------------------
  Parsing control.in (first pass over file, find array dimensions only).
  The contents of control.in will be repeated verbatim below
  unless switched off by setting 'verbatim_writeout .false.' .
  in the first line of control.in .
  -----------------------------------------------------------------------
  
  #########################################################################################
  #
  #  Volker Blum, FHI 2008 : Test run input file control.in
  #
  #########################################################################################
  #
  #  Physical model
  #
    xc                 rpbe
    spin               none
    relativistic       atomic_zora scalar
    charge             0.
   vdw_correction_hirshfeld
  #
  #  SCF convergence
  #
    occupation_type    gaussian 0.01
    mixer              pulay
      n_max_pulay        10
      charge_mix_param   0.1
    sc_accuracy_rho    5E-5
    sc_accuracy_eev    5E-3
    sc_accuracy_etot   5E-6
    sc_iter_limit      3000
  #
  #  Eigenvalue solver
  #
    KS_method          lapack
      empty_states       8
      basis_threshold    0.e-5
  #
  #  Efficiency
  #
  #   all previous settings are now default, except stratmann still
  #   undecided. Continue to handle stratmann with care, if at all.
  #
  #  partition_type stratmann
    partition_type rho_r2
  #  hartree_partition_type stratmann
  #
  #  Oprions for large clusters (100's of atoms: memory saving / better scaling)
  #
  # for periodic systems:
  #
    density_update_method orbital
    packed_matrix_format none
  #  k_grid 6 6 6
  #  output k_eigenvalue 1
  #  distributed_spline_storage .true.
  #
  #  Relaxation
  #
  #  relax_geometry   bfgs 5.e-3
    sc_accuracy_forces 5.E-4
    final_forces_cleaned .true.
  #
  #  Output options
  #
  #  output mulliken
    output Hirshfeld
  #  output dipole
  
  #harmonic_length_scale 0.001
  
  ################################################################################
  #
  #  FHI-aims code project
  #  VB, Fritz-Haber Institut, 2007
  #
  #  Suggested "safe" defaults for H atom (to be pasted into control.in file)
  #  Basis constructed for a non-relativistic H2 molecule using the
  #  PW-LDA functional.
  #
  ################################################################################
    species        H
  #     global species definitions
      nucleus             1
      cut_pot             4.0  2.0  1.0
      cut_free_atom       finite 8.0
      logarithmic         0.00010000 100.00  1.0123
      basis_dep_cutoff    1d-4  # 1d-4 is safe default - please check 5d-4 if you wish!
      radial_base         24 7.0
      radial_multiplier   2
      angular_grids       specified
        division   0.2783  110
        division   0.3822  194
        division   0.5626  302
  #      division   0.5922  434
  #      division   0.6227  590
  #      division   0.7206  770
        outer_grid  302
      l_hartree           4
  ################################################################################
  #
  #  Definition of "minimal" basis
  #
  ################################################################################
  #     valence basis states
      valence      1  s   1.
  #     ion occupancy
      ion_occ      1  s   0.5
  ################################################################################
  #
  #  Suggested additional basis functions. For production calculations,
  #  uncomment them one after another (the most important basis functions are
  #  listed first).
  #
  ################################################################################
  #  "First tier" - improvements: -1014.90 meV to -62.69 meV
       hydro 2 s 2.1
       hydro 2 p 3.5
  #  "Second tier" - improvements: -12.89 meV to -1.83 meV
       hydro 1 s 0.85
       hydro 2 p 3.7
       hydro 2 s 1.2
       hydro 3 d 7
  #  "Third tier" - improvements: -0.25 meV to -0.12 meV
  #     hydro 4 f 11.2
  #     hydro 3 p 4.8
  #     hydro 4 d 9
  #     hydro 3 s 3.2
  
  ################################################################################
  #
  #  FHI-aims code project
  #  VB, Fritz-Haber Institut, 2007
  #
  #  Suggested "safe" defaults for O atom (to be pasted into control.in file)
  #  All values have been tested for a non-relativistic, non-spinpolarized O2
  #  molecule using the PW-LDA functional. Validity for PBE is expected.
  #
  #  Constructed for dimers: 1.0 A, 1.208 A, 1.5 A, 2.0 A, 3.0 A
  #
  ################################################################################
    species        O
  #     global species definitions
      nucleus             8
      mass                15.9994
      l_hartree           4
      cut_pot             4.0  2.0  1.0
      cut_free_atom       finite 8.0
      basis_dep_cutoff    1d-4  # 1d-4 is safe default - please check 5d-4 if you wish!
      logarithmic         0.00010000 100.00  1.0123
      radial_base         36 7.0
      radial_multiplier   2
       angular_grids specified
        division   0.4087  110
        division   0.5181  194
        division   0.6184  302
  #      division   0.7315  434
  #      division   0.7934  590
  #      division   0.9656  770
  #      division   1.4041  974
  #      outer_grid 974
        outer_grid 302
  ################################################################################
  #
  #  Definition of "minimal" basis
  #
  ################################################################################
  #     valence basis states
      valence      2  s   2.
      valence      2  p   4.
  #     ion occupancy
      ion_occ      2  s   1.
      ion_occ      2  p   3.
  ################################################################################
  #
  #  Suggested additional basis functions. For production calculations,
  #  uncomment them one after another (the most important basis functions are
  #  listed first).
  #
  ################################################################################
  #  "First tier" - improvements: -699.05 meV to -159.38 meV
       hydro 2 p 1.8
       hydro 3 d 7.6
       hydro 3 s 6.4
  #  "Second tier" - improvements: -49.91 meV to -5.39 meV
       hydro 4 f 11.6
       hydro 3 p 6.2
       hydro 3 d 5.6
       hydro 5 g 17.6
       hydro 1 s 0.75
  #  "Third tier" - improvements: -2.83 meV to -0.50 meV
  #     ionic 2 p auto
  #     hydro 4 f 10.8
  #     hydro 4 d 4.7
  #     hydro 2 s 6.8
  #  "Fourth tier" - improvements: -0.40 meV to -0.12 meV
  #     hydro 3 p 5
  #     hydro 3 s 3.3
  #     hydro 5 g 15.6
  #     hydro 4 f 17.6
  #     hydro 4 d 14
  # Further basis functions - -0.08 meV and below
  #     hydro 3 s 2.1
  #     hydro 4 d 11.6
  #     hydro 3 p 16
  #     hydro 2 s 17.2
  
  
  -----------------------------------------------------------------------
  Completed first pass over input file control.in .
  -----------------------------------------------------------------------
  
  
  -----------------------------------------------------------------------
  Parsing geometry.in (first pass over file, find array dimensions only).
  The contents of geometry.in will be repeated verbatim below
  unless switched off by setting 'verbatim_writeout .false.' .
  in the first line of geometry.in .
  -----------------------------------------------------------------------
  
  atom      -4.053030000      0.065001000     -1.525160000  O
  atom      -4.566710000      0.974813000     -1.912820000  H
  atom      -3.067820000      0.330172000     -1.477310000  H
  atom      -4.370360000     -0.049164000     -0.572274000  H
  atom      -5.293160000      2.192130000     -2.328800000  O
  atom      -4.829300000      2.988660000     -1.973850000  H
  atom      -5.428570000      2.328640000     -3.235170000  H
  atom      -1.645860000      0.870179000     -1.502250000  O
  atom      -1.568890000      1.501730000     -0.721051000  H
  atom      -0.824432000      0.282220000     -1.377720000  H
  atom      -1.975360000      2.858040000      0.453140000  O
  atom      -1.223550000      3.375850000      0.786238000  H
  atom      -2.537520000      2.567960000      1.156120000  H
  
  -----------------------------------------------------------------------
  Completed first pass over input file geometry.in .
  -----------------------------------------------------------------------
  
 
  Basic array size parameters: 
  | Number of species                 :        2
  | Number of atoms                   :       13
  | Max. basis fn. angular momentum   :        4
  | Max. atomic/ionic basis occupied n:        2
  | Max. number of basis fn. types    :        2
  | Max. radial fns per species/type  :        8
  | Max. logarithmic grid size        :     1301
  | Max. radial integration grid size :       73
  | Max. angular integration grid size:      302
  | Max. angular grid division number :        8
  | Radial grid for Hartree potential :     1301
  | Number of spin channels           :        1

------------------------------------------------------------
          Reading file control.in.
------------------------------------------------------------
  XC: Using RPBE gradient-corrected functionals.
  Spin treatment: No spin polarisation.
  Scalar relativistic treatment of kinetic energy: on-site free-atom approximation to ZORA.
  Charge =   0.000000E+00: Neutral system requested explicitly.
  Using non-empirical van der Waals correction (Hirshfeld partitioning):
  Occupation type: Gaussian broadening, width =   0.100000E-01 eV.
  Using pulay charge density mixing.
  Pulay mixing - number of memorized iterations:   10
  Charge density mixing - mixing parameter:     0.1000
  Convergence accuracy of self-consistent charge density: 0.5000E-04
  Convergence accuracy of sum of eigenvalues: 0.5000E-02
  Convergence accuracy of total energy: 0.5000E-05
  Maximum number of s.-c. iterations  :  3000
  Kohn-Sham eigenvalues and eigenfunctions calculated by lapack diagonalisation (D&C).
  Number of empty states per atom:        8
  Threshold for basis singularities: 0.0000E+00
  Partition function in integrals calculations: rho / r^2
 Using packed matrix format           0
  Convergence accuracy of forces: 0.5000E-03
  Cleaning forces before final output.
  Hirshfeld charge analysis will be performed.
 
  Reading configuration options for species H                   .
  | Found nuclear charge :   1.0000
  | Found cutoff potl. onset [A], width [A], scale factor :    4.00000    2.00000    1.00000
  | Found cutoff specification for free atom: Cutoff potential begins at    8.00000 A.
  | Found logarithmic grid data [bohr] : 0.1000E-03 0.1000E+03 0.1012E+01
  | Threshold for basis-dependent cutoff potential is   0.100000E-03
  | Found data for basic radial integration grid :    24 points, outermost radius =    7.000 A
  | Found multiplier for basic radial grid :   2
  | Found angular grid specification: user-specified.
  | Specified grid contains     4 separate shells.
  | Check grid settings after all constraints further below.
  | Found l_max for Hartree potential  :   4
  | Found free-atom valence shell :  1 s   1.000
  | No ionic wave fns used. Skipping ion_occ.
  | Found hydrogenic basis function :  2 s   2.100
  | Found hydrogenic basis function :  2 p   3.500
  | Found hydrogenic basis function :  1 s   0.850
  | Found hydrogenic basis function :  2 p   3.700
  | Found hydrogenic basis function :  2 s   1.200
  | Found hydrogenic basis function :  3 d   7.000
  Species H                   : Missing cutoff potential type.
  Defaulting to exp(1/x)/(1-x)^2 type cutoff potential.
  Species H : On-site basis accuracy parameter (for Gram-Schmidt orthonormalisation) not specified.
  Using default value basis_acc =  0.1000000E-03.
  Species H                   : Using default innermost maximum threshold i_radial=  2 for radial functions.
  Species H                   : Basic radial grid will be enhanced according to radial_multiplier =   2, to contain    49 grid points.
 
  Reading configuration options for species O                   .
  | Found nuclear charge :   8.0000
  | Found atomic mass :    15.9994000000000      amu
  | Found l_max for Hartree potential  :   4
  | Found cutoff potl. onset [A], width [A], scale factor :    4.00000    2.00000    1.00000
  | Found cutoff specification for free atom: Cutoff potential begins at    8.00000 A.
  | Threshold for basis-dependent cutoff potential is   0.100000E-03
  | Found logarithmic grid data [bohr] : 0.1000E-03 0.1000E+03 0.1012E+01
  | Found data for basic radial integration grid :    36 points, outermost radius =    7.000 A
  | Found multiplier for basic radial grid :   2
  | Found angular grid specification: user-specified.
  | Specified grid contains     4 separate shells.
  | Check grid settings after all constraints further below.
  | Found free-atom valence shell :  2 s   2.000
  | Found free-atom valence shell :  2 p   4.000
  | No ionic wave fns used. Skipping ion_occ.
  | No ionic wave fns used. Skipping ion_occ.
  | Found hydrogenic basis function :  2 p   1.800
  | Found hydrogenic basis function :  3 d   7.600
  | Found hydrogenic basis function :  3 s   6.400
  | Found hydrogenic basis function :  4 f  11.600
  | Found hydrogenic basis function :  3 p   6.200
  | Found hydrogenic basis function :  3 d   5.600
  | Found hydrogenic basis function :  5 g  17.600
  | Found hydrogenic basis function :  1 s   0.750
  Species O                   : Missing cutoff potential type.
  Defaulting to exp(1/x)/(1-x)^2 type cutoff potential.
  Species O : On-site basis accuracy parameter (for Gram-Schmidt orthonormalisation) not specified.
  Using default value basis_acc =  0.1000000E-03.
  Species O                   : Using default innermost maximum threshold i_radial=  2 for radial functions.
  Species O                   : Basic radial grid will be enhanced according to radial_multiplier =   2, to contain    73 grid points.
 
  Finished reading input file 'control.in'. Consistency checks are next.
 
  Target number of points in a grid batch is not set. Defaulting to  100
  Method for grid partitioning is not set. Defaulting to parallel hash+maxmin partitioning.
  Batch size limit is not set. Defaulting to    200
  By default, will store active basis functions for each batch.
  If in need of memory, prune_basis_once .false. can be used to disable this option.
  communication_type for Hartree potential was not specified.
  Defaulting to calc_hartree .
  Pulay mixer: Number of initial linear mixing iterations not set.
  Defaulting to    0 iterations.
  Work space size for distributed Hartree potential not set.
  Defaulting to   0.200000E+03 MB.
  Algorithm-dependent basis array size parameters:
  | n_max_pulay                         :       10
  Geometry relaxation not requested: no relaxation will be performed.
  Handling of forces: Unphysical translation and rotation will be removed from forces.
  No accuracy limit for integral partition fn. given. Defaulting to 0.1000E-14.
  No threshold value for u(r) in integrations given. Defaulting to 0.1000E-05.
  No accuracy for occupation numbers given. Defaulting to 0.1000E-07.
  No threshold value for occupation numbers given. Defaulting to 0.0000E+00.
  No accuracy for fermi level given. Defaulting to 0.1000E-19.
  Maximum # of iterations to find E_F not set. Defaulting to  200.
  Will not use alltoall communication since running on < 1024 CPUs.
  Partitioning for Hartree potential was not defined. Using partition_type for integrals.
  | Reporting present value of keyword multip_moments_threshold  :       0.10000000E-09
  | This value may affect high angular momentum components of the Hartree potential in periodic systems.
  No q(lm)/r^(l+1) cutoff set for long-range Hartree potential.
  | Using default value of  0.100000E-09 .
  | Verify using the multipole_threshold keyword.
  Defaulting to new monopole extrapolation.
  Density update method: Loop over occupied states selected for charge density update.
------------------------------------------------------------


------------------------------------------------------------
          Reading geometry description geometry.in.
------------------------------------------------------------
  Input structure read successfully.
  The structure contains       13 atoms,  and a total of         41.000 electrons.

  Input geometry:
  | No unit cell requested.
  | Atomic structure:
  |       Atom                x [A]            y [A]            z [A]
  |    1: Species O             -4.053030         0.065001        -1.525160
  |    2: Species H             -4.566710         0.974813        -1.912820
  |    3: Species H             -3.067820         0.330172        -1.477310
  |    4: Species H             -4.370360        -0.049164        -0.572274
  |    5: Species O             -5.293160         2.192130        -2.328800
  |    6: Species H             -4.829300         2.988660        -1.973850
  |    7: Species H             -5.428570         2.328640        -3.235170
  |    8: Species O             -1.645860         0.870179        -1.502250
  |    9: Species H             -1.568890         1.501730        -0.721051
  |   10: Species H             -0.824432         0.282220        -1.377720
  |   11: Species O             -1.975360         2.858040         0.453140
  |   12: Species H             -1.223550         3.375850         0.786238
  |   13: Species H             -2.537520         2.567960         1.156120
  |

  | The smallest distance between any two atoms is         0.92654057 AA.
  |
  | The first atom of this pair is atom number                      5 .
  | The second atom of this pair is atom number                     7 .

  Structure-dependent array size parameters: 
  | Maximum number of distinct radial functions  :       18
  | Maximum number of basis functions            :      291
  | Number of Kohn-Sham states (occupied + empty):       73
------------------------------------------------------------

------------------------------------------------------------
          Preparing all fixed parts of the calculation.
------------------------------------------------------------
  Determining machine precision:
    2.225073858507201E-308
  Setting up grids for atomic and cluster calculations.

  Creating wave function, potential, and density for free atoms.

  Species: H

  List of occupied orbitals and eigenvalues:
    n    l              occ      energy [Ha]    energy [eV]
    1    0           1.0000        -0.241408        -6.5691


  Species: O

  List of occupied orbitals and eigenvalues:
    n    l              occ      energy [Ha]    energy [eV]
    1    0           2.0000       -18.944147      -515.4965
    2    0           2.0000        -0.883529       -24.0421
    2    1           4.0000        -0.330176        -8.9845

  Creating fixed part of basis set: Ionic, confined, hydrogenic.
 
  H                    hydrogenic:
 
  List of hydrogenic basis orbitals: 
    n    l      effective z      eigenvalue [eV]  inner max. [A]     outer max. [A]     outer radius [A]   
    2    0         2.100000       -14.9965           0.193241           1.317192           5.372934
    2    1         3.500000       -41.6672           0.602363           0.602363           4.056010
    1    0         0.850000        -9.8292           0.624864           0.624864           5.372934
    2    1         3.700000       -46.5653           0.573616           0.573616           3.909951
    2    0         1.200000        -4.5995           0.334977           2.228160           5.505921
    3    2         7.000000       -74.0753           0.680692           0.680692           3.769152
 
 
  O                    hydrogenic:
 
  List of hydrogenic basis orbitals: 
    n    l      effective z      eigenvalue [eV]  inner max. [A]     outer max. [A]     outer radius [A]   
    2    1         1.800000       -11.0118           1.178546           1.178546           5.432516
    3    2         7.600000       -87.3182           0.624117           0.624117           3.541422
    3    0         6.400000       -61.9209           0.061166           1.081887           4.306510
    4    3        11.600000      -114.4238           0.731621           0.731621           3.584982
    3    1         6.200000       -58.1113           0.255677           1.030255           4.306510
    3    2         5.600000       -47.4081           0.847222           0.847222           4.413102
    5    4        17.600000      -168.5799           0.749730           0.749730           3.372413
    1    0         0.750000        -7.6499           0.705275           0.705275           5.366508
 

  Adding cutoff potential to free-atom effective potential.
  Creating atomic-like basis functions for current effective potential.

  Species H                   :

  List of atomic basis orbitals and eigenvalues:
    n    l      energy [Ha]    energy [eV]    outer radius [A]
    1    0        -0.241374        -6.5681       5.372934


  Species O                   :

  List of atomic basis orbitals and eigenvalues:
    n    l      energy [Ha]    energy [eV]    outer radius [A]
    1    0       -18.944147      -515.4965       1.415745
    2    0        -0.883529       -24.0421       5.048305
    2    1        -0.330173        -8.9845       5.301302

  Assembling full basis from fixed parts.
  | Species H :   atomic orbital   1 s accepted.
  | Species H :    hydro orbital   2 s accepted.
  | Species H :    hydro orbital   1 s accepted.
  | Species H :    hydro orbital   2 s accepted.
  | Species H :    hydro orbital   2 p accepted.
  | Species H :    hydro orbital   2 p accepted.
  | Species H :    hydro orbital   3 d accepted.
  | Species O :   atomic orbital   1 s accepted.
  | Species O :    hydro orbital   3 s accepted.
  | Species O :   atomic orbital   2 s accepted.
  | Species O :    hydro orbital   1 s accepted.
  | Species O :    hydro orbital   3 p accepted.
  | Species O :   atomic orbital   2 p accepted.
  | Species O :    hydro orbital   2 p accepted.
  | Species O :    hydro orbital   3 d accepted.
  | Species O :    hydro orbital   3 d accepted.
  | Species O :    hydro orbital   4 f accepted.
  | Species O :    hydro orbital   5 g accepted.
 
  Basis size parameters after reduction:
  | Total number of radial functions:       18
  | Total number of basis functions :      291
 
  Testing on-site integration grid accuracy.
  |  Species  Function  <phi|h_atom|phi> (log., in eV)  <phi|h_atom|phi> (rad., in eV)
           1        1                 -6.5683835025                 -6.5684759159
           1        2                 13.3711789951                 13.3708738703
           1        3                 23.6590910787                 23.6532055418
           1        4                 16.2963827186                 16.1870710655 ***
           1        5                 28.7627214838                 28.7627215090
           1        6                 59.5965249172                 59.5965950857
           1        7                 60.2220506392                 60.2220503827
           2        8               -515.4964576505               -515.4964530710
           2        9                 15.3030791347                 15.3030722972
           2       10                -21.7296094581                -21.7296135470
           2       11                 14.2969371730                 14.2969701621
           2       12                 21.0679693190                 21.0679697493
           2       13                 -2.3833606469                 -2.3833613176
           2       14                 13.7067136422                 13.7066766629
           2       15                 45.8013116808                 45.8013116965
           2       16                 52.2309815402                 52.2309831494
           2       17                 85.4120732416                 85.4120732763
           2       18                142.1019167745                142.1019167817
 * Note: Onsite integrals marked "***" above are less accurate than
 * onsite_accuracy_threshold =    0.03000 eV. Usually, this is harmless.
 * When in doubt, tighten the "radial" and/or "radial_multiplier" flags to check.

  Preparing densities etc. for the partition functions (integrals / Hartree potential).

  Preparations completed.
  max(cpu_time)          :      0.173 s.
  Wall clock time (cpu1) :      0.561 s.
------------------------------------------------------------

------------------------------------------------------------
          Begin self-consistency loop: Initialization.

          Date     :  20150727, Time     :  124226.999
------------------------------------------------------------

  Initializing index lists of integration centers etc. from given atomic structure:
  | Number of centers in hartree potential         :        13
  | Number of centers in hartree multipole         :        13
  | Number of centers in electron density summation:        13
  | Number of centers in basis integrals           :        13
  | Number of centers in integrals                 :        13
  Partitioning the integration grid into batches with parallel hashing+maxmin method.
  | Number of batches:     2005
  | Maximal batch size:     133
  | Minimal batch size:      50
  | Average batch size:      84.270
  | Standard deviation of batch sizes:      29.206

  Integration load balanced across     8 MPI tasks.
  Work distribution over tasks is as follows:
  Task     0 has      21202 integration points.
  Task     1 has      21084 integration points.
  Task     2 has      21150 integration points.
  Task     3 has      21119 integration points.
  Task     4 has      21070 integration points.
  Task     5 has      21103 integration points.
  Task     6 has      21150 integration points.
  Task     7 has      21084 integration points.
  Initializing partition tables, free-atom densities, potentials, etc. across the integration grid (initialize_grid_storage).
  | Net number of integration points:   168962
  | of which are non-zero points    :   168436
  Obtaining max. number of non-zero basis functions in each batch (get_n_compute_maxes).
  | Maximal number of non-zero basis functions:      289 in task     0
  | Maximal number of non-zero basis functions:      289 in task     1
  | Maximal number of non-zero basis functions:      289 in task     2
  | Maximal number of non-zero basis functions:      290 in task     3
  | Maximal number of non-zero basis functions:      289 in task     4
  | Maximal number of non-zero basis functions:      289 in task     5
  | Maximal number of non-zero basis functions:      289 in task     6
  | Maximal number of non-zero basis functions:      289 in task     7
  Integrating Hamiltonian matrix: batch-based integration.
  Time summed over all CPUs for integration: real work        5.494 s, elapsed        5.597 s
  Integrating overlap matrix.
  Time summed over all CPUs for integration: real work        2.903 s, elapsed        2.939 s

  Updating Kohn-Sham eigenvalues, eigenvectors, occupation numbers, and Fermi level.
  Solving generalized eigenproblem
  Updating Kohn-Sham eigenvalues and eigenfunctions.
  Transforming overlap matrix and checking for singularities.
  Overlap matrix is nonsingular:
  | Lowest eigenvalue:  0.235519E-03
  Solving real generalised eigenvalue problem by standard LAPACK (fast)
  Determining occupation numbers for Kohn-Sham eigenstates.
  | Chemical potential (Fermi level) in eV                 : -.26143257E+01
  | Error in electron count due to remaining E_F inaccuracy: 0.00000000E+00
  | Maximum occupation number of highest empty state:  0.00E+00

  Writing Kohn-Sham eigenvalues.

  State    Occupation    Eigenvalue [Ha]    Eigenvalue [eV]
      1       2.00000         -19.065147         -518.78906
      2       2.00000         -19.064851         -518.78099
      3       2.00000         -19.057196         -518.57270
      4       2.00000         -19.042580         -518.17497
      5       2.00000          -1.129204          -30.72721
      6       2.00000          -1.114582          -30.32932
      7       2.00000          -1.107618          -30.13982
      8       2.00000          -1.081604          -29.43194
      9       2.00000          -0.650828          -17.70994
     10       2.00000          -0.649235          -17.66658
     11       2.00000          -0.639875          -17.41189
     12       2.00000          -0.622175          -16.93023
     13       2.00000          -0.607605          -16.53378
     14       2.00000          -0.533332          -14.51270
     15       2.00000          -0.514684          -14.00527
     16       2.00000          -0.500747          -13.62602
     17       2.00000          -0.485153          -13.20167
     18       2.00000          -0.452572          -12.31510
     19       2.00000          -0.443387          -12.06518
     20       2.00000          -0.435688          -11.85566
     21       1.00000          -0.096075           -2.61433
     22       0.00000          -0.065564           -1.78409
     23       0.00000          -0.052186           -1.42004
     24       0.00000          -0.045504           -1.23823
     25       0.00000          -0.006323           -0.17206
     26       0.00000           0.003721            0.10124
     27       0.00000           0.032848            0.89385
     28       0.00000           0.040389            1.09904
     29       0.00000           0.056006            1.52399
     30       0.00000           0.069494            1.89103
     31       0.00000           0.075520            2.05501
     32       0.00000           0.091487            2.48950
     33       0.00000           0.096026            2.61300
     34       0.00000           0.103266            2.81002
     35       0.00000           0.110847            3.01630
     36       0.00000           0.119315            3.24674
     37       0.00000           0.126232            3.43495
     38       0.00000           0.135710            3.69287
     39       0.00000           0.148130            4.03082
     40       0.00000           0.151726            4.12868
     41       0.00000           0.170750            4.64635
     42       0.00000           0.174462            4.74737
     43       0.00000           0.214700            5.84229
     44       0.00000           0.227214            6.18281
     45       0.00000           0.233370            6.35031
     46       0.00000           0.251154            6.83424
     47       0.00000           0.256221            6.97213
     48       0.00000           0.281967            7.67270
     49       0.00000           0.296912            8.07938
     50       0.00000           0.297412            8.09300
     51       0.00000           0.344795            9.38235
     52       0.00000           0.364340            9.91420
     53       0.00000           0.372142           10.12649
     54       0.00000           0.380411           10.35152
     55       0.00000           0.386472           10.51643
     56       0.00000           0.396627           10.79278
     57       0.00000           0.412898           11.23554
     58       0.00000           0.425534           11.57936
     59       0.00000           0.432339           11.76453
     60       0.00000           0.448780           12.21193
     61       0.00000           0.466493           12.69391
     62       0.00000           0.503581           13.70314
     63       0.00000           0.526244           14.31981
     64       0.00000           0.541608           14.73790
     65       0.00000           0.547688           14.90334
     66       0.00000           0.577688           15.71970
     67       0.00000           0.615187           16.74008
     68       0.00000           0.631398           17.18120
     69       0.00000           0.674485           18.35367
     70       0.00000           0.694478           18.89771
     71       0.00000           0.735352           20.00996
     72       0.00000           0.758468           20.63897
     73       0.00000           0.781520           21.26624

  Highest occupied state (VBM) at     -2.61432570 eV
  | Occupation number:      1.00000000

  Lowest unoccupied state (CBM) at    -2.61432570 eV
  | Occupation number:      1.00000000

  Overall HOMO-LUMO gap:      0.00000000 eV.
  Calculating total energy contributions from superposition of free atom densities.

  Total energy components:
  | Sum of eigenvalues            :        -174.49220155 Ha       -4748.17438855 eV
  | XC energy correction          :         -36.85201710 Ha       -1002.79440692 eV
  | XC potential correction       :          47.10444443 Ha        1281.77714913 eV
  | Free-atom electrostatic energy:        -142.67854301 Ha       -3882.48069372 eV
  | Hartree energy correction     :           0.00000000 Ha           0.00000000 eV
  | van der Waals energy corr.    :           0.00000000 Ha           0.00000000 eV
  | Entropy correction            :          -0.00010367 Ha          -0.00282095 eV
  | ---------------------------
  | Total energy                  :        -306.91831722 Ha       -8351.67234006 eV
  | Total energy, T -> 0          :        -306.91842089 Ha       -8351.67516101 eV  <-- do not rely on this value for anything but (periodic) metals
  | Electronic free energy        :        -306.91852456 Ha       -8351.67798196 eV

  Derived energy quantities:
  | Kinetic energy                :         304.08406763 Ha        8274.54848467 eV
  | Electrostatic energy          :        -574.15036776 Ha      -15623.42641781 eV
  | Energy correction for multipole
  | error in Hartree potential    :           0.00000000 Ha           0.00000000 eV
  | Sum of eigenvalues per atom                           :        -365.24418373 eV
  | Total energy (T->0) per atom                          :        -642.43655085 eV  <-- do not rely on this value for anything but (periodic) metals
  | Electronic free energy per atom                       :        -642.43676784 eV
  Initialize hartree_potential_storage
  Max. number of atoms included in rho_multipole:           13

  End scf initialization - timings             :  max(cpu_time)    wall_clock(cpu1)
  | Time for scf. initialization               :        1.489 s           1.489 s
  | Boundary condition initialization          :        0.000 s           0.001 s
  | Integration                                :        1.069 s           1.069 s
  | Solution of K.-S. eqns.                    :        0.136 s           0.136 s
  | Grid partitioning                          :        0.117 s           0.117 s
  | Preloading free-atom quantities on grid    :        0.014 s           0.014 s
  | Free-atom superposition energy             :        0.051 s           0.051 s
  | Total energy evaluation                    :        0.000 s           0.000 s
------------------------------------------------------------

------------------------------------------------------------
          Begin self-consistency iteration #    1

  Date     :  20150727, Time     :  124228.488
------------------------------------------------------------
  Evaluating new KS density.
  Integration grid: deviation in total charge (<rho> - N_e) =   2.131628E-14
  Pulay mixing of updated and previous charge densities.

  Evaluating partitioned Hartree potential by multipole expansion.
  | Analytical far-field extrapolation by fixed multipoles:
  | Hartree multipole sum: apparent total charge =  -0.924046E-06
  Summing up the Hartree potential.
  Time summed over all CPUs for potential: real work        1.923 s, elapsed        1.928 s
  | RMS charge density error from multipole expansion :   0.151892E-02

  Integrating Hamiltonian matrix: batch-based integration.
  Time summed over all CPUs for integration: real work        5.486 s, elapsed        5.593 s

  Updating Kohn-Sham eigenvalues, eigenvectors, occupation numbers, and Fermi level.
  Solving generalized eigenproblem
  Updating Kohn-Sham eigenvalues and eigenfunctions.
  Solving real generalised eigenvalue problem by standard LAPACK (fast)
  Determining occupation numbers for Kohn-Sham eigenstates.
  | Chemical potential (Fermi level) in eV                 : -.24058558E+01
  | Error in electron count due to remaining E_F inaccuracy: 0.42632564E-13
  | Maximum occupation number of highest empty state:  0.00E+00

  Writing Kohn-Sham eigenvalues.

  State    Occupation    Eigenvalue [Ha]    Eigenvalue [eV]
      1       2.00000         -19.008976         -517.26057
      2       2.00000         -18.996245         -516.91412
      3       2.00000         -18.978775         -516.43875
      4       2.00000         -18.970347         -516.20940
      5       2.00000          -1.100594          -29.94870
      6       2.00000          -1.083500          -29.48354
      7       2.00000          -1.069063          -29.09069
      8       2.00000          -1.045040          -28.43700
      9       2.00000          -0.623065          -16.95446
     10       2.00000          -0.616174          -16.76694
     11       2.00000          -0.615090          -16.73745
     12       2.00000          -0.598508          -16.28622
     13       2.00000          -0.575853          -15.66976
     14       2.00000          -0.502317          -13.66874
     15       2.00000          -0.479921          -13.05930
     16       2.00000          -0.463693          -12.61774
     17       2.00000          -0.454291          -12.36189
     18       2.00000          -0.419293          -11.40953
     19       2.00000          -0.403505          -10.97994
     20       2.00000          -0.397872          -10.82664
     21       1.00000          -0.088414           -2.40586
     22       0.00000          -0.058204           -1.58382
     23       0.00000          -0.045056           -1.22603
     24       0.00000          -0.039067           -1.06306
     25       0.00000          -0.000404           -0.01101
     26       0.00000           0.009729            0.26473
     27       0.00000           0.041618            1.13249
     28       0.00000           0.049158            1.33767
     29       0.00000           0.059775            1.62656
     30       0.00000           0.077323            2.10408
     31       0.00000           0.084878            2.30964
     32       0.00000           0.100892            2.74541
     33       0.00000           0.104802            2.85181
     34       0.00000           0.110794            3.01486
     35       0.00000           0.116871            3.18023
     36       0.00000           0.127248            3.46258
     37       0.00000           0.135625            3.69056
     38       0.00000           0.147931            4.02541
     39       0.00000           0.155833            4.24044
     40       0.00000           0.162038            4.40927
     41       0.00000           0.178085            4.84595
     42       0.00000           0.181651            4.94299
     43       0.00000           0.220867            6.01010
     44       0.00000           0.234551            6.38247
     45       0.00000           0.240525            6.54501
     46       0.00000           0.258572            7.03609
     47       0.00000           0.263420            7.16801
     48       0.00000           0.288632            7.85407
     49       0.00000           0.301617            8.20743
     50       0.00000           0.303851            8.26819
     51       0.00000           0.352690            9.59718
     52       0.00000           0.371622           10.11236
     53       0.00000           0.380415           10.35162
     54       0.00000           0.387757           10.55139
     55       0.00000           0.395005           10.74864
     56       0.00000           0.404768           11.01430
     57       0.00000           0.420621           11.44567
     58       0.00000           0.431894           11.75244
     59       0.00000           0.440656           11.99086
     60       0.00000           0.455081           12.38338
     61       0.00000           0.475866           12.94897
     62       0.00000           0.511583           13.92088
     63       0.00000           0.534301           14.53907
     64       0.00000           0.551553           15.00852
     65       0.00000           0.557969           15.18311
     66       0.00000           0.587821           15.99542
     67       0.00000           0.624606           16.99639
     68       0.00000           0.641898           17.46692
     69       0.00000           0.685155           18.64403
     70       0.00000           0.705362           19.19389
     71       0.00000           0.743324           20.22687
     72       0.00000           0.768729           20.91817
     73       0.00000           0.791591           21.54030

  Highest occupied state (VBM) at     -2.40585581 eV
  | Occupation number:      1.00000000

  Lowest unoccupied state (CBM) at    -1.58382156 eV
  | Occupation number:      0.00000000

  Overall HOMO-LUMO gap:      0.82203426 eV.

  Total energy components:
  | Sum of eigenvalues            :        -172.89265823 Ha       -4704.64860030 eV
  | XC energy correction          :         -37.02460693 Ha       -1007.49081503 eV
  | XC potential correction       :          47.32968456 Ha        1287.90624476 eV
  | Free-atom electrostatic energy:        -142.67854301 Ha       -3882.48069372 eV
  | Hartree energy correction     :          -1.56090186 Ha         -42.47430063 eV
  | van der Waals energy corr.    :           0.00000000 Ha           0.00000000 eV
  | Entropy correction            :          -0.00010367 Ha          -0.00282095 eV
  | ---------------------------
  | Total energy                  :        -306.82702546 Ha       -8349.18816492 eV
  | Total energy, T -> 0          :        -306.82712913 Ha       -8349.19098587 eV  <-- do not rely on this value for anything but (periodic) metals
  | Electronic free energy        :        -306.82723280 Ha       -8349.19380681 eV

  Derived energy quantities:
  | Kinetic energy                :         305.14768133 Ha        8303.49088582 eV
  | Electrostatic energy          :        -574.95009986 Ha      -15645.18823571 eV
  | Energy correction for multipole
  | error in Hartree potential    :           0.00032032 Ha           0.00871637 eV
  | Sum of eigenvalues per atom                           :        -361.89604618 eV
  | Total energy (T->0) per atom                          :        -642.24546045 eV  <-- do not rely on this value for anything but (periodic) metals
  | Electronic free energy per atom                       :        -642.24567745 eV

  Self-consistency convergence accuracy:
  | Change of charge density      : 0.5629E+00
  | Change of sum of eigenvalues  : 0.4353E+02 eV
  | Change of total energy        : 0.2484E+01 eV

  End self-consistency iteration #     1       :  max(cpu_time)    wall_clock(cpu1)
  | Time for this iteration                    :        1.459 s           1.459 s
  | Charge density update                      :        0.473 s           0.473 s
  | Density mixing                             :        0.003 s           0.003 s
  | Hartree multipole update                   :        0.004 s           0.004 s
  | Hartree multipole summation                :        0.242 s           0.242 s
  | Integration                                :        0.700 s           0.700 s
  | Solution of K.-S. eqns.                    :        0.037 s           0.036 s
  | Total energy evaluation                    :        0.000 s           0.000 s
------------------------------------------------------------

------------------------------------------------------------
          Begin self-consistency iteration #    2

  Date     :  20150727, Time     :  124229.947
------------------------------------------------------------
  Evaluating new KS density.
  Integration grid: deviation in total charge (<rho> - N_e) =   5.684342E-14
  Pulay mixing of updated and previous charge densities.

  Evaluating partitioned Hartree potential by multipole expansion.
  | Analytical far-field extrapolation by fixed multipoles:
  | Hartree multipole sum: apparent total charge =  -0.436357E-05
  Summing up the Hartree potential.
  Time summed over all CPUs for potential: real work        1.923 s, elapsed        1.930 s
  | RMS charge density error from multipole expansion :   0.623321E-02

  Integrating Hamiltonian matrix: batch-based integration.
  Time summed over all CPUs for integration: real work        5.485 s, elapsed        5.579 s

  Updating Kohn-Sham eigenvalues, eigenvectors, occupation numbers, and Fermi level.
  Solving generalized eigenproblem
  Updating Kohn-Sham eigenvalues and eigenfunctions.
  Solving real generalised eigenvalue problem by standard LAPACK (fast)
  Determining occupation numbers for Kohn-Sham eigenstates.
  | Chemical potential (Fermi level) in eV                 : -.19236732E+01
  | Error in electron count due to remaining E_F inaccuracy: 0.72475359E-12
  | Maximum occupation number of highest empty state:  0.00E+00

  Highest occupied state (VBM) at     -1.92367323 eV
  | Occupation number:      1.00000000

  Lowest unoccupied state (CBM) at    -1.11846666 eV
  | Occupation number:      0.00000000

  Overall HOMO-LUMO gap:      0.80520657 eV.

  Total energy components:
  | Sum of eigenvalues            :        -169.00466159 Ha       -4598.85082888 eV
  | XC energy correction          :         -37.46663199 Ha       -1019.51892897 eV
  | XC potential correction       :          47.90511326 Ha        1303.56445649 eV
  | Free-atom electrostatic energy:        -142.67854301 Ha       -3882.48069372 eV
  | Hartree energy correction     :          -5.47923969 Ha        -149.09769806 eV
  | van der Waals energy corr.    :           0.00000000 Ha           0.00000000 eV
  | Entropy correction            :          -0.00010367 Ha          -0.00282095 eV
  | ---------------------------
  | Total energy                  :        -306.72396302 Ha       -8346.38369315 eV
  | Total energy, T -> 0          :        -306.72406669 Ha       -8346.38651409 eV  <-- do not rely on this value for anything but (periodic) metals
  | Electronic free energy        :        -306.72417036 Ha       -8346.38933504 eV

  Derived energy quantities:
  | Kinetic energy                :         307.41124200 Ha        8365.08550561 eV
  | Electrostatic energy          :        -576.66857303 Ha      -15691.95026979 eV
  | Energy correction for multipole
  | error in Hartree potential    :           0.00053709 Ha           0.01461498 eV
  | Sum of eigenvalues per atom                           :        -353.75775607 eV
  | Total energy (T->0) per atom                          :        -642.02973185 eV  <-- do not rely on this value for anything but (periodic) metals
  | Electronic free energy per atom                       :        -642.02994885 eV

  Self-consistency convergence accuracy:
  | Change of charge density      : 0.4288E+00
  | Change of sum of eigenvalues  : 0.1058E+03 eV
  | Change of total energy        : 0.2804E+01 eV

  End self-consistency iteration #     2       :  max(cpu_time)    wall_clock(cpu1)
  | Time for this iteration                    :        1.457 s           1.457 s
  | Charge density update                      :        0.471 s           0.471 s
  | Density mixing                             :        0.004 s           0.005 s
  | Hartree multipole update                   :        0.005 s           0.004 s
  | Hartree multipole summation                :        0.242 s           0.242 s
  | Integration                                :        0.698 s           0.699 s
  | Solution of K.-S. eqns.                    :        0.036 s           0.036 s
  | Total energy evaluation                    :        0.001 s           0.000 s
------------------------------------------------------------

------------------------------------------------------------
          Begin self-consistency iteration #    3

  Date     :  20150727, Time     :  124231.404
------------------------------------------------------------
  Evaluating new KS density.
  Integration grid: deviation in total charge (<rho> - N_e) =   7.247536E-13
  Pulay mixing of updated and previous charge densities.

  Evaluating partitioned Hartree potential by multipole expansion.
  | Analytical far-field extrapolation by fixed multipoles:
  | Hartree multipole sum: apparent total charge =  -0.592949E-05
  Summing up the Hartree potential.
  Time summed over all CPUs for potential: real work        1.923 s, elapsed        1.929 s
  | RMS charge density error from multipole expansion :   0.128499E-01

  Integrating Hamiltonian matrix: batch-based integration.
  Time summed over all CPUs for integration: real work        5.481 s, elapsed        5.576 s

  Updating Kohn-Sham eigenvalues, eigenvectors, occupation numbers, and Fermi level.
  Solving generalized eigenproblem
  Updating Kohn-Sham eigenvalues and eigenfunctions.
  Solving real generalised eigenvalue problem by standard LAPACK (fast)
  Determining occupation numbers for Kohn-Sham eigenstates.
  | Chemical potential (Fermi level) in eV                 : -.18921606E+01
  | Error in electron count due to remaining E_F inaccuracy: -.19323920E-09
  | Maximum occupation number of highest empty state:  0.00E+00

  Highest occupied state (VBM) at     -8.22433611 eV
  | Occupation number:      2.00000000

  Lowest unoccupied state (CBM) at    -1.89216064 eV
  | Occupation number:      1.00000000

  Overall HOMO-LUMO gap:      6.33217548 eV.

  Total energy components:
  | Sum of eigenvalues            :        -169.28685666 Ha       -4606.52974741 eV
  | XC energy correction          :         -37.46286056 Ha       -1019.41630328 eV
  | XC potential correction       :          47.89244498 Ha        1303.21973486 eV
  | Free-atom electrostatic energy:        -142.67854301 Ha       -3882.48069372 eV
  | Hartree energy correction     :          -5.18813476 Ha        -141.17632990 eV
  | van der Waals energy corr.    :           0.00000000 Ha           0.00000000 eV
  | Entropy correction            :          -0.00010367 Ha          -0.00282095 eV
  | ---------------------------
  | Total energy                  :        -306.72395002 Ha       -8346.38333946 eV
  | Total energy, T -> 0          :        -306.72405369 Ha       -8346.38616040 eV  <-- do not rely on this value for anything but (periodic) metals
  | Electronic free energy        :        -306.72415736 Ha       -8346.38898135 eV

  Derived energy quantities:
  | Kinetic energy                :         305.99724854 Ha        8326.60878595 eV
  | Electrostatic energy          :        -575.25833800 Ha      -15653.57582212 eV
  | Energy correction for multipole
  | error in Hartree potential    :          -0.00299137 Ha          -0.08139935 eV
  | Sum of eigenvalues per atom                           :        -354.34844211 eV
  | Total energy (T->0) per atom                          :        -642.02970465 eV  <-- do not rely on this value for anything but (periodic) metals
  | Electronic free energy per atom                       :        -642.02992164 eV

  Self-consistency convergence accuracy:
  | Change of charge density      : 0.2058E+00
  | Change of sum of eigenvalues  : -.7679E+01 eV
  | Change of total energy        : 0.3537E-03 eV

  End self-consistency iteration #     3       :  max(cpu_time)    wall_clock(cpu1)
  | Time for this iteration                    :        1.451 s           1.452 s
  | Charge density update                      :        0.465 s           0.465 s
  | Density mixing                             :        0.006 s           0.006 s
  | Hartree multipole update                   :        0.004 s           0.004 s
  | Hartree multipole summation                :        0.242 s           0.242 s
  | Integration                                :        0.698 s           0.698 s
  | Solution of K.-S. eqns.                    :        0.036 s           0.036 s
  | Total energy evaluation                    :        0.000 s           0.000 s
------------------------------------------------------------

------------------------------------------------------------
          Begin self-consistency iteration #    4

  Date     :  20150727, Time     :  124232.856
------------------------------------------------------------
  Evaluating new KS density.
  Integration grid: deviation in total charge (<rho> - N_e) =  -1.932179E-10
  Pulay mixing of updated and previous charge densities.

  Evaluating partitioned Hartree potential by multipole expansion.
  | Analytical far-field extrapolation by fixed multipoles:
  | Hartree multipole sum: apparent total charge =  -0.709138E-05
  Summing up the Hartree potential.
  Time summed over all CPUs for potential: real work        1.922 s, elapsed        1.928 s
  | RMS charge density error from multipole expansion :   0.158637E-01

  Integrating Hamiltonian matrix: batch-based integration.
  Time summed over all CPUs for integration: real work        5.464 s, elapsed        5.565 s

  Updating Kohn-Sham eigenvalues, eigenvectors, occupation numbers, and Fermi level.
  Solving generalized eigenproblem
  Updating Kohn-Sham eigenvalues and eigenfunctions.
  Solving real generalised eigenvalue problem by standard LAPACK (fast)
  Determining occupation numbers for Kohn-Sham eigenstates.
  | Chemical potential (Fermi level) in eV                 : -.17994062E+01
  | Error in electron count due to remaining E_F inaccuracy: 0.42632564E-13
  | Maximum occupation number of highest empty state:  0.00E+00

  Highest occupied state (VBM) at     -1.79940620 eV
  | Occupation number:      1.00000000

  Lowest unoccupied state (CBM) at    -0.99124339 eV
  | Occupation number:      0.00000000

  Overall HOMO-LUMO gap:      0.80816281 eV.

  Total energy components:
  | Sum of eigenvalues            :        -168.52065244 Ha       -4585.68026969 eV
  | XC energy correction          :         -37.56997975 Ha       -1022.33116473 eV
  | XC potential correction       :          48.02975971 Ha        1306.95625899 eV
  | Free-atom electrostatic energy:        -142.67854301 Ha       -3882.48069372 eV
  | Hartree energy correction     :          -5.98140242 Ha        -162.76224104 eV
  | van der Waals energy corr.    :           0.00000000 Ha           0.00000000 eV
  | Entropy correction            :          -0.00010367 Ha          -0.00282095 eV
  | ---------------------------
  | Total energy                  :        -306.72081791 Ha       -8346.29811020 eV
  | Total energy, T -> 0          :        -306.72092157 Ha       -8346.30093115 eV  <-- do not rely on this value for anything but (periodic) metals
  | Electronic free energy        :        -306.72102524 Ha       -8346.30375209 eV

  Derived energy quantities:
  | Kinetic energy                :         306.06338075 Ha        8328.40833500 eV
  | Electrostatic energy          :        -575.21421890 Ha      -15652.37528047 eV
  | Energy correction for multipole
  | error in Hartree potential    :          -0.00406557 Ha          -0.11062976 eV
  | Sum of eigenvalues per atom                           :        -352.74463613 eV
  | Total energy (T->0) per atom                          :        -642.02314855 eV  <-- do not rely on this value for anything but (periodic) metals
  | Electronic free energy per atom                       :        -642.02336555 eV

  Self-consistency convergence accuracy:
  | Change of charge density      : 0.8776E-01
  | Change of sum of eigenvalues  : 0.2085E+02 eV
  | Change of total energy        : 0.8523E-01 eV

  End self-consistency iteration #     4       :  max(cpu_time)    wall_clock(cpu1)
  | Time for this iteration                    :        1.452 s           1.451 s
  | Charge density update                      :        0.466 s           0.465 s
  | Density mixing                             :        0.007 s           0.007 s
  | Hartree multipole update                   :        0.004 s           0.005 s
  | Hartree multipole summation                :        0.242 s           0.241 s
  | Integration                                :        0.697 s           0.697 s
  | Solution of K.-S. eqns.                    :        0.036 s           0.036 s
  | Total energy evaluation                    :        0.000 s           0.000 s
------------------------------------------------------------

------------------------------------------------------------
          Begin self-consistency iteration #    5

  Date     :  20150727, Time     :  124234.307
------------------------------------------------------------
  Evaluating new KS density.
  Integration grid: deviation in total charge (<rho> - N_e) =   4.263256E-14
  Pulay mixing of updated and previous charge densities.

  Evaluating partitioned Hartree potential by multipole expansion.
  | Analytical far-field extrapolation by fixed multipoles:
  | Hartree multipole sum: apparent total charge =  -0.726868E-05
  Summing up the Hartree potential.
  Time summed over all CPUs for potential: real work        1.922 s, elapsed        1.928 s
  | RMS charge density error from multipole expansion :   0.161920E-01

  Integrating Hamiltonian matrix: batch-based integration.
  Time summed over all CPUs for integration: real work        5.461 s, elapsed        5.558 s

  Updating Kohn-Sham eigenvalues, eigenvectors, occupation numbers, and Fermi level.
  Solving generalized eigenproblem
  Updating Kohn-Sham eigenvalues and eigenfunctions.
  Solving real generalised eigenvalue problem by standard LAPACK (fast)
  Determining occupation numbers for Kohn-Sham eigenstates.
  | Chemical potential (Fermi level) in eV                 : -.18083625E+01
  | Error in electron count due to remaining E_F inaccuracy: 0.42632564E-13
  | Maximum occupation number of highest empty state:  0.00E+00

  Highest occupied state (VBM) at     -1.80836249 eV
  | Occupation number:      1.00000000

  Lowest unoccupied state (CBM) at    -1.00030470 eV
  | Occupation number:      0.00000000

  Overall HOMO-LUMO gap:      0.80805779 eV.

  Total energy components:
  | Sum of eigenvalues            :        -168.50624745 Ha       -4585.28828997 eV
  | XC energy correction          :         -37.57368558 Ha       -1022.43200542 eV
  | XC potential correction       :          48.03419819 Ha        1307.07703606 eV
  | Free-atom electrostatic energy:        -142.67854301 Ha       -3882.48069372 eV
  | Hartree energy correction     :          -5.99643423 Ha        -163.17127757 eV
  | van der Waals energy corr.    :           0.00000000 Ha           0.00000000 eV
  | Entropy correction            :          -0.00010367 Ha          -0.00282095 eV
  | ---------------------------
  | Total energy                  :        -306.72071208 Ha       -8346.29523062 eV
  | Total energy, T -> 0          :        -306.72081575 Ha       -8346.29805157 eV  <-- do not rely on this value for anything but (periodic) metals
  | Electronic free energy        :        -306.72091942 Ha       -8346.30087252 eV

  Derived energy quantities:
  | Kinetic energy                :         306.07436909 Ha        8328.70734296 eV
  | Electrostatic energy          :        -575.22139559 Ha      -15652.57056816 eV
  | Energy correction for multipole
  | error in Hartree potential    :          -0.00435006 Ha          -0.11837126 eV
  | Sum of eigenvalues per atom                           :        -352.71448384 eV
  | Total energy (T->0) per atom                          :        -642.02292704 eV  <-- do not rely on this value for anything but (periodic) metals
  | Electronic free energy per atom                       :        -642.02314404 eV

  Self-consistency convergence accuracy:
  | Change of charge density      : 0.1992E-01
  | Change of sum of eigenvalues  : 0.3920E+00 eV
  | Change of total energy        : 0.2880E-02 eV

  End self-consistency iteration #     5       :  max(cpu_time)    wall_clock(cpu1)
  | Time for this iteration                    :        1.453 s           1.453 s
  | Charge density update                      :        0.466 s           0.466 s
  | Density mixing                             :        0.008 s           0.008 s
  | Hartree multipole update                   :        0.005 s           0.005 s
  | Hartree multipole summation                :        0.241 s           0.241 s
  | Integration                                :        0.696 s           0.696 s
  | Solution of K.-S. eqns.                    :        0.037 s           0.036 s
  | Total energy evaluation                    :        0.000 s           0.000 s
------------------------------------------------------------

------------------------------------------------------------
          Begin self-consistency iteration #    6

  Date     :  20150727, Time     :  124235.760
------------------------------------------------------------
  Evaluating new KS density.
  Integration grid: deviation in total charge (<rho> - N_e) =   3.552714E-14
  Pulay mixing of updated and previous charge densities.

  Evaluating partitioned Hartree potential by multipole expansion.
  | Analytical far-field extrapolation by fixed multipoles:
  | Hartree multipole sum: apparent total charge =  -0.738384E-05
  Summing up the Hartree potential.
  Time summed over all CPUs for potential: real work        1.922 s, elapsed        1.927 s
  | RMS charge density error from multipole expansion :   0.164033E-01

  Integrating Hamiltonian matrix: batch-based integration.
  Time summed over all CPUs for integration: real work        5.468 s, elapsed        5.566 s

  Updating Kohn-Sham eigenvalues, eigenvectors, occupation numbers, and Fermi level.
  Solving generalized eigenproblem
  Updating Kohn-Sham eigenvalues and eigenfunctions.
  Solving real generalised eigenvalue problem by standard LAPACK (fast)
  Determining occupation numbers for Kohn-Sham eigenstates.
  | Chemical potential (Fermi level) in eV                 : -.18135600E+01
  | Error in electron count due to remaining E_F inaccuracy: 0.42632564E-13
  | Maximum occupation number of highest empty state:  0.00E+00

  Highest occupied state (VBM) at     -1.81356005 eV
  | Occupation number:      1.00000000

  Lowest unoccupied state (CBM) at    -1.00625157 eV
  | Occupation number:      0.00000000

  Overall HOMO-LUMO gap:      0.80730848 eV.

  Total energy components:
  | Sum of eigenvalues            :        -168.52162027 Ha       -4585.70660581 eV
  | XC energy correction          :         -37.57362940 Ha       -1022.43047656 eV
  | XC potential correction       :          48.03387327 Ha        1307.06819455 eV
  | Free-atom electrostatic energy:        -142.67854301 Ha       -3882.48069372 eV
  | Hartree energy correction     :          -5.98081173 Ha        -162.74616767 eV
  | van der Waals energy corr.    :           0.00000000 Ha           0.00000000 eV
  | Entropy correction            :          -0.00010367 Ha          -0.00282095 eV
  | ---------------------------
  | Total energy                  :        -306.72073114 Ha       -8346.29574920 eV
  | Total energy, T -> 0          :        -306.72083481 Ha       -8346.29857015 eV  <-- do not rely on this value for anything but (periodic) metals
  | Electronic free energy        :        -306.72093848 Ha       -8346.30139110 eV

  Derived energy quantities:
  | Kinetic energy                :         306.05291410 Ha        8328.12352288 eV
  | Electrostatic energy          :        -575.20001584 Ha      -15651.98879552 eV
  | Energy correction for multipole
  | error in Hartree potential    :          -0.00452282 Ha          -0.12307221 eV
  | Sum of eigenvalues per atom                           :        -352.74666199 eV
  | Total energy (T->0) per atom                          :        -642.02296693 eV  <-- do not rely on this value for anything but (periodic) metals
  | Electronic free energy per atom                       :        -642.02318393 eV

  Self-consistency convergence accuracy:
  | Change of charge density      : 0.6583E-02
  | Change of sum of eigenvalues  : -.4183E+00 eV
  | Change of total energy        : -.5186E-03 eV

  End self-consistency iteration #     6       :  max(cpu_time)    wall_clock(cpu1)
  | Time for this iteration                    :        1.456 s           1.456 s
  | Charge density update                      :        0.468 s           0.468 s
  | Density mixing                             :        0.009 s           0.009 s
  | Hartree multipole update                   :        0.004 s           0.004 s
  | Hartree multipole summation                :        0.242 s           0.242 s
  | Integration                                :        0.697 s           0.696 s
  | Solution of K.-S. eqns.                    :        0.036 s           0.036 s
  | Total energy evaluation                    :        0.000 s           0.000 s
------------------------------------------------------------

------------------------------------------------------------
          Begin self-consistency iteration #    7

  Date     :  20150727, Time     :  124237.216
------------------------------------------------------------
  Evaluating new KS density.
  Integration grid: deviation in total charge (<rho> - N_e) =   5.684342E-14
  Pulay mixing of updated and previous charge densities.

  Evaluating partitioned Hartree potential by multipole expansion.
  | Analytical far-field extrapolation by fixed multipoles:
  | Hartree multipole sum: apparent total charge =  -0.739278E-05
  Summing up the Hartree potential.
  Time summed over all CPUs for potential: real work        1.922 s, elapsed        1.929 s
  | RMS charge density error from multipole expansion :   0.164615E-01

  Integrating Hamiltonian matrix: batch-based integration.
  Time summed over all CPUs for integration: real work        5.464 s, elapsed        5.565 s

  Updating Kohn-Sham eigenvalues, eigenvectors, occupation numbers, and Fermi level.
  Solving generalized eigenproblem
  Updating Kohn-Sham eigenvalues and eigenfunctions.
  Solving real generalised eigenvalue problem by standard LAPACK (fast)
  Determining occupation numbers for Kohn-Sham eigenstates.
  | Chemical potential (Fermi level) in eV                 : -.18281946E+01
  | Error in electron count due to remaining E_F inaccuracy: 0.00000000E+00
  | Maximum occupation number of highest empty state:  0.00E+00

  Highest occupied state (VBM) at     -1.82819458 eV
  | Occupation number:      1.00000000

  Lowest unoccupied state (CBM) at    -1.82819458 eV
  | Occupation number:      1.00000000

  Overall HOMO-LUMO gap:      0.00000000 eV.

  Total energy components:
  | Sum of eigenvalues            :        -168.56067733 Ha       -4586.76940240 eV
  | XC energy correction          :         -37.57034748 Ha       -1022.34117120 eV
  | XC potential correction       :          48.02942463 Ha        1306.94714079 eV
  | Free-atom electrostatic energy:        -142.67854301 Ha       -3882.48069372 eV
  | Hartree energy correction     :          -5.94058243 Ha        -161.65147257 eV
  | van der Waals energy corr.    :           0.00000000 Ha           0.00000000 eV
  | Entropy correction            :          -0.00010367 Ha          -0.00282095 eV
  | ---------------------------
  | Total energy                  :        -306.72072562 Ha       -8346.29559910 eV
  | Total energy, T -> 0          :        -306.72082929 Ha       -8346.29842005 eV  <-- do not rely on this value for anything but (periodic) metals
  | Electronic free energy        :        -306.72093296 Ha       -8346.30124100 eV

  Derived energy quantities:
  | Kinetic energy                :         306.08231840 Ha        8328.92365457 eV
  | Electrostatic energy          :        -575.23269654 Ha      -15652.87808247 eV
  | Energy correction for multipole
  | error in Hartree potential    :          -0.00470880 Ha          -0.12813292 eV
  | Sum of eigenvalues per atom                           :        -352.82841557 eV
  | Total energy (T->0) per atom                          :        -642.02295539 eV  <-- do not rely on this value for anything but (periodic) metals
  | Electronic free energy per atom                       :        -642.02317238 eV

  Self-consistency convergence accuracy:
  | Change of charge density      : 0.5080E-02
  | Change of sum of eigenvalues  : -.1063E+01 eV
  | Change of total energy        : 0.1501E-03 eV

  End self-consistency iteration #     7       :  max(cpu_time)    wall_clock(cpu1)
  | Time for this iteration                    :        1.455 s           1.456 s
  | Charge density update                      :        0.466 s           0.466 s
  | Density mixing                             :        0.010 s           0.010 s
  | Hartree multipole update                   :        0.004 s           0.004 s
  | Hartree multipole summation                :        0.242 s           0.242 s
  | Integration                                :        0.697 s           0.696 s
  | Solution of K.-S. eqns.                    :        0.036 s           0.036 s
  | Total energy evaluation                    :        0.000 s           0.000 s
------------------------------------------------------------

------------------------------------------------------------
          Begin self-consistency iteration #    8

  Date     :  20150727, Time     :  124238.672
------------------------------------------------------------
  Evaluating new KS density.
  Integration grid: deviation in total charge (<rho> - N_e) =   7.105427E-15
  Pulay mixing of updated and previous charge densities.

  Evaluating partitioned Hartree potential by multipole expansion.
  | Analytical far-field extrapolation by fixed multipoles:
  | Hartree multipole sum: apparent total charge =  -0.738422E-05
  Summing up the Hartree potential.
  Time summed over all CPUs for potential: real work        1.922 s, elapsed        1.928 s
  | RMS charge density error from multipole expansion :   0.164752E-01

  Integrating Hamiltonian matrix: batch-based integration.
  Time summed over all CPUs for integration: real work        5.457 s, elapsed        5.552 s

  Updating Kohn-Sham eigenvalues, eigenvectors, occupation numbers, and Fermi level.
  Solving generalized eigenproblem
  Updating Kohn-Sham eigenvalues and eigenfunctions.
  Solving real generalised eigenvalue problem by standard LAPACK (fast)
  Determining occupation numbers for Kohn-Sham eigenstates.
  | Chemical potential (Fermi level) in eV                 : -.18355413E+01
  | Error in electron count due to remaining E_F inaccuracy: -.23948488E-08
  | Maximum occupation number of highest empty state:  0.00E+00

  Highest occupied state (VBM) at     -7.68577925 eV
  | Occupation number:      2.00000000

  Lowest unoccupied state (CBM) at    -1.83554126 eV
  | Occupation number:      1.00000000

  Overall HOMO-LUMO gap:      5.85023799 eV.

  Total energy components:
  | Sum of eigenvalues            :        -168.58313891 Ha       -4587.38061315 eV
  | XC energy correction          :         -37.56860833 Ha       -1022.29384644 eV
  | XC potential correction       :          48.02708699 Ha        1306.88353042 eV
  | Free-atom electrostatic energy:        -142.67854301 Ha       -3882.48069372 eV
  | Hartree energy correction     :          -5.91752058 Ha        -161.02392769 eV
  | van der Waals energy corr.    :           0.00000000 Ha           0.00000000 eV
  | Entropy correction            :          -0.00010367 Ha          -0.00282095 eV
  | ---------------------------
  | Total energy                  :        -306.72072384 Ha       -8346.29555058 eV
  | Total energy, T -> 0          :        -306.72082751 Ha       -8346.29837153 eV  <-- do not rely on this value for anything but (periodic) metals
  | Electronic free energy        :        -306.72093118 Ha       -8346.30119247 eV

  Derived energy quantities:
  | Kinetic energy                :         306.08930451 Ha        8329.11375625 eV
  | Electrostatic energy          :        -575.24142002 Ha      -15653.11546040 eV
  | Energy correction for multipole
  | error in Hartree potential    :          -0.00477745 Ha          -0.13000091 eV
  | Sum of eigenvalues per atom                           :        -352.87543178 eV
  | Total energy (T->0) per atom                          :        -642.02295166 eV  <-- do not rely on this value for anything but (periodic) metals
  | Electronic free energy per atom                       :        -642.02316865 eV

  Self-consistency convergence accuracy:
  | Change of charge density      : 0.1865E-02
  | Change of sum of eigenvalues  : -.6112E+00 eV
  | Change of total energy        : 0.4852E-04 eV

  End self-consistency iteration #     8       :  max(cpu_time)    wall_clock(cpu1)
  | Time for this iteration                    :        1.454 s           1.454 s
  | Charge density update                      :        0.465 s           0.465 s
  | Density mixing                             :        0.011 s           0.012 s
  | Hartree multipole update                   :        0.005 s           0.004 s
  | Hartree multipole summation                :        0.241 s           0.242 s
  | Integration                                :        0.696 s           0.695 s
  | Solution of K.-S. eqns.                    :        0.036 s           0.036 s
  | Total energy evaluation                    :        0.000 s           0.000 s
------------------------------------------------------------

------------------------------------------------------------
          Begin self-consistency iteration #    9

  Date     :  20150727, Time     :  124240.126
------------------------------------------------------------
  Evaluating new KS density.
  Integration grid: deviation in total charge (<rho> - N_e) =  -2.394863E-09
  Pulay mixing of updated and previous charge densities.

  Evaluating partitioned Hartree potential by multipole expansion.
  | Analytical far-field extrapolation by fixed multipoles:
  | Hartree multipole sum: apparent total charge =  -0.736631E-05
  Summing up the Hartree potential.
  Time summed over all CPUs for potential: real work        1.922 s, elapsed        1.928 s
  | RMS charge density error from multipole expansion :   0.164655E-01

  Integrating Hamiltonian matrix: batch-based integration.
  Time summed over all CPUs for integration: real work        5.464 s, elapsed        5.560 s

  Updating Kohn-Sham eigenvalues, eigenvectors, occupation numbers, and Fermi level.
  Solving generalized eigenproblem
  Updating Kohn-Sham eigenvalues and eigenfunctions.
  Solving real generalised eigenvalue problem by standard LAPACK (fast)
  Determining occupation numbers for Kohn-Sham eigenstates.
  | Chemical potential (Fermi level) in eV                 : -.18350727E+01
  | Error in electron count due to remaining E_F inaccuracy: -.36398689E-08
  | Maximum occupation number of highest empty state:  0.00E+00

  Highest occupied state (VBM) at     -7.68489962 eV
  | Occupation number:      2.00000000

  Lowest unoccupied state (CBM) at    -1.83507268 eV
  | Occupation number:      1.00000000

  Overall HOMO-LUMO gap:      5.84982695 eV.

  Total energy components:
  | Sum of eigenvalues            :        -168.58053969 Ha       -4587.30988478 eV
  | XC energy correction          :         -37.56882561 Ha       -1022.29975889 eV
  | XC potential correction       :          48.02738434 Ha        1306.89162185 eV
  | Free-atom electrostatic energy:        -142.67854301 Ha       -3882.48069372 eV
  | Hartree energy correction     :          -5.92019925 Ha        -161.09681810 eV
  | van der Waals energy corr.    :           0.00000000 Ha           0.00000000 eV
  | Entropy correction            :          -0.00010367 Ha          -0.00282095 eV
  | ---------------------------
  | Total energy                  :        -306.72072322 Ha       -8346.29553364 eV
  | Total energy, T -> 0          :        -306.72082689 Ha       -8346.29835459 eV  <-- do not rely on this value for anything but (periodic) metals
  | Electronic free energy        :        -306.72093056 Ha       -8346.30117554 eV

  Derived energy quantities:
  | Kinetic energy                :         306.09305603 Ha        8329.21584044 eV
  | Electrostatic energy          :        -575.24495364 Ha      -15653.21161520 eV
  | Energy correction for multipole
  | error in Hartree potential    :          -0.00477296 Ha          -0.12987880 eV
  | Sum of eigenvalues per atom                           :        -352.86999114 eV
  | Total energy (T->0) per atom                          :        -642.02295035 eV  <-- do not rely on this value for anything but (periodic) metals
  | Electronic free energy per atom                       :        -642.02316735 eV

  Self-consistency convergence accuracy:
  | Change of charge density      : 0.5562E-03
  | Change of sum of eigenvalues  : 0.7073E-01 eV
  | Change of total energy        : 0.1694E-04 eV

  End self-consistency iteration #     9       :  max(cpu_time)    wall_clock(cpu1)
  | Time for this iteration                    :        1.459 s           1.459 s
  | Charge density update                      :        0.468 s           0.468 s
  | Density mixing                             :        0.013 s           0.013 s
  | Hartree multipole update                   :        0.004 s           0.004 s
  | Hartree multipole summation                :        0.242 s           0.242 s
  | Integration                                :        0.696 s           0.696 s
  | Solution of K.-S. eqns.                    :        0.036 s           0.036 s
  | Total energy evaluation                    :        0.000 s           0.000 s
------------------------------------------------------------

------------------------------------------------------------
          Begin self-consistency iteration #   10

  Date     :  20150727, Time     :  124241.586
------------------------------------------------------------
  Evaluating new KS density.
  Integration grid: deviation in total charge (<rho> - N_e) =  -3.639876E-09
[...]
  | Electronic free energy        :        -306.72319887 Ha       -8346.36289943 eV

  Derived energy quantities:
  | Kinetic energy                :         306.09329035 Ha        8329.22221652 eV
  | Electrostatic energy          :        -575.24510867 Ha      -15653.21583367 eV
  | Energy correction for multipole
  | error in Hartree potential    :          -0.00479193 Ha          -0.13039517 eV
  | Sum of eigenvalues per atom                           :        -352.86895820 eV
  | Total energy (T->0) per atom                          :        -642.02769834 eV  <-- do not rely on this value for anything but (periodic) metals
  | Electronic free energy per atom                       :        -642.02791534 eV

  atomic forces [eV/Ang]:
  -----------------------
  atom #    1
   Hellmann-Feynman + Multipole  : -.293516E+01 -.790969E+01 -.711677E+01
   Pulay + GGA                   : 0.148470E+01 0.855900E+01 0.694179E+01
   Van der Waals               : -.165058E-02 -.541820E-02 0.498170E-02
   ----------------------------------------------------------------
   Total forces(   1)            : -.145211E+01 0.643891E+00 -.170005E+00
  atom #    2
   Hellmann-Feynman + Multipole  : 0.251127E+00 -.757187E+00 0.298278E+00
   Pulay + GGA                   : -.341468E-01 0.565557E-01 -.282286E-01
   Van der Waals               : -.934141E-03 0.108122E-02 0.164807E-02
   ----------------------------------------------------------------
   Total forces(   2)            : 0.216046E+00 -.699551E+00 0.271697E+00
  atom #    3
   Hellmann-Feynman + Multipole  : 0.862289E+00 0.199519E-01 0.194843E-01
   Pulay + GGA                   : 0.843742E-01 0.244508E-02 0.250900E-01
   Van der Waals               : 0.312876E-02 -.517566E-02 -.979054E-04
   ----------------------------------------------------------------
   Total forces(   3)            : 0.949792E+00 0.172213E-01 0.444764E-01
  atom #    4
   Hellmann-Feynman + Multipole  : 0.146016E+00 0.384090E-01 -.388990E+00
   Pulay + GGA                   : -.378923E-01 -.109166E-01 0.157435E+00
   Van der Waals               : -.286410E-02 -.500025E-02 0.269809E-02
   ----------------------------------------------------------------
   Total forces(   4)            : 0.105260E+00 0.224922E-01 -.228857E+00
  atom #    5
   Hellmann-Feynman + Multipole  : -.647064E+01 -.724309E+01 0.892452E+01
   Pulay + GGA                   : 0.696370E+01 0.670700E+01 -.584889E+01
   Van der Waals               : 0.300850E-02 0.358731E-02 0.104477E-02
   ----------------------------------------------------------------
   Total forces(   5)            : 0.496062E+00 -.532504E+00 0.307667E+01
  atom #    6
   Hellmann-Feynman + Multipole  : -.860553E-01 -.157012E+00 -.108559E+00
   Pulay + GGA                   : 0.518533E-01 0.122546E+00 0.420223E-01
   Van der Waals               : 0.380805E-02 0.548058E-02 0.175165E-02
   ----------------------------------------------------------------
   Total forces(   6)            : -.303940E-01 -.289851E-01 -.647851E-01
  atom #    7
   Hellmann-Feynman + Multipole  : -.322330E+00 0.430455E+00 -.277538E+01
   Pulay + GGA                   : -.325514E-01 0.218132E-01 -.142886E+00
   Van der Waals               : 0.912783E-03 0.187647E-02 -.315733E-03
   ----------------------------------------------------------------
   Total forces(   7)            : -.353968E+00 0.454144E+00 -.291858E+01
  atom #    8
   Hellmann-Feynman + Multipole  : -.465997E+01 0.207844E+01 -.934333E+01
   Pulay + GGA                   : 0.632595E+01 -.255310E+01 0.101126E+02
   Van der Waals               : 0.155122E-02 -.901550E-03 -.682737E-02
   ----------------------------------------------------------------
   Total forces(   8)            : 0.166753E+01 -.475558E+00 0.762455E+00
  atom #    9
   Hellmann-Feynman + Multipole  : -.303673E+00 -.908961E-01 -.529307E+00
   Pulay + GGA                   : 0.280140E-01 0.415411E-01 0.768033E-01
   Van der Waals               : 0.351834E-02 0.373655E-02 -.316277E-03
   ----------------------------------------------------------------
   Total forces(   9)            : -.272141E+00 -.456185E-01 -.452820E+00
  atom #   10
   Hellmann-Feynman + Multipole  : -.145033E+01 0.734540E+00 -.350127E+00
   Pulay + GGA                   : 0.112021E+00 -.635832E-01 0.198808E-01
   Van der Waals               : 0.156402E-02 0.159330E-02 0.324139E-03
   ----------------------------------------------------------------
   Total forces(  10)            : -.133674E+01 0.672550E+00 -.329922E+00
  atom #   11
   Hellmann-Feynman + Multipole  : -.309362E+01 -.762774E+00 -.146030E+02
   Pulay + GGA                   : 0.388688E+01 0.997115E+00 0.127035E+02
   Van der Waals               : -.747688E-02 0.285624E-03 -.168568E-02
   ----------------------------------------------------------------
   Total forces(  11)            : 0.785786E+00 0.234626E+00 -.190120E+01
  atom #   12
   Hellmann-Feynman + Multipole  : -.189511E+00 -.588548E-01 0.411696E+00
   Pulay + GGA                   : 0.107352E+00 0.784814E-01 0.538352E-01
   Van der Waals               : -.180243E-02 -.226783E-02 -.199583E-02
   ----------------------------------------------------------------
   Total forces(  12)            : -.839615E-01 0.173587E-01 0.463535E+00
  atom #   13
   Hellmann-Feynman + Multipole  : -.588474E+00 -.237835E+00 0.133834E+01
   Pulay + GGA                   : -.997831E-01 -.469703E-01 0.102592E+00
   Van der Waals               : -.276355E-02 0.112243E-02 -.120964E-02
   ----------------------------------------------------------------
   Total forces(  13)            : -.691020E+00 -.283683E+00 0.143973E+01
  Timings for vdw_correction_hirshfeld (Tkatchenko-Scheffler 2009):
  | CPU time:        3.833 s, Wall clock time:        3.834 s.
  Removing unitary transformations (pure translations, rotations) from forces on atoms.
  Atomic forces before filtering:
  | Net force on center of mass :  0.139166E-03 -.361605E-02 -.760763E-02 eV/A
  | Net torque on center of mass:  0.101734E-01 -.953402E-02 0.770972E-03 eV
  Atomic forces after filtering:
  | Net force on center of mass :  -.178406E-15 -.178406E-15 0.713624E-15 eV/A
  | Net torque on center of mass:  -.113290E-14 -.132172E-14 0.113290E-14 eV
 
  Energy and forces in a compact form:
  | Total energy uncorrected      :         -0.834635725753473E+04 eV
  | Total energy corrected        :         -0.834636007848265E+04 eV  <-- do not rely on this value for anything but (periodic) metals
  | Electronic free energy        :         -0.834636289943057E+04 eV
  Total atomic forces (unitary forces cleaned) [eV/Ang]:
  |   1         -0.145234116319190E+01          0.644117902549481E+00         -0.168801349257610E+00
  |   2          0.215837282200259E+00         -0.699395249438578E+00          0.272704754432691E+00
  |   3          0.949596599495418E+00          0.173684233610016E-01          0.454271413073643E-01
  |   4          0.105183866252833E+00          0.230485487852850E-01         -0.227562802442238E+00
  |   5          0.495899019099503E+00         -0.532408748721491E+00          0.307742143580727E+01
  |   6         -0.304186228648890E-01         -0.288235863291651E-01         -0.643633080702900E-01
  |   7         -0.354274510417836E+00          0.453968510419940E+00         -0.291784691113506E+01
  |   8          0.166738537273689E+01         -0.475556353491035E+00          0.762990822769436E+00
  |   9         -0.272092887400648E+00         -0.453790350780878E-01         -0.452494689472396E+00
  |  10         -0.133692508813111E+01          0.672511971221502E+00         -0.329343833073826E+00
  |  11          0.786167660924548E+00          0.235272304919168E+00         -0.190122763854711E+01
  |  12         -0.834723694502651E-01          0.180371162403439E-01          0.463212920940063E+00
  |  13         -0.690545159252797E+00         -0.282761804438365E+00          0.143988345674171E+01
 
  ------------------------------------ 
  Start decomposition of the XC Energy 
  ------------------------------------ 
  Hartree-Fock part   :          0.000000000 Ha              0.000000000 eV
  ------------------------------------ 
  X Energy            :        -36.235469404 Ha           -986.017290487 eV
  C Energy GGA        :         -1.333435950 Ha            -36.284638349 eV
  Total XC Energy     :        -37.568905354 Ha          -1022.301928836 eV
  LDA X and C from self-consistent density 
  X Energy LDA        :        -32.669879662 Ha           -888.992657042 eV
  C Energy LDA        :         -2.679437666 Ha            -72.911208564 eV
  ------------------------------------ 
  End decomposition of the XC Energy 
  ------------------------------------ 
  Performing Hirshfeld analysis of fragment charges and moments.
  ----------------------------------------------------------------------
  | Atom     1: O
  |   Hirshfeld charge        :     -0.14406983
  |   Free atom volume        :     23.95238533
  |   Hirshfeld volume        :     22.50558998
  |   Hirshfeld dipole vector :      0.01292635       0.03572452       0.00705454
  |   Hirshfeld dipole moment :      0.03864063
  |   Hirshfeld second moments:      0.06338173      -0.00783670      -0.00705643
  |                                 -0.00783670       0.02369065      -0.02548578
  |                                 -0.00705643      -0.02548578       0.04817484
  ----------------------------------------------------------------------
  | Atom     2: H
  |   Hirshfeld charge        :      0.10650279
  |   Free atom volume        :     10.44207651
  |   Hirshfeld volume        :     10.37410968
  |   Hirshfeld dipole vector :      0.00470903       0.01336111      -0.01563490
  |   Hirshfeld dipole moment :      0.02109844
  |   Hirshfeld second moments:      0.03731027       0.01723819       0.00672015
  |                                  0.01723819       0.01982783       0.00720364
  |                                  0.00672015       0.00720364       0.03929504
  ----------------------------------------------------------------------
  | Atom     3: H
  |   Hirshfeld charge        :      0.09555667
  |   Free atom volume        :     10.44207651
  |   Hirshfeld volume        :     10.29308250
  |   Hirshfeld dipole vector :      0.01631751       0.01225444      -0.00607037
  |   Hirshfeld dipole moment :      0.02129042
  |   Hirshfeld second moments:      0.01556952      -0.01592241       0.00070450
  |                                 -0.01592241       0.04323078       0.00778560
  |                                  0.00070450       0.00778560       0.03889041
  ----------------------------------------------------------------------
  | Atom     4: H
  |   Hirshfeld charge        :      0.06929903
  |   Free atom volume        :     10.44207651
  |   Hirshfeld volume        :     15.39584208
  |   Hirshfeld dipole vector :      0.00724120       0.00838165      -0.02789351
  |   Hirshfeld dipole moment :      0.03001225
  |   Hirshfeld second moments:     -0.02469829       0.00802269       0.02589376
  |                                  0.00802269      -0.03451089       0.00187683
  |                                  0.02589376       0.00187683      -0.11140904
  ----------------------------------------------------------------------
  | Atom     5: O
  |   Hirshfeld charge        :     -0.21157457
  |   Free atom volume        :     23.95238533
  |   Hirshfeld volume        :     22.83199293
  |   Hirshfeld dipole vector :      0.03846672      -0.00210716      -0.02701180
  |   Hirshfeld dipole moment :      0.04705067
  |   Hirshfeld second moments:     -0.00972156       0.00212739       0.03990347
  |                                  0.00212739       0.05286412       0.00823022
  |                                  0.03990347       0.00823022       0.04147488
  ----------------------------------------------------------------------
  | Atom     6: H
  |   Hirshfeld charge        :      0.10162931
  |   Free atom volume        :     10.44207651
  |   Hirshfeld volume        :     12.20007508
  |   Hirshfeld dipole vector :      0.03168108       0.03243454       0.00859818
  |   Hirshfeld dipole moment :      0.04614780
  |   Hirshfeld second moments:      0.00274025      -0.01833926       0.01938449
  |                                 -0.01833926       0.00768642      -0.00480917
  |                                  0.01938449      -0.00480917       0.00444945
  ----------------------------------------------------------------------
  | Atom     7: H
  |   Hirshfeld charge        :      0.11179059
  |   Free atom volume        :     10.44207651
  |   Hirshfeld volume        :     11.42036603
  |   Hirshfeld dipole vector :     -0.00767920      -0.00420804      -0.06611773
  |   Hirshfeld dipole moment :      0.06669507
  |   Hirshfeld second moments:      0.01704125       0.00158274       0.01679110
  |                                  0.00158274       0.03944937       0.01303210
  |                                  0.01679110       0.01303210       0.01898514
  ----------------------------------------------------------------------
  | Atom     8: O
  |   Hirshfeld charge        :     -0.23739726
  |   Free atom volume        :     23.95238533
  |   Hirshfeld volume        :     22.73909213
  |   Hirshfeld dipole vector :     -0.00926628      -0.01725457       0.03440356
  |   Hirshfeld dipole moment :      0.03958774
  |   Hirshfeld second moments:      0.04966721      -0.01619359       0.00870004
  |                                 -0.01619359       0.02294382       0.03969524
  |                                  0.00870004       0.03969524      -0.01770414
  ----------------------------------------------------------------------
  | Atom     9: H
  |   Hirshfeld charge        :      0.08470454
  |   Free atom volume        :     10.44207651
  |   Hirshfeld volume        :     10.30185589
  |   Hirshfeld dipole vector :      0.01036935       0.02476862       0.02836964
  |   Hirshfeld dipole moment :      0.03906206
  |   Hirshfeld second moments:      0.06112358       0.00332115       0.00424404
  |                                  0.00332115       0.02440361       0.00281891
  |                                  0.00424404       0.00281891       0.00406344
  ----------------------------------------------------------------------
  | Atom    10: H
  |   Hirshfeld charge        :      0.11035654
  |   Free atom volume        :     10.44207651
  |   Hirshfeld volume        :     10.95281396
  |   Hirshfeld dipole vector :      0.05820963      -0.03731437       0.00263498
  |   Hirshfeld dipole moment :      0.06919297
  |   Hirshfeld second moments:      0.03600897       0.00413631       0.00406449
  |                                  0.00413631       0.03255431       0.02369155
  |                                  0.00406449       0.02369155       0.02357464
  ----------------------------------------------------------------------
  | Atom    11: O
  |   Hirshfeld charge        :     -0.27175473
  |   Free atom volume        :     23.95238533
  |   Hirshfeld volume        :     23.33601585
  |   Hirshfeld dipole vector :      0.02988288      -0.01727804       0.02901941
  |   Hirshfeld dipole moment :      0.04509594
  |   Hirshfeld second moments:      0.01551261       0.04874887      -0.02589310
  |                                  0.04874887      -0.01197989       0.02789669
  |                                 -0.02589310       0.02789669       0.00808011
  ----------------------------------------------------------------------
  | Atom    12: H
  |   Hirshfeld charge        :      0.11277051
  |   Free atom volume        :     10.44207651
  |   Hirshfeld volume        :     10.62931348
  |   Hirshfeld dipole vector :      0.07353158       0.04573264       0.01474541
  |   Hirshfeld dipole moment :      0.08783960
  |   Hirshfeld second moments:      0.03868474       0.02277723      -0.01894067
  |                                  0.02277723       0.03319943       0.00715061
  |                                 -0.01894067       0.00715061       0.04078425
  ----------------------------------------------------------------------
  | Atom    13: H
  |   Hirshfeld charge        :      0.07224013
  |   Free atom volume        :     10.44207651
  |   Hirshfeld volume        :     13.38048605
  |   Hirshfeld dipole vector :     -0.01129854      -0.00682100       0.03511637
  |   Hirshfeld dipole moment :      0.03751457
  |   Hirshfeld second moments:     -0.02998483       0.00729748       0.00990147
  |                                  0.00729748      -0.02947083       0.03405946
  |                                  0.00990147       0.03405946       0.00212327
  ----------------------------------------------------------------------


------------------------------------------------------------------------------
  Final output of selected total energy values:

  The following output summarizes some interesting total energy values
  at the end of a run (AFTER all relaxation, molecular dynamics, etc.).

  | Total energy of the DFT / Hartree-Fock s.c.f. calculation      :          -8346.357257535 eV
  | Final zero-broadening corrected energy (caution - metals only) :          -8346.360078483 eV
  | For reference only, the value of 1 Hartree used in FHI-aims is :             27.211384500 eV

  Before relying on these values, please be sure to understand exactly which
  total energy value is referred to by a given number. Different objects may
  all carry the same name 'total energy'. Definitions:

  Total energy of the DFT / Hartree-Fock s.c.f. calculation:
  | Note that this energy does not include ANY quantities calculated after the
  | s.c.f. cycle, in particular not ANY RPA, MP2, etc. many-body perturbation terms.

  Final zero-broadening corrected energy:
  | For metallic systems only, a broadening of the occupation numbers at the Fermi
  | level can be extrapolated back to zero broadening by an electron-gas inspired
  | formula. For all systems that are not real metals, this value can be
  | meaningless and should be avoided.

------------------------------------------------------------------------------

------------------------------------------------------------
          Leaving FHI-aims.
          Date     :  20150727, Time     :  124254.697

          Computational steps:
          | Number of self-consistency cycles          :           16

          Detailed time accounting                     :  max(cpu_time)    wall_clock(cpu1)
          | Total time                                 :       28.266 s          28.294 s
          | Preparation time                           :        0.173 s           0.561 s
          | Grid partitioning                          :        0.117 s           0.117 s
          | Preloading free-atom quantities on grid    :        0.014 s           0.014 s
          | Free-atom superposition energy             :        0.051 s           0.051 s
          | Total time for integrations                :       12.220 s          12.219 s
          | Total time for solution of K.-S. equations :        0.713 s           0.713 s
          | Total time for density & force components  :        9.449 s           9.448 s
          | Total time for mixing                      :        0.171 s           0.174 s
          | Total time for Hartree multipole update    :        0.069 s           0.069 s
          | Total time for Hartree multipole sum       :        4.668 s           4.669 s
          | Total time for total energy evaluation     :        0.006 s           0.004 s
          | Total time for scaled ZORA corrections     :        0.000 s           0.000 s
          | Total time for TS (2009) vdW correction    :        0.039 s           0.039 s

          Have a nice day.
------------------------------------------------------------
