  MPI-parallelism will be employed.
------------------------------------------------------------
          Invoking FHI-aims ...
          Version 081213
          Compiled on 2013/08/29 at 17:41:06 on host generoso.

          When using FHI-aims, please cite the following reference:

          Volker Blum, Ralf Gehrke, Felix Hanke, Paula Havu,
          Ville Havu, Xinguo Ren, Karsten Reuter, and Matthias Scheffler,
          'Ab Initio Molecular Simulations with Numeric Atom-Centered Orbitals: FHI-aims',
          Computer Physics Communications 180, 2175-2196 (2009)

          For any questions about FHI-aims, please visit the aimsclub website
          with its forums and wiki. Contributions to both the forums and the
          wiki are warmly encouraged - they are for you, and everyone is welcome there.

------------------------------------------------------------

  Date     :  20150727, Time     :  124801.153
  Time zero on CPU 1             :   0.409930000000000E-01  s.
  Internal wall clock time zero  :           207233281.153  s.

  Using        8 parallel tasks.
  Task        0 on host gen59 reporting.
  Task        1 on host gen59 reporting.
  Task        2 on host gen59 reporting.
  Task        3 on host gen59 reporting.
  Task        4 on host gen59 reporting.
  Task        5 on host gen59 reporting.
  Task        6 on host gen59 reporting.
  Task        7 on host gen59 reporting.

  Performing system and environment tests:
  | Environment variable OMP_NUM_THREADS correctly set to 1.
  | Checking for scalapack...
  | No scalapack compiled in.

  Obtaining array dimensions for all initial allocations:
  
  -----------------------------------------------------------------------
  Parsing control.in (first pass over file, find array dimensions only).
  The contents of control.in will be repeated verbatim below
  unless switched off by setting 'verbatim_writeout .false.' .
  in the first line of control.in .
  -----------------------------------------------------------------------
  
  #########################################################################################
  #
  #  Volker Blum, FHI 2008 : Test run input file control.in
  #
  #########################################################################################
  #
  #  Physical model
  #
    xc                 rpbe
    spin               none
    relativistic       atomic_zora scalar
    charge             0.
   vdw_correction_hirshfeld
  #
  #  SCF convergence
  #
    occupation_type    gaussian 0.01
    mixer              pulay
      n_max_pulay        10
      charge_mix_param   0.1
    sc_accuracy_rho    5E-5
    sc_accuracy_eev    5E-3
    sc_accuracy_etot   5E-6
    sc_iter_limit      3000
  #
  #  Eigenvalue solver
  #
    KS_method          lapack
      empty_states       8
      basis_threshold    0.e-5
  #
  #  Efficiency
  #
  #   all previous settings are now default, except stratmann still
  #   undecided. Continue to handle stratmann with care, if at all.
  #
  #  partition_type stratmann
    partition_type rho_r2
  #  hartree_partition_type stratmann
  #
  #  Oprions for large clusters (100's of atoms: memory saving / better scaling)
  #
  # for periodic systems:
  #
    density_update_method orbital
    packed_matrix_format none
  #  k_grid 6 6 6
  #  output k_eigenvalue 1
  #  distributed_spline_storage .true.
  #
  #  Relaxation
  #
  #  relax_geometry   bfgs 5.e-3
    sc_accuracy_forces 5.E-4
    final_forces_cleaned .true.
  #
  #  Output options
  #
  #  output mulliken
    output Hirshfeld
  #  output dipole
  
  #harmonic_length_scale 0.001
  
  ################################################################################
  #
  #  FHI-aims code project
  #  VB, Fritz-Haber Institut, 2007
  #
  #  Suggested "safe" defaults for H atom (to be pasted into control.in file)
  #  Basis constructed for a non-relativistic H2 molecule using the
  #  PW-LDA functional.
  #
  ################################################################################
    species        H
  #     global species definitions
      nucleus             1
      cut_pot             4.0  2.0  1.0
      cut_free_atom       finite 8.0
      logarithmic         0.00010000 100.00  1.0123
      basis_dep_cutoff    1d-4  # 1d-4 is safe default - please check 5d-4 if you wish!
      radial_base         24 7.0
      radial_multiplier   2
      angular_grids       specified
        division   0.2783  110
        division   0.3822  194
        division   0.5626  302
  #      division   0.5922  434
  #      division   0.6227  590
  #      division   0.7206  770
        outer_grid  302
      l_hartree           4
  ################################################################################
  #
  #  Definition of "minimal" basis
  #
  ################################################################################
  #     valence basis states
      valence      1  s   1.
  #     ion occupancy
      ion_occ      1  s   0.5
  ################################################################################
  #
  #  Suggested additional basis functions. For production calculations,
  #  uncomment them one after another (the most important basis functions are
  #  listed first).
  #
  ################################################################################
  #  "First tier" - improvements: -1014.90 meV to -62.69 meV
       hydro 2 s 2.1
       hydro 2 p 3.5
  #  "Second tier" - improvements: -12.89 meV to -1.83 meV
       hydro 1 s 0.85
       hydro 2 p 3.7
       hydro 2 s 1.2
       hydro 3 d 7
  #  "Third tier" - improvements: -0.25 meV to -0.12 meV
  #     hydro 4 f 11.2
  #     hydro 3 p 4.8
  #     hydro 4 d 9
  #     hydro 3 s 3.2
  
  ################################################################################
  #
  #  FHI-aims code project
  #  VB, Fritz-Haber Institut, 2007
  #
  #  Suggested "safe" defaults for O atom (to be pasted into control.in file)
  #  All values have been tested for a non-relativistic, non-spinpolarized O2
  #  molecule using the PW-LDA functional. Validity for PBE is expected.
  #
  #  Constructed for dimers: 1.0 A, 1.208 A, 1.5 A, 2.0 A, 3.0 A
  #
  ################################################################################
    species        O
  #     global species definitions
      nucleus             8
      mass                15.9994
      l_hartree           4
      cut_pot             4.0  2.0  1.0
      cut_free_atom       finite 8.0
      basis_dep_cutoff    1d-4  # 1d-4 is safe default - please check 5d-4 if you wish!
      logarithmic         0.00010000 100.00  1.0123
      radial_base         36 7.0
      radial_multiplier   2
       angular_grids specified
        division   0.4087  110
        division   0.5181  194
        division   0.6184  302
  #      division   0.7315  434
  #      division   0.7934  590
  #      division   0.9656  770
  #      division   1.4041  974
  #      outer_grid 974
        outer_grid 302
  ################################################################################
  #
  #  Definition of "minimal" basis
  #
  ################################################################################
  #     valence basis states
      valence      2  s   2.
      valence      2  p   4.
  #     ion occupancy
      ion_occ      2  s   1.
      ion_occ      2  p   3.
  ################################################################################
  #
  #  Suggested additional basis functions. For production calculations,
  #  uncomment them one after another (the most important basis functions are
  #  listed first).
  #
  ################################################################################
  #  "First tier" - improvements: -699.05 meV to -159.38 meV
       hydro 2 p 1.8
       hydro 3 d 7.6
       hydro 3 s 6.4
  #  "Second tier" - improvements: -49.91 meV to -5.39 meV
       hydro 4 f 11.6
       hydro 3 p 6.2
       hydro 3 d 5.6
       hydro 5 g 17.6
       hydro 1 s 0.75
  #  "Third tier" - improvements: -2.83 meV to -0.50 meV
  #     ionic 2 p auto
  #     hydro 4 f 10.8
  #     hydro 4 d 4.7
  #     hydro 2 s 6.8
  #  "Fourth tier" - improvements: -0.40 meV to -0.12 meV
  #     hydro 3 p 5
  #     hydro 3 s 3.3
  #     hydro 5 g 15.6
  #     hydro 4 f 17.6
  #     hydro 4 d 14
  # Further basis functions - -0.08 meV and below
  #     hydro 3 s 2.1
  #     hydro 4 d 11.6
  #     hydro 3 p 16
  #     hydro 2 s 17.2
  
  
  -----------------------------------------------------------------------
  Completed first pass over input file control.in .
  -----------------------------------------------------------------------
  
  
  -----------------------------------------------------------------------
  Parsing geometry.in (first pass over file, find array dimensions only).
  The contents of geometry.in will be repeated verbatim below
  unless switched off by setting 'verbatim_writeout .false.' .
  in the first line of geometry.in .
  -----------------------------------------------------------------------
  
  atom      -4.053030000      0.065001000     -1.525160000  O
  atom      -4.566710000      0.974813000     -1.912820000  H
  atom      -3.067820000      0.330172000     -1.477310000  H
  atom      -4.370360000     -0.049164000     -0.572274000  H
  atom      -5.293160000      2.192130000     -2.328800000  O
  atom      -4.829300000      2.988660000     -1.973850000  H
  atom      -5.428570000      2.328640000     -3.235170000  H
  atom      -3.818880000      2.024990000      2.187990000  O
  atom      -3.690880000      1.961360000      3.202150000  H
  atom      -4.546490000      2.751300000      2.045370000  H
  atom      -4.066610000      4.258280000     -0.900064000  O
  atom      -3.224110000      3.876870000     -0.569443000  H
  atom      -3.737450000      5.116530000     -1.322720000  H
  atom      -5.628340000      3.730740000      1.385610000  O
  atom      -6.090650000      4.418470000      1.860350000  H
  atom      -5.158540000      4.200260000      0.615875000  H
  
  -----------------------------------------------------------------------
  Completed first pass over input file geometry.in .
  -----------------------------------------------------------------------
  
 
  Basic array size parameters: 
  | Number of species                 :        2
  | Number of atoms                   :       16
  | Max. basis fn. angular momentum   :        4
  | Max. atomic/ionic basis occupied n:        2
  | Max. number of basis fn. types    :        2
  | Max. radial fns per species/type  :        8
  | Max. logarithmic grid size        :     1301
  | Max. radial integration grid size :       73
  | Max. angular integration grid size:      302
  | Max. angular grid division number :        8
  | Radial grid for Hartree potential :     1301
  | Number of spin channels           :        1

------------------------------------------------------------
          Reading file control.in.
------------------------------------------------------------
  XC: Using RPBE gradient-corrected functionals.
  Spin treatment: No spin polarisation.
  Scalar relativistic treatment of kinetic energy: on-site free-atom approximation to ZORA.
  Charge =   0.000000E+00: Neutral system requested explicitly.
  Using non-empirical van der Waals correction (Hirshfeld partitioning):
  Occupation type: Gaussian broadening, width =   0.100000E-01 eV.
  Using pulay charge density mixing.
  Pulay mixing - number of memorized iterations:   10
  Charge density mixing - mixing parameter:     0.1000
  Convergence accuracy of self-consistent charge density: 0.5000E-04
  Convergence accuracy of sum of eigenvalues: 0.5000E-02
  Convergence accuracy of total energy: 0.5000E-05
  Maximum number of s.-c. iterations  :  3000
  Kohn-Sham eigenvalues and eigenfunctions calculated by lapack diagonalisation (D&C).
  Number of empty states per atom:        8
  Threshold for basis singularities: 0.0000E+00
  Partition function in integrals calculations: rho / r^2
 Using packed matrix format           0
  Convergence accuracy of forces: 0.5000E-03
  Cleaning forces before final output.
  Hirshfeld charge analysis will be performed.
 
  Reading configuration options for species H                   .
  | Found nuclear charge :   1.0000
  | Found cutoff potl. onset [A], width [A], scale factor :    4.00000    2.00000    1.00000
  | Found cutoff specification for free atom: Cutoff potential begins at    8.00000 A.
  | Found logarithmic grid data [bohr] : 0.1000E-03 0.1000E+03 0.1012E+01
  | Threshold for basis-dependent cutoff potential is   0.100000E-03
  | Found data for basic radial integration grid :    24 points, outermost radius =    7.000 A
  | Found multiplier for basic radial grid :   2
  | Found angular grid specification: user-specified.
  | Specified grid contains     4 separate shells.
  | Check grid settings after all constraints further below.
  | Found l_max for Hartree potential  :   4
  | Found free-atom valence shell :  1 s   1.000
  | No ionic wave fns used. Skipping ion_occ.
  | Found hydrogenic basis function :  2 s   2.100
  | Found hydrogenic basis function :  2 p   3.500
  | Found hydrogenic basis function :  1 s   0.850
  | Found hydrogenic basis function :  2 p   3.700
  | Found hydrogenic basis function :  2 s   1.200
  | Found hydrogenic basis function :  3 d   7.000
  Species H                   : Missing cutoff potential type.
  Defaulting to exp(1/x)/(1-x)^2 type cutoff potential.
  Species H : On-site basis accuracy parameter (for Gram-Schmidt orthonormalisation) not specified.
  Using default value basis_acc =  0.1000000E-03.
  Species H                   : Using default innermost maximum threshold i_radial=  2 for radial functions.
  Species H                   : Basic radial grid will be enhanced according to radial_multiplier =   2, to contain    49 grid points.
 
  Reading configuration options for species O                   .
  | Found nuclear charge :   8.0000
  | Found atomic mass :    15.9994000000000      amu
  | Found l_max for Hartree potential  :   4
  | Found cutoff potl. onset [A], width [A], scale factor :    4.00000    2.00000    1.00000
  | Found cutoff specification for free atom: Cutoff potential begins at    8.00000 A.
  | Threshold for basis-dependent cutoff potential is   0.100000E-03
  | Found logarithmic grid data [bohr] : 0.1000E-03 0.1000E+03 0.1012E+01
  | Found data for basic radial integration grid :    36 points, outermost radius =    7.000 A
  | Found multiplier for basic radial grid :   2
  | Found angular grid specification: user-specified.
  | Specified grid contains     4 separate shells.
  | Check grid settings after all constraints further below.
  | Found free-atom valence shell :  2 s   2.000
  | Found free-atom valence shell :  2 p   4.000
  | No ionic wave fns used. Skipping ion_occ.
  | No ionic wave fns used. Skipping ion_occ.
  | Found hydrogenic basis function :  2 p   1.800
  | Found hydrogenic basis function :  3 d   7.600
  | Found hydrogenic basis function :  3 s   6.400
  | Found hydrogenic basis function :  4 f  11.600
  | Found hydrogenic basis function :  3 p   6.200
  | Found hydrogenic basis function :  3 d   5.600
  | Found hydrogenic basis function :  5 g  17.600
  | Found hydrogenic basis function :  1 s   0.750
  Species O                   : Missing cutoff potential type.
  Defaulting to exp(1/x)/(1-x)^2 type cutoff potential.
  Species O : On-site basis accuracy parameter (for Gram-Schmidt orthonormalisation) not specified.
  Using default value basis_acc =  0.1000000E-03.
  Species O                   : Using default innermost maximum threshold i_radial=  2 for radial functions.
  Species O                   : Basic radial grid will be enhanced according to radial_multiplier =   2, to contain    73 grid points.
 
  Finished reading input file 'control.in'. Consistency checks are next.
 
  Target number of points in a grid batch is not set. Defaulting to  100
  Method for grid partitioning is not set. Defaulting to parallel hash+maxmin partitioning.
  Batch size limit is not set. Defaulting to    200
  By default, will store active basis functions for each batch.
  If in need of memory, prune_basis_once .false. can be used to disable this option.
  communication_type for Hartree potential was not specified.
  Defaulting to calc_hartree .
  Pulay mixer: Number of initial linear mixing iterations not set.
  Defaulting to    0 iterations.
  Work space size for distributed Hartree potential not set.
  Defaulting to   0.200000E+03 MB.
  Algorithm-dependent basis array size parameters:
  | n_max_pulay                         :       10
  Geometry relaxation not requested: no relaxation will be performed.
  Handling of forces: Unphysical translation and rotation will be removed from forces.
  No accuracy limit for integral partition fn. given. Defaulting to 0.1000E-14.
  No threshold value for u(r) in integrations given. Defaulting to 0.1000E-05.
  No accuracy for occupation numbers given. Defaulting to 0.1000E-07.
  No threshold value for occupation numbers given. Defaulting to 0.0000E+00.
  No accuracy for fermi level given. Defaulting to 0.1000E-19.
  Maximum # of iterations to find E_F not set. Defaulting to  200.
  Will not use alltoall communication since running on < 1024 CPUs.
  Partitioning for Hartree potential was not defined. Using partition_type for integrals.
  | Reporting present value of keyword multip_moments_threshold  :       0.10000000E-09
  | This value may affect high angular momentum components of the Hartree potential in periodic systems.
  No q(lm)/r^(l+1) cutoff set for long-range Hartree potential.
  | Using default value of  0.100000E-09 .
  | Verify using the multipole_threshold keyword.
  Defaulting to new monopole extrapolation.
  Density update method: Loop over occupied states selected for charge density update.
------------------------------------------------------------


------------------------------------------------------------
          Reading geometry description geometry.in.
------------------------------------------------------------
  Input structure read successfully.
  The structure contains       16 atoms,  and a total of         51.000 electrons.

  Input geometry:
  | No unit cell requested.
  | Atomic structure:
  |       Atom                x [A]            y [A]            z [A]
  |    1: Species O             -4.053030         0.065001        -1.525160
  |    2: Species H             -4.566710         0.974813        -1.912820
  |    3: Species H             -3.067820         0.330172        -1.477310
  |    4: Species H             -4.370360        -0.049164        -0.572274
  |    5: Species O             -5.293160         2.192130        -2.328800
  |    6: Species H             -4.829300         2.988660        -1.973850
  |    7: Species H             -5.428570         2.328640        -3.235170
  |    8: Species O             -3.818880         2.024990         2.187990
  |    9: Species H             -3.690880         1.961360         3.202150
  |   10: Species H             -4.546490         2.751300         2.045370
  |   11: Species O             -4.066610         4.258280        -0.900064
  |   12: Species H             -3.224110         3.876870        -0.569443
  |   13: Species H             -3.737450         5.116530        -1.322720
  |   14: Species O             -5.628340         3.730740         1.385610
  |   15: Species H             -6.090650         4.418470         1.860350
  |   16: Species H             -5.158540         4.200260         0.615875
  |

  | The smallest distance between any two atoms is         0.92654057 AA.
  |
  | The first atom of this pair is atom number                      5 .
  | The second atom of this pair is atom number                     7 .

  Structure-dependent array size parameters: 
  | Maximum number of distinct radial functions  :       18
  | Maximum number of basis functions            :      360
  | Number of Kohn-Sham states (occupied + empty):       90
------------------------------------------------------------

------------------------------------------------------------
          Preparing all fixed parts of the calculation.
------------------------------------------------------------
  Determining machine precision:
    2.225073858507201E-308
  Setting up grids for atomic and cluster calculations.

  Creating wave function, potential, and density for free atoms.

  Species: H

  List of occupied orbitals and eigenvalues:
    n    l              occ      energy [Ha]    energy [eV]
    1    0           1.0000        -0.241408        -6.5691


  Species: O

  List of occupied orbitals and eigenvalues:
    n    l              occ      energy [Ha]    energy [eV]
    1    0           2.0000       -18.944147      -515.4965
    2    0           2.0000        -0.883529       -24.0421
    2    1           4.0000        -0.330176        -8.9845

  Creating fixed part of basis set: Ionic, confined, hydrogenic.
 
  H                    hydrogenic:
 
  List of hydrogenic basis orbitals: 
    n    l      effective z      eigenvalue [eV]  inner max. [A]     outer max. [A]     outer radius [A]   
    2    0         2.100000       -14.9965           0.193241           1.317192           5.372934
    2    1         3.500000       -41.6672           0.602363           0.602363           4.056010
    1    0         0.850000        -9.8292           0.624864           0.624864           5.372934
    2    1         3.700000       -46.5653           0.573616           0.573616           3.909951
    2    0         1.200000        -4.5995           0.334977           2.228160           5.505921
    3    2         7.000000       -74.0753           0.680692           0.680692           3.769152
 
 
  O                    hydrogenic:
 
  List of hydrogenic basis orbitals: 
    n    l      effective z      eigenvalue [eV]  inner max. [A]     outer max. [A]     outer radius [A]   
    2    1         1.800000       -11.0118           1.178546           1.178546           5.432516
    3    2         7.600000       -87.3182           0.624117           0.624117           3.541422
    3    0         6.400000       -61.9209           0.061166           1.081887           4.306510
    4    3        11.600000      -114.4238           0.731621           0.731621           3.584982
    3    1         6.200000       -58.1113           0.255677           1.030255           4.306510
    3    2         5.600000       -47.4081           0.847222           0.847222           4.413102
    5    4        17.600000      -168.5799           0.749730           0.749730           3.372413
    1    0         0.750000        -7.6499           0.705275           0.705275           5.366508
 

  Adding cutoff potential to free-atom effective potential.
  Creating atomic-like basis functions for current effective potential.

  Species H                   :

  List of atomic basis orbitals and eigenvalues:
    n    l      energy [Ha]    energy [eV]    outer radius [A]
    1    0        -0.241374        -6.5681       5.372934


  Species O                   :

  List of atomic basis orbitals and eigenvalues:
    n    l      energy [Ha]    energy [eV]    outer radius [A]
    1    0       -18.944147      -515.4965       1.415745
    2    0        -0.883529       -24.0421       5.048305
    2    1        -0.330173        -8.9845       5.301302

  Assembling full basis from fixed parts.
  | Species H :   atomic orbital   1 s accepted.
  | Species H :    hydro orbital   2 s accepted.
  | Species H :    hydro orbital   1 s accepted.
  | Species H :    hydro orbital   2 s accepted.
  | Species H :    hydro orbital   2 p accepted.
  | Species H :    hydro orbital   2 p accepted.
  | Species H :    hydro orbital   3 d accepted.
  | Species O :   atomic orbital   1 s accepted.
  | Species O :    hydro orbital   3 s accepted.
  | Species O :   atomic orbital   2 s accepted.
  | Species O :    hydro orbital   1 s accepted.
  | Species O :    hydro orbital   3 p accepted.
  | Species O :   atomic orbital   2 p accepted.
  | Species O :    hydro orbital   2 p accepted.
  | Species O :    hydro orbital   3 d accepted.
  | Species O :    hydro orbital   3 d accepted.
  | Species O :    hydro orbital   4 f accepted.
  | Species O :    hydro orbital   5 g accepted.
 
  Basis size parameters after reduction:
  | Total number of radial functions:       18
  | Total number of basis functions :      360
 
  Testing on-site integration grid accuracy.
  |  Species  Function  <phi|h_atom|phi> (log., in eV)  <phi|h_atom|phi> (rad., in eV)
           1        1                 -6.5683835025                 -6.5684759159
           1        2                 13.3711789951                 13.3708738703
           1        3                 23.6590910787                 23.6532055418
           1        4                 16.2963827186                 16.1870710655 ***
           1        5                 28.7627214838                 28.7627215090
           1        6                 59.5965249172                 59.5965950857
           1        7                 60.2220506392                 60.2220503827
           2        8               -515.4964576505               -515.4964530710
           2        9                 15.3030791347                 15.3030722972
           2       10                -21.7296094581                -21.7296135470
           2       11                 14.2969371730                 14.2969701621
           2       12                 21.0679693190                 21.0679697493
           2       13                 -2.3833606469                 -2.3833613176
           2       14                 13.7067136422                 13.7066766629
           2       15                 45.8013116808                 45.8013116965
           2       16                 52.2309815402                 52.2309831494
           2       17                 85.4120732416                 85.4120732763
           2       18                142.1019167745                142.1019167817
 * Note: Onsite integrals marked "***" above are less accurate than
 * onsite_accuracy_threshold =    0.03000 eV. Usually, this is harmless.
 * When in doubt, tighten the "radial" and/or "radial_multiplier" flags to check.

  Preparing densities etc. for the partition functions (integrals / Hartree potential).

  Preparations completed.
  max(cpu_time)          :      0.174 s.
  Wall clock time (cpu1) :      0.471 s.
------------------------------------------------------------

------------------------------------------------------------
          Begin self-consistency loop: Initialization.

          Date     :  20150727, Time     :  124801.654
------------------------------------------------------------

  Initializing index lists of integration centers etc. from given atomic structure:
  | Number of centers in hartree potential         :        16
  | Number of centers in hartree multipole         :        16
  | Number of centers in electron density summation:        16
  | Number of centers in basis integrals           :        16
  | Number of centers in integrals                 :        16
  Partitioning the integration grid into batches with parallel hashing+maxmin method.
  | Number of batches:     2146
  | Maximal batch size:     197
  | Minimal batch size:      56
  | Average batch size:      97.066
  | Standard deviation of batch sizes:      33.200

  Integration load balanced across     8 MPI tasks.
  Work distribution over tasks is as follows:
  Task     0 has      25996 integration points.
  Task     1 has      26049 integration points.
  Task     2 has      26131 integration points.
  Task     3 has      26000 integration points.
  Task     4 has      26013 integration points.
  Task     5 has      26113 integration points.
  Task     6 has      25993 integration points.
  Task     7 has      26009 integration points.
  Initializing partition tables, free-atom densities, potentials, etc. across the integration grid (initialize_grid_storage).
  | Net number of integration points:   208304
  | of which are non-zero points    :   207765
  Obtaining max. number of non-zero basis functions in each batch (get_n_compute_maxes).
  | Maximal number of non-zero basis functions:      357 in task     0
  | Maximal number of non-zero basis functions:      357 in task     1
  | Maximal number of non-zero basis functions:      356 in task     2
  | Maximal number of non-zero basis functions:      357 in task     3
  | Maximal number of non-zero basis functions:      356 in task     4
  | Maximal number of non-zero basis functions:      357 in task     5
  | Maximal number of non-zero basis functions:      357 in task     6
  | Maximal number of non-zero basis functions:      357 in task     7
  Integrating Hamiltonian matrix: batch-based integration.
  Time summed over all CPUs for integration: real work        8.212 s, elapsed        8.426 s
  Integrating overlap matrix.
  Time summed over all CPUs for integration: real work        4.376 s, elapsed        4.461 s

  Updating Kohn-Sham eigenvalues, eigenvectors, occupation numbers, and Fermi level.
  Solving generalized eigenproblem
  Updating Kohn-Sham eigenvalues and eigenfunctions.
  Transforming overlap matrix and checking for singularities.
  Overlap matrix is nonsingular:
  | Lowest eigenvalue:  0.293983E-03
  Solving real generalised eigenvalue problem by standard LAPACK (fast)
  Determining occupation numbers for Kohn-Sham eigenstates.
  | Chemical potential (Fermi level) in eV                 : -.27820736E+01
  | Error in electron count due to remaining E_F inaccuracy: -.96683550E-10
  | Maximum occupation number of highest empty state:  0.00E+00

  Writing Kohn-Sham eigenvalues.

  State    Occupation    Eigenvalue [Ha]    Eigenvalue [eV]
      1       2.00000         -19.064972         -518.78427
      2       2.00000         -19.064884         -518.78190
      3       2.00000         -19.050630         -518.39402
      4       2.00000         -19.045357         -518.25054
      5       2.00000         -19.028903         -517.80279
      6       2.00000          -1.127995          -30.69430
      7       2.00000          -1.113101          -30.28902
      8       2.00000          -1.100690          -29.95129
      9       2.00000          -1.088911          -29.63077
     10       2.00000          -1.059677          -28.83528
     11       2.00000          -0.653969          -17.79540
     12       2.00000          -0.631876          -17.19422
     13       2.00000          -0.627486          -17.07477
     14       2.00000          -0.620513          -16.88503
     15       2.00000          -0.607784          -16.53864
     16       2.00000          -0.601168          -16.35861
     17       2.00000          -0.530240          -14.42857
     18       2.00000          -0.522126          -14.20777
     19       2.00000          -0.509177          -13.85541
     20       2.00000          -0.487692          -13.27076
     21       2.00000          -0.483046          -13.14434
     22       2.00000          -0.452848          -12.32261
     23       2.00000          -0.440243          -11.97962
     24       2.00000          -0.437294          -11.89938
     25       2.00000          -0.417314          -11.35570
     26       1.00000          -0.102239           -2.78207
     27       0.00000          -0.074583           -2.02951
     28       0.00000          -0.062398           -1.69793
     29       0.00000          -0.040756           -1.10903
     30       0.00000          -0.036481           -0.99270
     31       0.00000          -0.019984           -0.54380
     32       0.00000          -0.001258           -0.03424
     33       0.00000           0.031340            0.85280
     34       0.00000           0.039262            1.06838
     35       0.00000           0.046035            1.25269
     36       0.00000           0.053790            1.46369
     37       0.00000           0.070901            1.92930
     38       0.00000           0.072743            1.97944
     39       0.00000           0.083119            2.26179
     40       0.00000           0.086112            2.34323
     41       0.00000           0.096030            2.61310
     42       0.00000           0.098851            2.68987
     43       0.00000           0.101261            2.75545
     44       0.00000           0.110938            3.01878
     45       0.00000           0.121125            3.29599
     46       0.00000           0.129574            3.52589
     47       0.00000           0.137881            3.75194
     48       0.00000           0.139264            3.78957
     49       0.00000           0.151629            4.12605
     50       0.00000           0.158761            4.32010
     51       0.00000           0.178024            4.84428
     52       0.00000           0.181392            4.93592
     53       0.00000           0.208206            5.66558
     54       0.00000           0.226988            6.17665
     55       0.00000           0.238619            6.49316
     56       0.00000           0.244052            6.64099
     57       0.00000           0.250153            6.80700
     58       0.00000           0.259756            7.06831
     59       0.00000           0.284050            7.72941
     60       0.00000           0.300311            8.17188
     61       0.00000           0.322259            8.76912
     62       0.00000           0.326163            8.87535
     63       0.00000           0.330539            8.99441
     64       0.00000           0.351777            9.57234
     65       0.00000           0.359698            9.78788
     66       0.00000           0.373579           10.16560
     67       0.00000           0.377873           10.28245
     68       0.00000           0.382616           10.41152
     69       0.00000           0.397605           10.81940
     70       0.00000           0.411826           11.20636
     71       0.00000           0.437605           11.90785
     72       0.00000           0.440807           11.99496
     73       0.00000           0.453783           12.34806
     74       0.00000           0.468822           12.75730
     75       0.00000           0.481141           13.09252
     76       0.00000           0.488368           13.28916
     77       0.00000           0.510043           13.87898
     78       0.00000           0.519105           14.12556
     79       0.00000           0.524833           14.28143
     80       0.00000           0.545198           14.83560
     81       0.00000           0.576120           15.67702
     82       0.00000           0.590991           16.08168
     83       0.00000           0.609299           16.57988
     84       0.00000           0.650230           17.69366
     85       0.00000           0.680881           18.52771
     86       0.00000           0.691157           18.80734
     87       0.00000           0.720548           19.60711
     88       0.00000           0.745602           20.28887
     89       0.00000           0.759551           20.66844
     90       0.00000           0.778854           21.19370

  Highest occupied state (VBM) at    -11.35569867 eV
  | Occupation number:      2.00000000

  Lowest unoccupied state (CBM) at    -2.78207360 eV
  | Occupation number:      1.00000000

  Overall HOMO-LUMO gap:      8.57362507 eV.
  Calculating total energy contributions from superposition of free atom densities.

  Total energy components:
  | Sum of eigenvalues            :        -217.63802723 Ha       -5922.23204068 eV
  | XC energy correction          :         -45.94041202 Ha       -1250.10221550 eV
  | XC potential correction       :          58.71566837 Ha        1597.73462825 eV
  | Free-atom electrostatic energy:        -178.66874714 Ha       -4861.82397667 eV
  | Hartree energy correction     :           0.00000000 Ha           0.00000000 eV
  | van der Waals energy corr.    :           0.00000000 Ha           0.00000000 eV
  | Entropy correction            :          -0.00010367 Ha          -0.00282095 eV
  | ---------------------------
  | Total energy                  :        -383.53151802 Ha      -10436.42360461 eV
  | Total energy, T -> 0          :        -383.53162168 Ha      -10436.42642556 eV  <-- do not rely on this value for anything but (periodic) metals
  | Electronic free energy        :        -383.53172535 Ha      -10436.42924650 eV

  Derived energy quantities:
  | Kinetic energy                :         379.86983382 Ha       10336.78410791 eV
  | Electrostatic energy          :        -717.46093981 Ha      -19523.10549702 eV
  | Energy correction for multipole
  | error in Hartree potential    :           0.00000000 Ha           0.00000000 eV
  | Sum of eigenvalues per atom                           :        -370.13950254 eV
  | Total energy (T->0) per atom                          :        -652.27665160 eV  <-- do not rely on this value for anything but (periodic) metals
  | Electronic free energy per atom                       :        -652.27682791 eV
  Initialize hartree_potential_storage
  Max. number of atoms included in rho_multipole:           16

  End scf initialization - timings             :  max(cpu_time)    wall_clock(cpu1)
  | Time for scf. initialization               :        2.211 s           2.211 s
  | Boundary condition initialization          :        0.000 s           0.001 s
  | Integration                                :        1.614 s           1.614 s
  | Solution of K.-S. eqns.                    :        0.214 s           0.214 s
  | Grid partitioning                          :        0.145 s           0.145 s
  | Preloading free-atom quantities on grid    :        0.014 s           0.014 s
  | Free-atom superposition energy             :        0.072 s           0.072 s
  | Total energy evaluation                    :        0.000 s           0.000 s
------------------------------------------------------------

------------------------------------------------------------
          Begin self-consistency iteration #    1

  Date     :  20150727, Time     :  124803.865
------------------------------------------------------------
  Evaluating new KS density.
  Integration grid: deviation in total charge (<rho> - N_e) =  -9.665513E-11
  Pulay mixing of updated and previous charge densities.

  Evaluating partitioned Hartree potential by multipole expansion.
  | Analytical far-field extrapolation by fixed multipoles:
  | Hartree multipole sum: apparent total charge =  -0.994756E-06
  Summing up the Hartree potential.
  Time summed over all CPUs for potential: real work        2.895 s, elapsed        2.911 s
  | RMS charge density error from multipole expansion :   0.164870E-02

  Integrating Hamiltonian matrix: batch-based integration.
  Time summed over all CPUs for integration: real work        8.173 s, elapsed        8.394 s

  Updating Kohn-Sham eigenvalues, eigenvectors, occupation numbers, and Fermi level.
  Solving generalized eigenproblem
  Updating Kohn-Sham eigenvalues and eigenfunctions.
  Solving real generalised eigenvalue problem by standard LAPACK (fast)
  Determining occupation numbers for Kohn-Sham eigenstates.
  | Chemical potential (Fermi level) in eV                 : -.25836815E+01
  | Error in electron count due to remaining E_F inaccuracy: -.55422333E-12
  | Maximum occupation number of highest empty state:  0.00E+00

  Writing Kohn-Sham eigenvalues.

  State    Occupation    Eigenvalue [Ha]    Eigenvalue [eV]
      1       2.00000         -19.017466         -517.49159
      2       2.00000         -18.993973         -516.85231
      3       2.00000         -18.976233         -516.36957
      4       2.00000         -18.973850         -516.30472
      5       2.00000         -18.942763         -515.45881
      6       2.00000          -1.102971          -30.01336
      7       2.00000          -1.083529          -29.48434
      8       2.00000          -1.062233          -28.90482
      9       2.00000          -1.053761          -28.67429
     10       2.00000          -1.013150          -27.56921
     11       2.00000          -0.624364          -16.98982
     12       2.00000          -0.610586          -16.61489
     13       2.00000          -0.600693          -16.34570
     14       2.00000          -0.597400          -16.25608
     15       2.00000          -0.578267          -15.73545
     16       2.00000          -0.562277          -15.30033
     17       2.00000          -0.500071          -13.60762
     18       2.00000          -0.485340          -13.20676
     19       2.00000          -0.472948          -12.86958
     20       2.00000          -0.462185          -12.57669
     21       2.00000          -0.439144          -11.94972
     22       2.00000          -0.418996          -11.40146
     23       2.00000          -0.403772          -10.98719
     24       2.00000          -0.395745          -10.76877
     25       2.00000          -0.369514          -10.05499
     26       1.00000          -0.094949           -2.58368
     27       0.00000          -0.067729           -1.84300
     28       0.00000          -0.052546           -1.42985
     29       0.00000          -0.034380           -0.93553
     30       0.00000          -0.027222           -0.74074
     31       0.00000          -0.014985           -0.40775
     32       0.00000           0.006462            0.17584
     33       0.00000           0.041609            1.13223
     34       0.00000           0.047335            1.28804
     35       0.00000           0.050849            1.38367
     36       0.00000           0.064540            1.75623
     37       0.00000           0.078258            2.12951
     38       0.00000           0.079824            2.17213
     39       0.00000           0.089885            2.44588
     40       0.00000           0.093599            2.54697
     41       0.00000           0.106338            2.89360
     42       0.00000           0.109633            2.98326
     43       0.00000           0.115021            3.12988
     44       0.00000           0.120787            3.28678
     45       0.00000           0.129069            3.51214
     46       0.00000           0.138085            3.75749
     47       0.00000           0.147104            4.00289
     48       0.00000           0.151506            4.12268
     49       0.00000           0.159331            4.33563
     50       0.00000           0.167460            4.55682
     51       0.00000           0.188030            5.11655
     52       0.00000           0.191082            5.19959
     53       0.00000           0.216736            5.89768
     54       0.00000           0.234097            6.37011
     55       0.00000           0.244939            6.66512
     56       0.00000           0.252288            6.86509
     57       0.00000           0.258861            7.04396
     58       0.00000           0.265789            7.23248
     59       0.00000           0.291098            7.92118
     60       0.00000           0.307810            8.37592
     61       0.00000           0.328922            8.95043
     62       0.00000           0.334344            9.09796
     63       0.00000           0.338043            9.19862
     64       0.00000           0.359934            9.79430
     65       0.00000           0.370380           10.07856
     66       0.00000           0.380310           10.34876
     67       0.00000           0.387292           10.53876
     68       0.00000           0.390212           10.61822
     69       0.00000           0.403232           10.97251
     70       0.00000           0.420620           11.44565
     71       0.00000           0.444859           12.10522
     72       0.00000           0.449350           12.22743
     73       0.00000           0.462890           12.59587
     74       0.00000           0.475030           12.92624
     75       0.00000           0.491001           13.36083
     76       0.00000           0.497947           13.54982
     77       0.00000           0.522941           14.22996
     78       0.00000           0.527914           14.36526
     79       0.00000           0.536808           14.60729
     80       0.00000           0.557127           15.16019
     81       0.00000           0.586584           15.96175
     82       0.00000           0.601006           16.35420
     83       0.00000           0.620389           16.88164
     84       0.00000           0.662449           18.02615
     85       0.00000           0.690003           18.77594
     86       0.00000           0.701902           19.09974
     87       0.00000           0.734053           19.97461
     88       0.00000           0.755874           20.56838
     89       0.00000           0.771610           20.99657
     90       0.00000           0.789248           21.47653

  Highest occupied state (VBM) at    -10.05498538 eV
  | Occupation number:      2.00000000

  Lowest unoccupied state (CBM) at    -2.58368149 eV
  | Occupation number:      1.00000000

  Overall HOMO-LUMO gap:      7.47130389 eV.

  Total energy components:
  | Sum of eigenvalues            :        -215.57740938 Ha       -5866.15977615 eV
  | XC energy correction          :         -46.15817036 Ha       -1256.02772150 eV
  | XC potential correction       :          59.00002729 Ha        1605.47242806 eV
  | Free-atom electrostatic energy:        -178.66874714 Ha       -4861.82397667 eV
  | Hartree energy correction     :          -2.00699366 Ha         -54.61307621 eV
  | van der Waals energy corr.    :           0.00000000 Ha           0.00000000 eV
  | Entropy correction            :          -0.00010367 Ha          -0.00282095 eV
  | ---------------------------
  | Total energy                  :        -383.41129326 Ha      -10433.15212248 eV
  | Total energy, T -> 0          :        -383.41139693 Ha      -10433.15494343 eV  <-- do not rely on this value for anything but (periodic) metals
  | Electronic free energy        :        -383.41150059 Ha      -10433.15776438 eV

  Derived energy quantities:
  | Kinetic energy                :         381.19584171 Ha       10372.86661850 eV
  | Electrostatic energy          :        -718.44896460 Ha      -19549.99101948 eV
  | Energy correction for multipole
  | error in Hartree potential    :           0.00035011 Ha           0.00952707 eV
  | Sum of eigenvalues per atom                           :        -366.63498601 eV
  | Total energy (T->0) per atom                          :        -652.07218396 eV  <-- do not rely on this value for anything but (periodic) metals
  | Electronic free energy per atom                       :        -652.07236027 eV

  Self-consistency convergence accuracy:
  | Change of charge density      : 0.6281E+00
  | Change of sum of eigenvalues  : 0.5607E+02 eV
  | Change of total energy        : 0.3271E+01 eV

  End self-consistency iteration #     1       :  max(cpu_time)    wall_clock(cpu1)
  | Time for this iteration                    :        2.170 s           2.169 s
  | Charge density update                      :        0.687 s           0.687 s
  | Density mixing                             :        0.003 s           0.003 s
  | Hartree multipole update                   :        0.005 s           0.005 s
  | Hartree multipole summation                :        0.364 s           0.365 s
  | Integration                                :        1.051 s           1.051 s
  | Solution of K.-S. eqns.                    :        0.057 s           0.057 s
  | Total energy evaluation                    :        0.000 s           0.000 s
------------------------------------------------------------

------------------------------------------------------------
          Begin self-consistency iteration #    2

  Date     :  20150727, Time     :  124806.034
------------------------------------------------------------
  Evaluating new KS density.
  Integration grid: deviation in total charge (<rho> - N_e) =  -5.613288E-13
  Pulay mixing of updated and previous charge densities.

  Evaluating partitioned Hartree potential by multipole expansion.
  | Analytical far-field extrapolation by fixed multipoles:
  | Hartree multipole sum: apparent total charge =  -0.336470E-05
  Summing up the Hartree potential.
  Time summed over all CPUs for potential: real work        2.895 s, elapsed        2.912 s
  | RMS charge density error from multipole expansion :   0.667118E-02

  Integrating Hamiltonian matrix: batch-based integration.
  Time summed over all CPUs for integration: real work        8.146 s, elapsed        8.344 s

  Updating Kohn-Sham eigenvalues, eigenvectors, occupation numbers, and Fermi level.
  Solving generalized eigenproblem
  Updating Kohn-Sham eigenvalues and eigenfunctions.
  Solving real generalised eigenvalue problem by standard LAPACK (fast)
  Determining occupation numbers for Kohn-Sham eigenstates.
  | Chemical potential (Fermi level) in eV                 : -.21426747E+01
  | Error in electron count due to remaining E_F inaccuracy: 0.39885961E-08
  | Maximum occupation number of highest empty state:  0.00E+00

  Highest occupied state (VBM) at     -2.14267469 eV
  | Occupation number:      1.00000000

  Lowest unoccupied state (CBM) at    -1.40497942 eV
  | Occupation number:      0.00000000

  Overall HOMO-LUMO gap:      0.73769526 eV.

  Total energy components:
  | Sum of eigenvalues            :        -210.66705998 Ha       -5732.54237072 eV
  | XC energy correction          :         -46.70353639 Ha       -1270.86788625 eV
  | XC potential correction       :          59.71062768 Ha        1624.80884848 eV
  | Free-atom electrostatic energy:        -178.66874714 Ha       -4861.82397667 eV
  | Hartree energy correction     :          -6.94691044 Ha        -189.03505097 eV
  | van der Waals energy corr.    :           0.00000000 Ha           0.00000000 eV
  | Entropy correction            :          -0.00010367 Ha          -0.00282095 eV
  | ---------------------------
  | Total energy                  :        -383.27562628 Ha      -10429.46043613 eV
  | Total energy, T -> 0          :        -383.27572995 Ha      -10429.46325708 eV  <-- do not rely on this value for anything but (periodic) metals
  | Electronic free energy        :        -383.27583361 Ha      -10429.46607802 eV

  Derived energy quantities:
  | Kinetic energy                :         383.93632996 Ha       10447.43909799 eV
  | Electrostatic energy          :        -720.50841984 Ha      -19606.03164786 eV
  | Energy correction for multipole
  | error in Hartree potential    :           0.00055895 Ha           0.01520990 eV
  | Sum of eigenvalues per atom                           :        -358.28389817 eV
  | Total energy (T->0) per atom                          :        -651.84145357 eV  <-- do not rely on this value for anything but (periodic) metals
  | Electronic free energy per atom                       :        -651.84162988 eV

  Self-consistency convergence accuracy:
  | Change of charge density      : 0.4769E+00
  | Change of sum of eigenvalues  : 0.1336E+03 eV
  | Change of total energy        : 0.3692E+01 eV

  End self-consistency iteration #     2       :  max(cpu_time)    wall_clock(cpu1)
  | Time for this iteration                    :        2.162 s           2.163 s
  | Charge density update                      :        0.685 s           0.685 s
  | Density mixing                             :        0.006 s           0.006 s
  | Hartree multipole update                   :        0.004 s           0.005 s
  | Hartree multipole summation                :        0.365 s           0.365 s
  | Integration                                :        1.045 s           1.044 s
  | Solution of K.-S. eqns.                    :        0.057 s           0.057 s
  | Total energy evaluation                    :        0.000 s           0.001 s
------------------------------------------------------------

------------------------------------------------------------
          Begin self-consistency iteration #    3

  Date     :  20150727, Time     :  124808.197
------------------------------------------------------------
  Evaluating new KS density.
  Integration grid: deviation in total charge (<rho> - N_e) =   3.988625E-09
  Pulay mixing of updated and previous charge densities.

  Evaluating partitioned Hartree potential by multipole expansion.
  | Analytical far-field extrapolation by fixed multipoles:
  | Hartree multipole sum: apparent total charge =  -0.307038E-05
  Summing up the Hartree potential.
  Time summed over all CPUs for potential: real work        2.894 s, elapsed        2.910 s
  | RMS charge density error from multipole expansion :   0.131919E-01

  Integrating Hamiltonian matrix: batch-based integration.
  Time summed over all CPUs for integration: real work        8.145 s, elapsed        8.337 s

  Updating Kohn-Sham eigenvalues, eigenvectors, occupation numbers, and Fermi level.
  Solving generalized eigenproblem
  Updating Kohn-Sham eigenvalues and eigenfunctions.
  Solving real generalised eigenvalue problem by standard LAPACK (fast)
  Determining occupation numbers for Kohn-Sham eigenstates.
  | Chemical potential (Fermi level) in eV                 : -.20876332E+01
  | Error in electron count due to remaining E_F inaccuracy: 0.00000000E+00
  | Maximum occupation number of highest empty state:  0.00E+00

  Highest occupied state (VBM) at     -2.08763320 eV
  | Occupation number:      1.00000000

  Lowest unoccupied state (CBM) at    -2.08763320 eV
  | Occupation number:      1.00000000

  Overall HOMO-LUMO gap:      0.00000000 eV.

  Total energy components:
  | Sum of eigenvalues            :        -210.85904200 Ha       -5737.76646715 eV
  | XC energy correction          :         -46.70603273 Ha       -1270.93581501 eV
  | XC potential correction       :          59.70607600 Ha        1624.68499089 eV
  | Free-atom electrostatic energy:        -178.66874714 Ha       -4861.82397667 eV
  | Hartree energy correction     :          -6.74476971 Ha        -183.53452185 eV
  | van der Waals energy corr.    :           0.00000000 Ha           0.00000000 eV
  | Entropy correction            :          -0.00010367 Ha          -0.00282095 eV
  | ---------------------------
  | Total energy                  :        -383.27251558 Ha      -10429.37578980 eV
  | Total energy, T -> 0          :        -383.27261925 Ha      -10429.37861075 eV  <-- do not rely on this value for anything but (periodic) metals
  | Electronic free energy        :        -383.27272292 Ha      -10429.38143169 eV

  Derived energy quantities:
  | Kinetic energy                :         382.33958128 Ha       10403.98935586 eV
  | Electrostatic energy          :        -718.90606414 Ha      -19562.42933065 eV
  | Energy correction for multipole
  | error in Hartree potential    :          -0.00294402 Ha          -0.08011077 eV
  | Sum of eigenvalues per atom                           :        -358.61040420 eV
  | Total energy (T->0) per atom                          :        -651.83616317 eV  <-- do not rely on this value for anything but (periodic) metals
  | Electronic free energy per atom                       :        -651.83633948 eV

  Self-consistency convergence accuracy:
  | Change of charge density      : 0.2340E+00
  | Change of sum of eigenvalues  : -.5224E+01 eV
  | Change of total energy        : 0.8465E-01 eV

  End self-consistency iteration #     3       :  max(cpu_time)    wall_clock(cpu1)
  | Time for this iteration                    :        2.159 s           2.159 s
  | Charge density update                      :        0.681 s           0.681 s
  | Density mixing                             :        0.007 s           0.007 s
  | Hartree multipole update                   :        0.005 s           0.005 s
  | Hartree multipole summation                :        0.365 s           0.365 s
  | Integration                                :        1.044 s           1.044 s
  | Solution of K.-S. eqns.                    :        0.057 s           0.057 s
  | Total energy evaluation                    :        0.000 s           0.000 s
------------------------------------------------------------

------------------------------------------------------------
          Begin self-consistency iteration #    4

  Date     :  20150727, Time     :  124810.356
------------------------------------------------------------
  Evaluating new KS density.
  Integration grid: deviation in total charge (<rho> - N_e) =   2.131628E-14
  Pulay mixing of updated and previous charge densities.

  Evaluating partitioned Hartree potential by multipole expansion.
  | Analytical far-field extrapolation by fixed multipoles:
  | Hartree multipole sum: apparent total charge =  -0.349810E-05
  Summing up the Hartree potential.
  Time summed over all CPUs for potential: real work        2.893 s, elapsed        2.909 s
  | RMS charge density error from multipole expansion :   0.173460E-01

  Integrating Hamiltonian matrix: batch-based integration.
  Time summed over all CPUs for integration: real work        8.144 s, elapsed        8.342 s

  Updating Kohn-Sham eigenvalues, eigenvectors, occupation numbers, and Fermi level.
  Solving generalized eigenproblem
  Updating Kohn-Sham eigenvalues and eigenfunctions.
  Solving real generalised eigenvalue problem by standard LAPACK (fast)
  Determining occupation numbers for Kohn-Sham eigenstates.
  | Chemical potential (Fermi level) in eV                 : -.19848286E+01
  | Error in electron count due to remaining E_F inaccuracy: 0.00000000E+00
  | Maximum occupation number of highest empty state:  0.00E+00

  Highest occupied state (VBM) at     -1.98482860 eV
  | Occupation number:      1.00000000

  Lowest unoccupied state (CBM) at    -1.98482860 eV
  | Occupation number:      1.00000000

  Overall HOMO-LUMO gap:      0.00000000 eV.

  Total energy components:
  | Sum of eigenvalues            :        -209.70598596 Ha       -5706.39021585 eV
  | XC energy correction          :         -46.86203912 Ha       -1275.18096487 eV
  | XC potential correction       :          59.90618184 Ha        1630.13014802 eV
  | Free-atom electrostatic energy:        -178.66874714 Ha       -4861.82397667 eV
  | Hartree energy correction     :          -7.93727207 Ha        -215.98416218 eV
  | van der Waals energy corr.    :           0.00000000 Ha           0.00000000 eV
  | Entropy correction            :          -0.00010367 Ha          -0.00282095 eV
  | ---------------------------
  | Total energy                  :        -383.26786245 Ha      -10429.24917155 eV
  | Total energy, T -> 0          :        -383.26796612 Ha      -10429.25199250 eV  <-- do not rely on this value for anything but (periodic) metals
  | Electronic free energy        :        -383.26806978 Ha      -10429.25481344 eV

  Derived energy quantities:
  | Kinetic energy                :         382.31441120 Ha       10403.30444305 eV
  | Electrostatic energy          :        -718.72023453 Ha      -19557.37264973 eV
  | Energy correction for multipole
  | error in Hartree potential    :          -0.00454442 Ha          -0.12366009 eV
  | Sum of eigenvalues per atom                           :        -356.64938849 eV
  | Total energy (T->0) per atom                          :        -651.82824953 eV  <-- do not rely on this value for anything but (periodic) metals
  | Electronic free energy per atom                       :        -651.82842584 eV

  Self-consistency convergence accuracy:
  | Change of charge density      : 0.1076E+00
  | Change of sum of eigenvalues  : 0.3138E+02 eV
  | Change of total energy        : 0.1266E+00 eV

  End self-consistency iteration #     4       :  max(cpu_time)    wall_clock(cpu1)
  | Time for this iteration                    :        2.162 s           2.162 s
  | Charge density update                      :        0.682 s           0.682 s
  | Density mixing                             :        0.009 s           0.009 s
  | Hartree multipole update                   :        0.005 s           0.005 s
  | Hartree multipole summation                :        0.364 s           0.364 s
  | Integration                                :        1.045 s           1.044 s
  | Solution of K.-S. eqns.                    :        0.057 s           0.057 s
  | Total energy evaluation                    :        0.000 s           0.001 s
------------------------------------------------------------

------------------------------------------------------------
          Begin self-consistency iteration #    5

  Date     :  20150727, Time     :  124812.518
------------------------------------------------------------
  Evaluating new KS density.
  Integration grid: deviation in total charge (<rho> - N_e) =   2.842171E-14
  Pulay mixing of updated and previous charge densities.

  Evaluating partitioned Hartree potential by multipole expansion.
  | Analytical far-field extrapolation by fixed multipoles:
  | Hartree multipole sum: apparent total charge =  -0.335288E-05
  Summing up the Hartree potential.
  Time summed over all CPUs for potential: real work        2.893 s, elapsed        2.908 s
  | RMS charge density error from multipole expansion :   0.175263E-01

  Integrating Hamiltonian matrix: batch-based integration.
  Time summed over all CPUs for integration: real work        8.140 s, elapsed        8.347 s

  Updating Kohn-Sham eigenvalues, eigenvectors, occupation numbers, and Fermi level.
  Solving generalized eigenproblem
  Updating Kohn-Sham eigenvalues and eigenfunctions.
  Solving real generalised eigenvalue problem by standard LAPACK (fast)
  Determining occupation numbers for Kohn-Sham eigenstates.
  | Chemical potential (Fermi level) in eV                 : -.20144159E+01
  | Error in electron count due to remaining E_F inaccuracy: 0.12363444E-11
  | Maximum occupation number of highest empty state:  0.00E+00

  Highest occupied state (VBM) at     -2.01441591 eV
  | Occupation number:      1.00000000

  Lowest unoccupied state (CBM) at    -1.27481384 eV
  | Occupation number:      0.00000000

  Overall HOMO-LUMO gap:      0.73960207 eV.

  Total energy components:
  | Sum of eigenvalues            :        -209.82154619 Ha       -5709.53476989 eV
  | XC energy correction          :         -46.84989185 Ha       -1274.85042094 eV
  | XC potential correction       :          59.88980739 Ha        1629.68457639 eV
  | Free-atom electrostatic energy:        -178.66874714 Ha       -4861.82397667 eV
  | Hartree energy correction     :          -7.81715907 Ha        -212.71572127 eV
  | van der Waals energy corr.    :           0.00000000 Ha           0.00000000 eV
  | Entropy correction            :          -0.00010367 Ha          -0.00282095 eV
  | ---------------------------
  | Total energy                  :        -383.26753688 Ha      -10429.24031238 eV
  | Total energy, T -> 0          :        -383.26764055 Ha      -10429.24313333 eV  <-- do not rely on this value for anything but (periodic) metals
  | Electronic free energy        :        -383.26774421 Ha      -10429.24595428 eV

  Derived energy quantities:
  | Kinetic energy                :         382.24929813 Ha       10401.53262617 eV
  | Electrostatic energy          :        -718.66694315 Ha      -19555.92251761 eV
  | Energy correction for multipole
  | error in Hartree potential    :          -0.00477551 Ha          -0.12994830 eV
  | Sum of eigenvalues per atom                           :        -356.84592312 eV
  | Total energy (T->0) per atom                          :        -651.82769583 eV  <-- do not rely on this value for anything but (periodic) metals
  | Electronic free energy per atom                       :        -651.82787214 eV

  Self-consistency convergence accuracy:
  | Change of charge density      : 0.2743E-01
  | Change of sum of eigenvalues  : -.3145E+01 eV
  | Change of total energy        : 0.8859E-02 eV

  End self-consistency iteration #     5       :  max(cpu_time)    wall_clock(cpu1)
  | Time for this iteration                    :        2.163 s           2.162 s
  | Charge density update                      :        0.681 s           0.680 s
  | Density mixing                             :        0.010 s           0.010 s
  | Hartree multipole update                   :        0.005 s           0.005 s
  | Hartree multipole summation                :        0.364 s           0.365 s
  | Integration                                :        1.045 s           1.044 s
  | Solution of K.-S. eqns.                    :        0.057 s           0.058 s
  | Total energy evaluation                    :        0.000 s           0.000 s
------------------------------------------------------------

------------------------------------------------------------
          Begin self-consistency iteration #    6

  Date     :  20150727, Time     :  124814.680
------------------------------------------------------------
  Evaluating new KS density.
  Integration grid: deviation in total charge (<rho> - N_e) =   1.271871E-12
  Pulay mixing of updated and previous charge densities.

  Evaluating partitioned Hartree potential by multipole expansion.
  | Analytical far-field extrapolation by fixed multipoles:
  | Hartree multipole sum: apparent total charge =  -0.330830E-05
  Summing up the Hartree potential.
  Time summed over all CPUs for potential: real work        2.893 s, elapsed        2.908 s
  | RMS charge density error from multipole expansion :   0.178288E-01

  Integrating Hamiltonian matrix: batch-based integration.
  Time summed over all CPUs for integration: real work        8.142 s, elapsed        8.338 s

  Updating Kohn-Sham eigenvalues, eigenvectors, occupation numbers, and Fermi level.
  Solving generalized eigenproblem
  Updating Kohn-Sham eigenvalues and eigenfunctions.
  Solving real generalised eigenvalue problem by standard LAPACK (fast)
  Determining occupation numbers for Kohn-Sham eigenstates.
  | Chemical potential (Fermi level) in eV                 : -.20105913E+01
  | Error in electron count due to remaining E_F inaccuracy: 0.17344348E-10
  | Maximum occupation number of highest empty state:  0.00E+00

  Highest occupied state (VBM) at     -2.01059127 eV
  | Occupation number:      1.00000000

  Lowest unoccupied state (CBM) at    -1.27571109 eV
  | Occupation number:      0.00000000

  Overall HOMO-LUMO gap:      0.73488018 eV.

  Total energy components:
  | Sum of eigenvalues            :        -209.80252436 Ha       -5709.01715948 eV
  | XC energy correction          :         -46.85442122 Ha       -1274.97367131 eV
  | XC potential correction       :          59.89534637 Ha        1629.83529986 eV
  | Free-atom electrostatic energy:        -178.66874714 Ha       -4861.82397667 eV
  | Hartree energy correction     :          -7.83720110 Ha        -213.26109245 eV
  | van der Waals energy corr.    :           0.00000000 Ha           0.00000000 eV
  | Entropy correction            :          -0.00010367 Ha          -0.00282095 eV
  | ---------------------------
  | Total energy                  :        -383.26754745 Ha      -10429.24060005 eV
  | Total energy, T -> 0          :        -383.26765112 Ha      -10429.24342099 eV  <-- do not rely on this value for anything but (periodic) metals
  | Electronic free energy        :        -383.26775479 Ha      -10429.24624194 eV

  Derived energy quantities:
  | Kinetic energy                :         382.24536189 Ha       10401.42551567 eV
  | Electrostatic energy          :        -718.65848812 Ha      -19555.69244441 eV
  | Energy correction for multipole
  | error in Hartree potential    :          -0.00494799 Ha          -0.13464172 eV
  | Sum of eigenvalues per atom                           :        -356.81357247 eV
  | Total energy (T->0) per atom                          :        -651.82771381 eV  <-- do not rely on this value for anything but (periodic) metals
  | Electronic free energy per atom                       :        -651.82789012 eV

  Self-consistency convergence accuracy:
  | Change of charge density      : 0.1103E-01
  | Change of sum of eigenvalues  : 0.5176E+00 eV
  | Change of total energy        : -.2877E-03 eV

  End self-consistency iteration #     6       :  max(cpu_time)    wall_clock(cpu1)
  | Time for this iteration                    :        2.161 s           2.161 s
  | Charge density update                      :        0.678 s           0.678 s
  | Density mixing                             :        0.012 s           0.012 s
  | Hartree multipole update                   :        0.005 s           0.005 s
  | Hartree multipole summation                :        0.364 s           0.364 s
  | Integration                                :        1.044 s           1.044 s
  | Solution of K.-S. eqns.                    :        0.057 s           0.057 s
  | Total energy evaluation                    :        0.000 s           0.000 s
------------------------------------------------------------

------------------------------------------------------------
          Begin self-consistency iteration #    7

  Date     :  20150727, Time     :  124816.841
------------------------------------------------------------
  Evaluating new KS density.
  Integration grid: deviation in total charge (<rho> - N_e) =   1.736566E-11
  Pulay mixing of updated and previous charge densities.

  Evaluating partitioned Hartree potential by multipole expansion.
  | Analytical far-field extrapolation by fixed multipoles:
  | Hartree multipole sum: apparent total charge =  -0.326069E-05
  Summing up the Hartree potential.
  Time summed over all CPUs for potential: real work        2.893 s, elapsed        2.908 s
  | RMS charge density error from multipole expansion :   0.179426E-01

  Integrating Hamiltonian matrix: batch-based integration.
  Time summed over all CPUs for integration: real work        8.146 s, elapsed        8.339 s

  Updating Kohn-Sham eigenvalues, eigenvectors, occupation numbers, and Fermi level.
  Solving generalized eigenproblem
  Updating Kohn-Sham eigenvalues and eigenfunctions.
  Solving real generalised eigenvalue problem by standard LAPACK (fast)
  Determining occupation numbers for Kohn-Sham eigenstates.
  | Chemical potential (Fermi level) in eV                 : -.20101460E+01
  | Error in electron count due to remaining E_F inaccuracy: -.43165471E-10
  | Maximum occupation number of highest empty state:  0.00E+00

  Highest occupied state (VBM) at     -5.76935940 eV
  | Occupation number:      2.00000000

  Lowest unoccupied state (CBM) at    -2.01014603 eV
  | Occupation number:      1.00000000

  Overall HOMO-LUMO gap:      3.75921336 eV.

  Total energy components:
  | Sum of eigenvalues            :        -209.82163763 Ha       -5709.53725807 eV
  | XC energy correction          :         -46.85353813 Ha       -1274.94964120 eV
  | XC potential correction       :          59.89395167 Ha        1629.79734805 eV
  | Free-atom electrostatic energy:        -178.66874714 Ha       -4861.82397667 eV
  | Hartree energy correction     :          -7.81756694 Ha        -212.72681992 eV
  | van der Waals energy corr.    :           0.00000000 Ha           0.00000000 eV
  | Entropy correction            :          -0.00010367 Ha          -0.00282095 eV
  | ---------------------------
  | Total energy                  :        -383.26753818 Ha      -10429.24034780 eV
  | Total energy, T -> 0          :        -383.26764185 Ha      -10429.24316875 eV  <-- do not rely on this value for anything but (periodic) metals
  | Electronic free energy        :        -383.26774552 Ha      -10429.24598970 eV

  Derived energy quantities:
  | Kinetic energy                :         382.27253079 Ha       10402.16481911 eV
  | Electrostatic energy          :        -718.68653084 Ha      -19556.45552571 eV
  | Energy correction for multipole
  | error in Hartree potential    :          -0.00504560 Ha          -0.13729781 eV
  | Sum of eigenvalues per atom                           :        -356.84607863 eV
  | Total energy (T->0) per atom                          :        -651.82769805 eV  <-- do not rely on this value for anything but (periodic) metals
  | Electronic free energy per atom                       :        -651.82787436 eV

  Self-consistency convergence accuracy:
  | Change of charge density      : 0.7146E-02
  | Change of sum of eigenvalues  : -.5201E+00 eV
  | Change of total energy        : 0.2522E-03 eV

  End self-consistency iteration #     7       :  max(cpu_time)    wall_clock(cpu1)
  | Time for this iteration                    :        2.163 s           2.162 s
  | Charge density update                      :        0.679 s           0.679 s
  | Density mixing                             :        0.013 s           0.013 s
  | Hartree multipole update                   :        0.005 s           0.005 s
  | Hartree multipole summation                :        0.364 s           0.364 s
  | Integration                                :        1.044 s           1.044 s
  | Solution of K.-S. eqns.                    :        0.057 s           0.057 s
  | Total energy evaluation                    :        0.000 s           0.000 s
------------------------------------------------------------

------------------------------------------------------------
          Begin self-consistency iteration #    8

  Date     :  20150727, Time     :  124819.003
------------------------------------------------------------
  Evaluating new KS density.
  Integration grid: deviation in total charge (<rho> - N_e) =  -4.315837E-11
  Pulay mixing of updated and previous charge densities.

  Evaluating partitioned Hartree potential by multipole expansion.
  | Analytical far-field extrapolation by fixed multipoles:
  | Hartree multipole sum: apparent total charge =  -0.321437E-05
  Summing up the Hartree potential.
  Time summed over all CPUs for potential: real work        2.893 s, elapsed        2.908 s
  | RMS charge density error from multipole expansion :   0.179496E-01

  Integrating Hamiltonian matrix: batch-based integration.
  Time summed over all CPUs for integration: real work        8.146 s, elapsed        8.364 s

  Updating Kohn-Sham eigenvalues, eigenvectors, occupation numbers, and Fermi level.
  Solving generalized eigenproblem
  Updating Kohn-Sham eigenvalues and eigenfunctions.
  Solving real generalised eigenvalue problem by standard LAPACK (fast)
  Determining occupation numbers for Kohn-Sham eigenstates.
  | Chemical potential (Fermi level) in eV                 : -.20198545E+01
  | Error in electron count due to remaining E_F inaccuracy: 0.24471802E-09
  | Maximum occupation number of highest empty state:  0.00E+00

  Highest occupied state (VBM) at     -2.01985454 eV
  | Occupation number:      1.00000000

  Lowest unoccupied state (CBM) at    -1.28766036 eV
  | Occupation number:      0.00000000

  Overall HOMO-LUMO gap:      0.73219418 eV.

  Total energy components:
  | Sum of eigenvalues            :        -209.87602096 Ha       -5711.01710381 eV
  | XC energy correction          :         -46.84821383 Ha       -1274.80475954 eV
  | XC potential correction       :          59.88684256 Ha        1629.60389931 eV
  | Free-atom electrostatic energy:        -178.66874714 Ha       -4861.82397667 eV
  | Hartree energy correction     :          -7.76138261 Ha        -211.19796652 eV
  | van der Waals energy corr.    :           0.00000000 Ha           0.00000000 eV
  | Entropy correction            :          -0.00010367 Ha          -0.00282095 eV
  | ---------------------------
  | Total energy                  :        -383.26752199 Ha      -10429.23990723 eV
  | Total energy, T -> 0          :        -383.26762566 Ha      -10429.24272818 eV  <-- do not rely on this value for anything but (periodic) metals
  | Electronic free energy        :        -383.26772933 Ha      -10429.24554912 eV

  Derived energy quantities:
  | Kinetic energy                :         382.28795798 Ha       10402.58461430 eV
  | Electrostatic energy          :        -718.70726614 Ha      -19557.01976199 eV
  | Energy correction for multipole
  | error in Hartree potential    :          -0.00511182 Ha          -0.13909965 eV
  | Sum of eigenvalues per atom                           :        -356.93856899 eV
  | Total energy (T->0) per atom                          :        -651.82767051 eV  <-- do not rely on this value for anything but (periodic) metals
  | Electronic free energy per atom                       :        -651.82784682 eV

  Self-consistency convergence accuracy:
  | Change of charge density      : 0.4535E-02
  | Change of sum of eigenvalues  : -.1480E+01 eV
  | Change of total energy        : 0.4406E-03 eV

  End self-consistency iteration #     8       :  max(cpu_time)    wall_clock(cpu1)
  | Time for this iteration                    :        2.166 s           2.166 s
  | Charge density update                      :        0.677 s           0.678 s
  | Density mixing                             :        0.015 s           0.014 s
  | Hartree multipole update                   :        0.005 s           0.005 s
  | Hartree multipole summation                :        0.364 s           0.365 s
  | Integration                                :        1.047 s           1.047 s
  | Solution of K.-S. eqns.                    :        0.057 s           0.057 s
  | Total energy evaluation                    :        0.000 s           0.000 s
------------------------------------------------------------

------------------------------------------------------------
          Begin self-consistency iteration #    9

  Date     :  20150727, Time     :  124821.169
------------------------------------------------------------
  Evaluating new KS density.
  Integration grid: deviation in total charge (<rho> - N_e) =   2.447464E-10
  Pulay mixing of updated and previous charge densities.

  Evaluating partitioned Hartree potential by multipole expansion.
  | Analytical far-field extrapolation by fixed multipoles:
  | Hartree multipole sum: apparent total charge =  -0.319158E-05
  Summing up the Hartree potential.
  Time summed over all CPUs for potential: real work        2.893 s, elapsed        2.908 s
  | RMS charge density error from multipole expansion :   0.179531E-01

  Integrating Hamiltonian matrix: batch-based integration.
  Time summed over all CPUs for integration: real work        8.140 s, elapsed        8.371 s

  Updating Kohn-Sham eigenvalues, eigenvectors, occupation numbers, and Fermi level.
  Solving generalized eigenproblem
  Updating Kohn-Sham eigenvalues and eigenfunctions.
  Solving real generalised eigenvalue problem by standard LAPACK (fast)
  Determining occupation numbers for Kohn-Sham eigenstates.
  | Chemical potential (Fermi level) in eV                 : -.20221512E+01
  | Error in electron count due to remaining E_F inaccuracy: 0.24726887E-11
  | Maximum occupation number of highest empty state:  0.00E+00

  Highest occupied state (VBM) at     -2.02215122 eV
  | Occupation number:      1.00000000

  Lowest unoccupied state (CBM) at    -1.28772118 eV
  | Occupation number:      0.00000000

  Overall HOMO-LUMO gap:      0.73443004 eV.

  Total energy components:
  | Sum of eigenvalues            :        -209.88202275 Ha       -5711.18042057 eV
  | XC energy correction          :         -46.84796768 Ha       -1274.79806146 eV
  | XC potential correction       :          59.88649796 Ha        1629.59452233 eV
  | Free-atom electrostatic energy:        -178.66874714 Ha       -4861.82397667 eV
  | Hartree energy correction     :          -7.75528105 Ha        -211.03193454 eV
[...]
   Van der Waals               : -.130728E-02 0.384147E-02 0.375982E-03
   ----------------------------------------------------------------
   Total forces(   7)            : -.338380E+00 0.337473E+00 -.273309E+01
  atom #    8
   Hellmann-Feynman + Multipole  : 0.610173E+01 -.696765E+01 -.101392E+02
   Pulay + GGA                   : -.655509E+01 0.758279E+01 0.120986E+02
   Van der Waals               : 0.109546E-02 -.382808E-02 -.553355E-02
   ----------------------------------------------------------------
   Total forces(   8)            : -.452259E+00 0.611309E+00 0.195386E+01
  atom #    9
   Hellmann-Feynman + Multipole  : -.352907E+00 0.213346E+00 -.233485E+01
   Pulay + GGA                   : 0.136527E-01 0.585344E-02 0.132882E+00
   Van der Waals               : -.540449E-03 0.919091E-03 -.329015E-02
   ----------------------------------------------------------------
   Total forces(   9)            : -.339795E+00 0.220118E+00 -.220525E+01
  atom #   10
   Hellmann-Feynman + Multipole  : 0.122632E+01 -.133325E+01 0.398682E+00
   Pulay + GGA                   : -.496888E-01 0.666144E-01 0.951232E-03
   Van der Waals               : -.407502E-03 -.332931E-02 -.314592E-02
   ----------------------------------------------------------------
   Total forces(  10)            : 0.117622E+01 -.126997E+01 0.396487E+00
  atom #   11
   Hellmann-Feynman + Multipole  : -.106636E+02 -.300046E+01 0.372181E+00
   Pulay + GGA                   : 0.113173E+02 0.420164E+01 -.943142E+00
   Van der Waals               : 0.332705E-02 -.374001E-02 0.443725E-02
   ----------------------------------------------------------------
   Total forces(  11)            : 0.656962E+00 0.119744E+01 -.566524E+00
  atom #   12
   Hellmann-Feynman + Multipole  : -.630857E-01 -.234442E+00 0.104190E+00
   Pulay + GGA                   : 0.122537E+00 -.550702E-01 0.146937E-01
   Van der Waals               : 0.464522E-02 0.133388E-02 -.471561E-02
   ----------------------------------------------------------------
   Total forces(  12)            : 0.640964E-01 -.288178E+00 0.114168E+00
  atom #   13
   Hellmann-Feynman + Multipole  : -.605077E+00 -.989344E+00 0.453287E+00
   Pulay + GGA                   : 0.439152E-01 0.107190E+00 -.727584E-01
   Van der Waals               : -.173703E-02 -.440307E-02 0.203191E-02
   ----------------------------------------------------------------
   Total forces(  13)            : -.562898E+00 -.886557E+00 0.382560E+00
  atom #   14
   Hellmann-Feynman + Multipole  : -.125322E+01 -.125905E+02 -.295335E+00
   Pulay + GGA                   : 0.177288E+01 0.130640E+02 -.120424E+01
   Van der Waals               : -.435496E-02 -.220775E-02 -.361814E-02
   ----------------------------------------------------------------
   Total forces(  14)            : 0.515309E+00 0.471221E+00 -.150319E+01
  atom #   15
   Hellmann-Feynman + Multipole  : -.300584E+00 0.481118E+00 0.370797E+00
   Pulay + GGA                   : -.799321E-01 0.871693E-01 0.688629E-01
   Van der Waals               : 0.421198E-02 -.169634E-02 -.420027E-02
   ----------------------------------------------------------------
   Total forces(  15)            : -.376304E+00 0.566591E+00 0.435459E+00
  atom #   16
   Hellmann-Feynman + Multipole  : -.647005E+00 -.739833E+00 0.101811E+01
   Pulay + GGA                   : 0.268804E-01 0.669783E-01 -.725345E-01
   Van der Waals               : -.181035E-02 -.686199E-03 -.164656E-02
   ----------------------------------------------------------------
   Total forces(  16)            : -.621935E+00 -.673541E+00 0.943927E+00
  Timings for vdw_correction_hirshfeld (Tkatchenko-Scheffler 2009):
  | CPU time:        5.726 s, Wall clock time:        5.726 s.
  Removing unitary transformations (pure translations, rotations) from forces on atoms.
  Atomic forces before filtering:
  | Net force on center of mass :  0.118091E-01 0.867145E-03 0.492162E-02 eV/A
  | Net torque on center of mass:  -.268634E-01 0.395610E-02 -.150538E-02 eV
  Atomic forces after filtering:
  | Net force on center of mass :  0.446015E-15 -.267609E-15 0.000000E+00 eV/A
  | Net torque on center of mass:  -.283225E-15 0.113290E-14 -.944085E-15 eV
 
  Energy and forces in a compact form:
  | Total energy uncorrected      :         -0.104293286314921E+05 eV
  | Total energy corrected        :         -0.104293314524400E+05 eV  <-- do not rely on this value for anything but (periodic) metals
  | Electronic free energy        :         -0.104293342733880E+05 eV
  Total atomic forces (unitary forces cleaned) [eV/Ang]:
  |   1         -0.330004106031681E+00          0.587977016534937E+00         -0.387311107068258E-01
  |   2         -0.480540648769182E-01         -0.140286129743932E+00          0.109093989096143E-01
  |   3          0.482240085996944E-01         -0.586228365992997E-01          0.826228073543937E-01
  |   4          0.147106904303812E+00          0.227358583937324E-01         -0.123440599093518E+00
  |   5          0.390519963389918E+00         -0.946262011454319E+00          0.269136478629352E+01
  |   6          0.793524416959459E-01          0.251425623054813E+00          0.159429635055576E+00
  |   7         -0.338867716213094E+00          0.338256890607354E+00         -0.273354418800160E+01
  |   8         -0.453198210292082E+00          0.610551246343838E+00          0.195345105559569E+01
  |   9         -0.340817791358035E+00          0.219070554137029E+00         -0.220567244064104E+01
  |  10          0.117528543655234E+01         -0.127069101186597E+01          0.396224524577803E+00
  |  11          0.656256608854762E+00          0.119757122548227E+01         -0.566312999720020E+00
  |  12          0.633673533677350E-01         -0.288135506013162E+00          0.114340326158756E+00
  |  13         -0.563578584644801E+00         -0.886303662241042E+00          0.383046177057870E+00
  |  14          0.514417946812083E+00          0.470673068101864E+00         -0.150326476055924E+01
  |  15         -0.377242627878709E+00          0.565901337310429E+00          0.435547018521911E+00
  |  16         -0.622767562280973E+00         -0.673861662048539E+00          0.944030369197110E+00
 
  ------------------------------------ 
  Start decomposition of the XC Energy 
  ------------------------------------ 
  Hartree-Fock part   :          0.000000000 Ha              0.000000000 eV
  ------------------------------------ 
  X Energy            :        -45.189366490 Ha          -1229.665226874 eV
  C Energy GGA        :         -1.658771296 Ha            -45.137463536 eV
  Total XC Energy     :        -46.848137786 Ha          -1274.802690409 eV
  LDA X and C from self-consistent density 
  X Energy LDA        :        -40.735164421 Ha          -1108.460221738 eV
  C Energy LDA        :         -3.338112480 Ha            -90.834662184 eV
  ------------------------------------ 
  End decomposition of the XC Energy 
  ------------------------------------ 
  Performing Hirshfeld analysis of fragment charges and moments.
  ----------------------------------------------------------------------
  | Atom     1: O
  |   Hirshfeld charge        :     -0.12398384
  |   Free atom volume        :     23.95238533
  |   Hirshfeld volume        :     22.94668810
  |   Hirshfeld dipole vector :     -0.01207531       0.03457307       0.02594659
  |   Hirshfeld dipole moment :      0.04488136
  |   Hirshfeld second moments:      0.05677122      -0.00835447      -0.00943809
  |                                 -0.00835447       0.01526502      -0.02943875
  |                                 -0.00943809      -0.02943875       0.04610593
  ----------------------------------------------------------------------
  | Atom     2: H
  |   Hirshfeld charge        :      0.10633840
  |   Free atom volume        :     10.44207651
  |   Hirshfeld volume        :     10.40592169
  |   Hirshfeld dipole vector :     -0.01589364       0.01288960       0.00665538
  |   Hirshfeld dipole moment :      0.02151845
  |   Hirshfeld second moments:      0.02391536       0.01114055       0.00210598
  |                                  0.01114055       0.01836816       0.00810024
  |                                  0.00210598       0.00810024       0.04919951
  ----------------------------------------------------------------------
  | Atom     3: H
  |   Hirshfeld charge        :      0.05755712
  |   Free atom volume        :     10.44207651
  |   Hirshfeld volume        :     15.53905870
  |   Hirshfeld dipole vector :     -0.03740909       0.00066189       0.00662589
  |   Hirshfeld dipole moment :      0.03799711
  |   Hirshfeld second moments:     -0.10352611      -0.02636227      -0.00684945
  |                                 -0.02636227      -0.04646956      -0.00107942
  |                                 -0.00684945      -0.00107942      -0.04607848
  ----------------------------------------------------------------------
  | Atom     4: H
  |   Hirshfeld charge        :      0.13466597
  |   Free atom volume        :     10.44207651
  |   Hirshfeld volume        :     11.17606553
  |   Hirshfeld dipole vector :     -0.03515102       0.00833006       0.04927455
  |   Hirshfeld dipole moment :      0.06109800
  |   Hirshfeld second moments:      0.02879438      -0.00207903      -0.00609344
  |                                 -0.00207903       0.03301663       0.00023935
  |                                 -0.00609344       0.00023935       0.01875833
  ----------------------------------------------------------------------
  | Atom     5: O
  |   Hirshfeld charge        :     -0.21560703
  |   Free atom volume        :     23.95238533
  |   Hirshfeld volume        :     22.05119004
  |   Hirshfeld dipole vector :      0.02472417       0.00579017      -0.01183722
  |   Hirshfeld dipole moment :      0.02801661
  |   Hirshfeld second moments:     -0.00299873      -0.00134015       0.03347413
  |                                 -0.00134015       0.05730224       0.00421897
  |                                  0.03347413       0.00421897       0.06859603
  ----------------------------------------------------------------------
  | Atom     6: H
  |   Hirshfeld charge        :      0.09715992
  |   Free atom volume        :     10.44207651
  |   Hirshfeld volume        :      9.92758593
  |   Hirshfeld dipole vector :      0.00676404       0.03208403       0.02129954
  |   Hirshfeld dipole moment :      0.03909997
  |   Hirshfeld second moments:      0.01939828      -0.01402482       0.00940861
  |                                 -0.01402482       0.03876521      -0.01288306
  |                                  0.00940861      -0.01288306       0.05850135
  ----------------------------------------------------------------------
  | Atom     7: H
  |   Hirshfeld charge        :      0.11873253
  |   Free atom volume        :     10.44207651
  |   Hirshfeld volume        :     10.68476211
  |   Hirshfeld dipole vector :     -0.02173670       0.00863101      -0.07030707
  |   Hirshfeld dipole moment :      0.07409495
  |   Hirshfeld second moments:      0.02345636       0.00215780       0.01622026
  |                                  0.00215780       0.05522442       0.00594342
  |                                  0.01622026       0.00594342       0.03771153
  ----------------------------------------------------------------------
  | Atom     8: O
  |   Hirshfeld charge        :     -0.36615909
  |   Free atom volume        :     23.95238533
  |   Hirshfeld volume        :     24.49509545
  |   Hirshfeld dipole vector :     -0.04652906       0.04608673       0.05387050
  |   Hirshfeld dipole moment :      0.08479959
  |   Hirshfeld second moments:     -0.07816317      -0.03692318       0.03886118
  |                                 -0.03692318      -0.07369801      -0.02848697
  |                                  0.03886118      -0.02848697      -0.00211048
  ----------------------------------------------------------------------
  | Atom     9: H
  |   Hirshfeld charge        :      0.10990444
  |   Free atom volume        :     10.44207651
  |   Hirshfeld volume        :      8.03787710
  |   Hirshfeld dipole vector :      0.01237401      -0.00578912       0.12176517
  |   Hirshfeld dipole moment :      0.12252912
  |   Hirshfeld second moments:      0.07849245      -0.01758494       0.01183321
  |                                 -0.01758494       0.07491996      -0.00956052
  |                                  0.01183321      -0.00956052       0.07819917
  ----------------------------------------------------------------------
  | Atom    10: H
  |   Hirshfeld charge        :      0.06412901
  |   Free atom volume        :     10.44207651
  |   Hirshfeld volume        :      9.03237924
  |   Hirshfeld dipole vector :     -0.03415238       0.03600076       0.00772733
  |   Hirshfeld dipole moment :      0.05022103
  |   Hirshfeld second moments:      0.02304439       0.01494006      -0.01184745
  |                                  0.01494006       0.02625790       0.00631047
  |                                 -0.01184745       0.00631047       0.08116234
  ----------------------------------------------------------------------
  | Atom    11: O
  |   Hirshfeld charge        :     -0.20479378
  |   Free atom volume        :     23.95238533
  |   Hirshfeld volume        :     21.80223195
  |   Hirshfeld dipole vector :     -0.00468863      -0.00998280       0.01406055
  |   Hirshfeld dipole moment :      0.01787005
  |   Hirshfeld second moments:      0.04337839       0.00486758       0.01057421
  |                                  0.00486758       0.05930234      -0.02408674
  |                                  0.01057421      -0.02408674       0.03334774
  ----------------------------------------------------------------------
  | Atom    12: H
  |   Hirshfeld charge        :      0.10130172
  |   Free atom volume        :     10.44207651
  |   Hirshfeld volume        :     11.24986655
  |   Hirshfeld dipole vector :      0.02360886      -0.01349170       0.04319146
  |   Hirshfeld dipole moment :      0.05103828
  |   Hirshfeld second moments:      0.00277682       0.03104106       0.00886946
  |                                  0.03104106       0.03026044      -0.01066464
  |                                  0.00886946      -0.01066464       0.02943674
  ----------------------------------------------------------------------
  | Atom    13: H
  |   Hirshfeld charge        :      0.10296014
  |   Free atom volume        :     10.44207651
  |   Hirshfeld volume        :     11.32420946
  |   Hirshfeld dipole vector :      0.00750065       0.05192362      -0.01516313
  |   Hirshfeld dipole moment :      0.05460992
  |   Hirshfeld second moments:      0.02764911      -0.00424842       0.00995154
  |                                 -0.00424842       0.02284211      -0.00469981
  |                                  0.00995154      -0.00469981       0.01619066
  ----------------------------------------------------------------------
  | Atom    14: O
  |   Hirshfeld charge        :     -0.23063286
  |   Free atom volume        :     23.95238533
  |   Hirshfeld volume        :     21.39870501
  |   Hirshfeld dipole vector :      0.02732123       0.01893928       0.01780520
  |   Hirshfeld dipole moment :      0.03771169
  |   Hirshfeld second moments:      0.03039035      -0.03006656      -0.03577708
  |                                 -0.03006656       0.04285051      -0.00493379
  |                                 -0.03577708      -0.00493379       0.06006751
  ----------------------------------------------------------------------
  | Atom    15: H
  |   Hirshfeld charge        :      0.14315784
  |   Free atom volume        :     10.44207651
  |   Hirshfeld volume        :      7.06599165
  |   Hirshfeld dipole vector :     -0.05394582       0.07529158       0.06397639
  |   Hirshfeld dipole moment :      0.11256977
  |   Hirshfeld second moments:      0.09980934      -0.00435371      -0.00894384
  |                                 -0.00435371       0.09994005      -0.00993099
  |                                 -0.00894384      -0.00993099       0.10948725
  ----------------------------------------------------------------------
  | Atom    16: H
  |   Hirshfeld charge        :      0.10518989
  |   Free atom volume        :     10.44207651
  |   Hirshfeld volume        :      8.56284846
  |   Hirshfeld dipole vector :      0.01974476       0.03030538      -0.03105944
  |   Hirshfeld dipole moment :      0.04767558
  |   Hirshfeld second moments:      0.05853476      -0.02040872       0.01156814
  |                                 -0.02040872       0.07720941       0.01340790
  |                                  0.01156814       0.01340790       0.05125002
  ----------------------------------------------------------------------


------------------------------------------------------------------------------
  Final output of selected total energy values:

  The following output summarizes some interesting total energy values
  at the end of a run (AFTER all relaxation, molecular dynamics, etc.).

  | Total energy of the DFT / Hartree-Fock s.c.f. calculation      :         -10429.328631492 eV
  | Final zero-broadening corrected energy (caution - metals only) :         -10429.331452440 eV
  | For reference only, the value of 1 Hartree used in FHI-aims is :             27.211384500 eV

  Before relying on these values, please be sure to understand exactly which
  total energy value is referred to by a given number. Different objects may
  all carry the same name 'total energy'. Definitions:

  Total energy of the DFT / Hartree-Fock s.c.f. calculation:
  | Note that this energy does not include ANY quantities calculated after the
  | s.c.f. cycle, in particular not ANY RPA, MP2, etc. many-body perturbation terms.

  Final zero-broadening corrected energy:
  | For metallic systems only, a broadening of the occupation numbers at the Fermi
  | level can be extrapolated back to zero broadening by an electron-gas inspired
  | formula. For all systems that are not real metals, this value can be
  | meaningless and should be avoided.

------------------------------------------------------------------------------

------------------------------------------------------------
          Leaving FHI-aims.
          Date     :  20150727, Time     :  124842.864

          Computational steps:
          | Number of self-consistency cycles          :           16

          Detailed time accounting                     :  max(cpu_time)    wall_clock(cpu1)
          | Total time                                 :       41.679 s          41.711 s
          | Preparation time                           :        0.174 s           0.471 s
          | Grid partitioning                          :        0.145 s           0.145 s
          | Preloading free-atom quantities on grid    :        0.014 s           0.014 s
          | Free-atom superposition energy             :        0.072 s           0.072 s
          | Total time for integrations                :       18.368 s          18.366 s
          | Total time for solution of K.-S. equations :        1.126 s           1.128 s
          | Total time for density & force components  :       13.831 s          13.829 s
          | Total time for mixing                      :        0.217 s           0.220 s
          | Total time for Hartree multipole update    :        0.078 s           0.080 s
          | Total time for Hartree multipole sum       :        7.038 s           7.040 s
          | Total time for total energy evaluation     :        0.002 s           0.006 s
          | Total time for scaled ZORA corrections     :        0.000 s           0.000 s
          | Total time for TS (2009) vdW correction    :        0.058 s           0.058 s

          Have a nice day.
------------------------------------------------------------
