  MPI-parallelism will be employed.
------------------------------------------------------------
          Invoking FHI-aims ...
          Version 081213
          Compiled on 2013/08/29 at 17:41:06 on host generoso.

          When using FHI-aims, please cite the following reference:

          Volker Blum, Ralf Gehrke, Felix Hanke, Paula Havu,
          Ville Havu, Xinguo Ren, Karsten Reuter, and Matthias Scheffler,
          'Ab Initio Molecular Simulations with Numeric Atom-Centered Orbitals: FHI-aims',
          Computer Physics Communications 180, 2175-2196 (2009)

          For any questions about FHI-aims, please visit the aimsclub website
          with its forums and wiki. Contributions to both the forums and the
          wiki are warmly encouraged - they are for you, and everyone is welcome there.

------------------------------------------------------------

  Date     :  20150727, Time     :  120545.148
  Time zero on CPU 1             :   0.449920000000000E-01  s.
  Internal wall clock time zero  :           207230745.148  s.

  Using        8 parallel tasks.
  Task        0 on host gen59 reporting.
  Task        1 on host gen59 reporting.
  Task        2 on host gen59 reporting.
  Task        3 on host gen59 reporting.
  Task        4 on host gen59 reporting.
  Task        5 on host gen59 reporting.
  Task        6 on host gen59 reporting.
  Task        7 on host gen59 reporting.

  Performing system and environment tests:
  | Environment variable OMP_NUM_THREADS correctly set to 1.
  | Checking for scalapack...
  | No scalapack compiled in.

  Obtaining array dimensions for all initial allocations:
  
  -----------------------------------------------------------------------
  Parsing control.in (first pass over file, find array dimensions only).
  The contents of control.in will be repeated verbatim below
  unless switched off by setting 'verbatim_writeout .false.' .
  in the first line of control.in .
  -----------------------------------------------------------------------
  
  #########################################################################################
  #
  #  Volker Blum, FHI 2008 : Test run input file control.in
  #
  #########################################################################################
  #
  #  Physical model
  #
    xc                 rpbe
    spin               none
    relativistic       atomic_zora scalar
    charge             0.
   vdw_correction_hirshfeld
  #
  #  SCF convergence
  #
    occupation_type    gaussian 0.01
    mixer              pulay
      n_max_pulay        10
      charge_mix_param   0.1
    sc_accuracy_rho    5E-5
    sc_accuracy_eev    5E-3
    sc_accuracy_etot   5E-6
    sc_iter_limit      3000
  #
  #  Eigenvalue solver
  #
    KS_method          lapack
      empty_states       8
      basis_threshold    0.e-5
  #
  #  Efficiency
  #
  #   all previous settings are now default, except stratmann still
  #   undecided. Continue to handle stratmann with care, if at all.
  #
  #  partition_type stratmann
    partition_type rho_r2
  #  hartree_partition_type stratmann
  #
  #  Oprions for large clusters (100's of atoms: memory saving / better scaling)
  #
  # for periodic systems:
  #
    density_update_method orbital
    packed_matrix_format none
  #  k_grid 6 6 6
  #  output k_eigenvalue 1
  #  distributed_spline_storage .true.
  #
  #  Relaxation
  #
  #  relax_geometry   bfgs 5.e-3
    sc_accuracy_forces 5.E-4
    final_forces_cleaned .true.
  #
  #  Output options
  #
  #  output mulliken
    output Hirshfeld
  #  output dipole
  
  #harmonic_length_scale 0.001
  
  ################################################################################
  #
  #  FHI-aims code project
  #  VB, Fritz-Haber Institut, 2007
  #
  #  Suggested "safe" defaults for H atom (to be pasted into control.in file)
  #  Basis constructed for a non-relativistic H2 molecule using the
  #  PW-LDA functional.
  #
  ################################################################################
    species        H
  #     global species definitions
      nucleus             1
      cut_pot             4.0  2.0  1.0
      cut_free_atom       finite 8.0
      logarithmic         0.00010000 100.00  1.0123
      basis_dep_cutoff    1d-4  # 1d-4 is safe default - please check 5d-4 if you wish!
      radial_base         24 7.0
      radial_multiplier   2
      angular_grids       specified
        division   0.2783  110
        division   0.3822  194
        division   0.5626  302
  #      division   0.5922  434
  #      division   0.6227  590
  #      division   0.7206  770
        outer_grid  302
      l_hartree           4
  ################################################################################
  #
  #  Definition of "minimal" basis
  #
  ################################################################################
  #     valence basis states
      valence      1  s   1.
  #     ion occupancy
      ion_occ      1  s   0.5
  ################################################################################
  #
  #  Suggested additional basis functions. For production calculations,
  #  uncomment them one after another (the most important basis functions are
  #  listed first).
  #
  ################################################################################
  #  "First tier" - improvements: -1014.90 meV to -62.69 meV
       hydro 2 s 2.1
       hydro 2 p 3.5
  #  "Second tier" - improvements: -12.89 meV to -1.83 meV
       hydro 1 s 0.85
       hydro 2 p 3.7
       hydro 2 s 1.2
       hydro 3 d 7
  #  "Third tier" - improvements: -0.25 meV to -0.12 meV
  #     hydro 4 f 11.2
  #     hydro 3 p 4.8
  #     hydro 4 d 9
  #     hydro 3 s 3.2
  
  ################################################################################
  #
  #  FHI-aims code project
  #  VB, Fritz-Haber Institut, 2007
  #
  #  Suggested "safe" defaults for O atom (to be pasted into control.in file)
  #  All values have been tested for a non-relativistic, non-spinpolarized O2
  #  molecule using the PW-LDA functional. Validity for PBE is expected.
  #
  #  Constructed for dimers: 1.0 A, 1.208 A, 1.5 A, 2.0 A, 3.0 A
  #
  ################################################################################
    species        O
  #     global species definitions
      nucleus             8
      mass                15.9994
      l_hartree           4
      cut_pot             4.0  2.0  1.0
      cut_free_atom       finite 8.0
      basis_dep_cutoff    1d-4  # 1d-4 is safe default - please check 5d-4 if you wish!
      logarithmic         0.00010000 100.00  1.0123
      radial_base         36 7.0
      radial_multiplier   2
       angular_grids specified
        division   0.4087  110
        division   0.5181  194
        division   0.6184  302
  #      division   0.7315  434
  #      division   0.7934  590
  #      division   0.9656  770
  #      division   1.4041  974
  #      outer_grid 974
        outer_grid 302
  ################################################################################
  #
  #  Definition of "minimal" basis
  #
  ################################################################################
  #     valence basis states
      valence      2  s   2.
      valence      2  p   4.
  #     ion occupancy
      ion_occ      2  s   1.
      ion_occ      2  p   3.
  ################################################################################
  #
  #  Suggested additional basis functions. For production calculations,
  #  uncomment them one after another (the most important basis functions are
  #  listed first).
  #
  ################################################################################
  #  "First tier" - improvements: -699.05 meV to -159.38 meV
       hydro 2 p 1.8
       hydro 3 d 7.6
       hydro 3 s 6.4
  #  "Second tier" - improvements: -49.91 meV to -5.39 meV
       hydro 4 f 11.6
       hydro 3 p 6.2
       hydro 3 d 5.6
       hydro 5 g 17.6
       hydro 1 s 0.75
  #  "Third tier" - improvements: -2.83 meV to -0.50 meV
  #     ionic 2 p auto
  #     hydro 4 f 10.8
  #     hydro 4 d 4.7
  #     hydro 2 s 6.8
  #  "Fourth tier" - improvements: -0.40 meV to -0.12 meV
  #     hydro 3 p 5
  #     hydro 3 s 3.3
  #     hydro 5 g 15.6
  #     hydro 4 f 17.6
  #     hydro 4 d 14
  # Further basis functions - -0.08 meV and below
  #     hydro 3 s 2.1
  #     hydro 4 d 11.6
  #     hydro 3 p 16
  #     hydro 2 s 17.2
  
  
  -----------------------------------------------------------------------
  Completed first pass over input file control.in .
  -----------------------------------------------------------------------
  
  
  -----------------------------------------------------------------------
  Parsing geometry.in (first pass over file, find array dimensions only).
  The contents of geometry.in will be repeated verbatim below
  unless switched off by setting 'verbatim_writeout .false.' .
  in the first line of geometry.in .
  -----------------------------------------------------------------------
  
  atom      -4.053030000      0.065001000     -1.525160000  O
  atom      -4.566710000      0.974813000     -1.912820000  H
  atom      -3.067820000      0.330172000     -1.477310000  H
  atom      -4.370360000     -0.049164000     -0.572274000  H
  atom      -4.581760000     -0.256435000      0.939478000  O
  atom      -4.349860000      0.471090000      1.504340000  H
  atom      -5.393870000     -0.726611000      1.228070000  H
  atom      -5.293160000      2.192130000     -2.328800000  O
  atom      -4.829300000      2.988660000     -1.973850000  H
  atom      -5.428570000      2.328640000     -3.235170000  H
  atom      -3.818880000      2.024990000      2.187990000  O
  atom      -3.690880000      1.961360000      3.202150000  H
  atom      -4.546490000      2.751300000      2.045370000  H
  
  -----------------------------------------------------------------------
  Completed first pass over input file geometry.in .
  -----------------------------------------------------------------------
  
 
  Basic array size parameters: 
  | Number of species                 :        2
  | Number of atoms                   :       13
  | Max. basis fn. angular momentum   :        4
  | Max. atomic/ionic basis occupied n:        2
  | Max. number of basis fn. types    :        2
  | Max. radial fns per species/type  :        8
  | Max. logarithmic grid size        :     1301
  | Max. radial integration grid size :       73
  | Max. angular integration grid size:      302
  | Max. angular grid division number :        8
  | Radial grid for Hartree potential :     1301
  | Number of spin channels           :        1

------------------------------------------------------------
          Reading file control.in.
------------------------------------------------------------
  XC: Using RPBE gradient-corrected functionals.
  Spin treatment: No spin polarisation.
  Scalar relativistic treatment of kinetic energy: on-site free-atom approximation to ZORA.
  Charge =   0.000000E+00: Neutral system requested explicitly.
  Using non-empirical van der Waals correction (Hirshfeld partitioning):
  Occupation type: Gaussian broadening, width =   0.100000E-01 eV.
  Using pulay charge density mixing.
  Pulay mixing - number of memorized iterations:   10
  Charge density mixing - mixing parameter:     0.1000
  Convergence accuracy of self-consistent charge density: 0.5000E-04
  Convergence accuracy of sum of eigenvalues: 0.5000E-02
  Convergence accuracy of total energy: 0.5000E-05
  Maximum number of s.-c. iterations  :  3000
  Kohn-Sham eigenvalues and eigenfunctions calculated by lapack diagonalisation (D&C).
  Number of empty states per atom:        8
  Threshold for basis singularities: 0.0000E+00
  Partition function in integrals calculations: rho / r^2
 Using packed matrix format           0
  Convergence accuracy of forces: 0.5000E-03
  Cleaning forces before final output.
  Hirshfeld charge analysis will be performed.
 
  Reading configuration options for species H                   .
  | Found nuclear charge :   1.0000
  | Found cutoff potl. onset [A], width [A], scale factor :    4.00000    2.00000    1.00000
  | Found cutoff specification for free atom: Cutoff potential begins at    8.00000 A.
  | Found logarithmic grid data [bohr] : 0.1000E-03 0.1000E+03 0.1012E+01
  | Threshold for basis-dependent cutoff potential is   0.100000E-03
  | Found data for basic radial integration grid :    24 points, outermost radius =    7.000 A
  | Found multiplier for basic radial grid :   2
  | Found angular grid specification: user-specified.
  | Specified grid contains     4 separate shells.
  | Check grid settings after all constraints further below.
  | Found l_max for Hartree potential  :   4
  | Found free-atom valence shell :  1 s   1.000
  | No ionic wave fns used. Skipping ion_occ.
  | Found hydrogenic basis function :  2 s   2.100
  | Found hydrogenic basis function :  2 p   3.500
  | Found hydrogenic basis function :  1 s   0.850
  | Found hydrogenic basis function :  2 p   3.700
  | Found hydrogenic basis function :  2 s   1.200
  | Found hydrogenic basis function :  3 d   7.000
  Species H                   : Missing cutoff potential type.
  Defaulting to exp(1/x)/(1-x)^2 type cutoff potential.
  Species H : On-site basis accuracy parameter (for Gram-Schmidt orthonormalisation) not specified.
  Using default value basis_acc =  0.1000000E-03.
  Species H                   : Using default innermost maximum threshold i_radial=  2 for radial functions.
  Species H                   : Basic radial grid will be enhanced according to radial_multiplier =   2, to contain    49 grid points.
 
  Reading configuration options for species O                   .
  | Found nuclear charge :   8.0000
  | Found atomic mass :    15.9994000000000      amu
  | Found l_max for Hartree potential  :   4
  | Found cutoff potl. onset [A], width [A], scale factor :    4.00000    2.00000    1.00000
  | Found cutoff specification for free atom: Cutoff potential begins at    8.00000 A.
  | Threshold for basis-dependent cutoff potential is   0.100000E-03
  | Found logarithmic grid data [bohr] : 0.1000E-03 0.1000E+03 0.1012E+01
  | Found data for basic radial integration grid :    36 points, outermost radius =    7.000 A
  | Found multiplier for basic radial grid :   2
  | Found angular grid specification: user-specified.
  | Specified grid contains     4 separate shells.
  | Check grid settings after all constraints further below.
  | Found free-atom valence shell :  2 s   2.000
  | Found free-atom valence shell :  2 p   4.000
  | No ionic wave fns used. Skipping ion_occ.
  | No ionic wave fns used. Skipping ion_occ.
  | Found hydrogenic basis function :  2 p   1.800
  | Found hydrogenic basis function :  3 d   7.600
  | Found hydrogenic basis function :  3 s   6.400
  | Found hydrogenic basis function :  4 f  11.600
  | Found hydrogenic basis function :  3 p   6.200
  | Found hydrogenic basis function :  3 d   5.600
  | Found hydrogenic basis function :  5 g  17.600
  | Found hydrogenic basis function :  1 s   0.750
  Species O                   : Missing cutoff potential type.
  Defaulting to exp(1/x)/(1-x)^2 type cutoff potential.
  Species O : On-site basis accuracy parameter (for Gram-Schmidt orthonormalisation) not specified.
  Using default value basis_acc =  0.1000000E-03.
  Species O                   : Using default innermost maximum threshold i_radial=  2 for radial functions.
  Species O                   : Basic radial grid will be enhanced according to radial_multiplier =   2, to contain    73 grid points.
 
  Finished reading input file 'control.in'. Consistency checks are next.
 
  Target number of points in a grid batch is not set. Defaulting to  100
  Method for grid partitioning is not set. Defaulting to parallel hash+maxmin partitioning.
  Batch size limit is not set. Defaulting to    200
  By default, will store active basis functions for each batch.
  If in need of memory, prune_basis_once .false. can be used to disable this option.
  communication_type for Hartree potential was not specified.
  Defaulting to calc_hartree .
  Pulay mixer: Number of initial linear mixing iterations not set.
  Defaulting to    0 iterations.
  Work space size for distributed Hartree potential not set.
  Defaulting to   0.200000E+03 MB.
  Algorithm-dependent basis array size parameters:
  | n_max_pulay                         :       10
  Geometry relaxation not requested: no relaxation will be performed.
  Handling of forces: Unphysical translation and rotation will be removed from forces.
  No accuracy limit for integral partition fn. given. Defaulting to 0.1000E-14.
  No threshold value for u(r) in integrations given. Defaulting to 0.1000E-05.
  No accuracy for occupation numbers given. Defaulting to 0.1000E-07.
  No threshold value for occupation numbers given. Defaulting to 0.0000E+00.
  No accuracy for fermi level given. Defaulting to 0.1000E-19.
  Maximum # of iterations to find E_F not set. Defaulting to  200.
  Will not use alltoall communication since running on < 1024 CPUs.
  Partitioning for Hartree potential was not defined. Using partition_type for integrals.
  | Reporting present value of keyword multip_moments_threshold  :       0.10000000E-09
  | This value may affect high angular momentum components of the Hartree potential in periodic systems.
  No q(lm)/r^(l+1) cutoff set for long-range Hartree potential.
  | Using default value of  0.100000E-09 .
  | Verify using the multipole_threshold keyword.
  Defaulting to new monopole extrapolation.
  Density update method: Loop over occupied states selected for charge density update.
------------------------------------------------------------


------------------------------------------------------------
          Reading geometry description geometry.in.
------------------------------------------------------------
  Input structure read successfully.
  The structure contains       13 atoms,  and a total of         41.000 electrons.

  Input geometry:
  | No unit cell requested.
  | Atomic structure:
  |       Atom                x [A]            y [A]            z [A]
  |    1: Species O             -4.053030         0.065001        -1.525160
  |    2: Species H             -4.566710         0.974813        -1.912820
  |    3: Species H             -3.067820         0.330172        -1.477310
  |    4: Species H             -4.370360        -0.049164        -0.572274
  |    5: Species O             -4.581760        -0.256435         0.939478
  |    6: Species H             -4.349860         0.471090         1.504340
  |    7: Species H             -5.393870        -0.726611         1.228070
  |    8: Species O             -5.293160         2.192130        -2.328800
  |    9: Species H             -4.829300         2.988660        -1.973850
  |   10: Species H             -5.428570         2.328640        -3.235170
  |   11: Species O             -3.818880         2.024990         2.187990
  |   12: Species H             -3.690880         1.961360         3.202150
  |   13: Species H             -4.546490         2.751300         2.045370
  |

  | The smallest distance between any two atoms is         0.92654057 AA.
  |
  | The first atom of this pair is atom number                      8 .
  | The second atom of this pair is atom number                    10 .

  Structure-dependent array size parameters: 
  | Maximum number of distinct radial functions  :       18
  | Maximum number of basis functions            :      291
  | Number of Kohn-Sham states (occupied + empty):       73
------------------------------------------------------------

------------------------------------------------------------
          Preparing all fixed parts of the calculation.
------------------------------------------------------------
  Determining machine precision:
    2.225073858507201E-308
  Setting up grids for atomic and cluster calculations.

  Creating wave function, potential, and density for free atoms.

  Species: H

  List of occupied orbitals and eigenvalues:
    n    l              occ      energy [Ha]    energy [eV]
    1    0           1.0000        -0.241408        -6.5691


  Species: O

  List of occupied orbitals and eigenvalues:
    n    l              occ      energy [Ha]    energy [eV]
    1    0           2.0000       -18.944147      -515.4965
    2    0           2.0000        -0.883529       -24.0421
    2    1           4.0000        -0.330176        -8.9845

  Creating fixed part of basis set: Ionic, confined, hydrogenic.
 
  H                    hydrogenic:
 
  List of hydrogenic basis orbitals: 
    n    l      effective z      eigenvalue [eV]  inner max. [A]     outer max. [A]     outer radius [A]   
    2    0         2.100000       -14.9965           0.193241           1.317192           5.372934
    2    1         3.500000       -41.6672           0.602363           0.602363           4.056010
    1    0         0.850000        -9.8292           0.624864           0.624864           5.372934
    2    1         3.700000       -46.5653           0.573616           0.573616           3.909951
    2    0         1.200000        -4.5995           0.334977           2.228160           5.505921
    3    2         7.000000       -74.0753           0.680692           0.680692           3.769152
 
 
  O                    hydrogenic:
 
  List of hydrogenic basis orbitals: 
    n    l      effective z      eigenvalue [eV]  inner max. [A]     outer max. [A]     outer radius [A]   
    2    1         1.800000       -11.0118           1.178546           1.178546           5.432516
    3    2         7.600000       -87.3182           0.624117           0.624117           3.541422
    3    0         6.400000       -61.9209           0.061166           1.081887           4.306510
    4    3        11.600000      -114.4238           0.731621           0.731621           3.584982
    3    1         6.200000       -58.1113           0.255677           1.030255           4.306510
    3    2         5.600000       -47.4081           0.847222           0.847222           4.413102
    5    4        17.600000      -168.5799           0.749730           0.749730           3.372413
    1    0         0.750000        -7.6499           0.705275           0.705275           5.366508
 

  Adding cutoff potential to free-atom effective potential.
  Creating atomic-like basis functions for current effective potential.

  Species H                   :

  List of atomic basis orbitals and eigenvalues:
    n    l      energy [Ha]    energy [eV]    outer radius [A]
    1    0        -0.241374        -6.5681       5.372934


  Species O                   :

  List of atomic basis orbitals and eigenvalues:
    n    l      energy [Ha]    energy [eV]    outer radius [A]
    1    0       -18.944147      -515.4965       1.415745
    2    0        -0.883529       -24.0421       5.048305
    2    1        -0.330173        -8.9845       5.301302

  Assembling full basis from fixed parts.
  | Species H :   atomic orbital   1 s accepted.
  | Species H :    hydro orbital   2 s accepted.
  | Species H :    hydro orbital   1 s accepted.
  | Species H :    hydro orbital   2 s accepted.
  | Species H :    hydro orbital   2 p accepted.
  | Species H :    hydro orbital   2 p accepted.
  | Species H :    hydro orbital   3 d accepted.
  | Species O :   atomic orbital   1 s accepted.
  | Species O :    hydro orbital   3 s accepted.
  | Species O :   atomic orbital   2 s accepted.
  | Species O :    hydro orbital   1 s accepted.
  | Species O :    hydro orbital   3 p accepted.
  | Species O :   atomic orbital   2 p accepted.
  | Species O :    hydro orbital   2 p accepted.
  | Species O :    hydro orbital   3 d accepted.
  | Species O :    hydro orbital   3 d accepted.
  | Species O :    hydro orbital   4 f accepted.
  | Species O :    hydro orbital   5 g accepted.
 
  Basis size parameters after reduction:
  | Total number of radial functions:       18
  | Total number of basis functions :      291
 
  Testing on-site integration grid accuracy.
  |  Species  Function  <phi|h_atom|phi> (log., in eV)  <phi|h_atom|phi> (rad., in eV)
           1        1                 -6.5683835025                 -6.5684759159
           1        2                 13.3711789951                 13.3708738703
           1        3                 23.6590910787                 23.6532055418
           1        4                 16.2963827186                 16.1870710655 ***
           1        5                 28.7627214838                 28.7627215090
           1        6                 59.5965249172                 59.5965950857
           1        7                 60.2220506392                 60.2220503827
           2        8               -515.4964576505               -515.4964530710
           2        9                 15.3030791347                 15.3030722972
           2       10                -21.7296094581                -21.7296135470
           2       11                 14.2969371730                 14.2969701621
           2       12                 21.0679693190                 21.0679697493
           2       13                 -2.3833606469                 -2.3833613176
           2       14                 13.7067136422                 13.7066766629
           2       15                 45.8013116808                 45.8013116965
           2       16                 52.2309815402                 52.2309831494
           2       17                 85.4120732416                 85.4120732763
           2       18                142.1019167745                142.1019167817
 * Note: Onsite integrals marked "***" above are less accurate than
 * onsite_accuracy_threshold =    0.03000 eV. Usually, this is harmless.
 * When in doubt, tighten the "radial" and/or "radial_multiplier" flags to check.

  Preparing densities etc. for the partition functions (integrals / Hartree potential).

  Preparations completed.
  max(cpu_time)          :      0.171 s.
  Wall clock time (cpu1) :      0.588 s.
------------------------------------------------------------

------------------------------------------------------------
          Begin self-consistency loop: Initialization.

          Date     :  20150727, Time     :  120545.746
------------------------------------------------------------

  Initializing index lists of integration centers etc. from given atomic structure:
  | Number of centers in hartree potential         :        13
  | Number of centers in hartree multipole         :        13
  | Number of centers in electron density summation:        13
  | Number of centers in basis integrals           :        13
  | Number of centers in integrals                 :        13
  Partitioning the integration grid into batches with parallel hashing+maxmin method.
  | Number of batches:     1707
  | Maximal batch size:     200
  | Minimal batch size:      50
  | Average batch size:      98.982
  | Standard deviation of batch sizes:      27.951

  Integration load balanced across     8 MPI tasks.
  Work distribution over tasks is as follows:
  Task     0 has      21071 integration points.
  Task     1 has      21254 integration points.
  Task     2 has      21163 integration points.
  Task     3 has      21073 integration points.
  Task     4 has      21073 integration points.
  Task     5 has      21076 integration points.
  Task     6 has      21129 integration points.
  Task     7 has      21123 integration points.
  Initializing partition tables, free-atom densities, potentials, etc. across the integration grid (initialize_grid_storage).
  | Net number of integration points:   168962
  | of which are non-zero points    :   168437
  Obtaining max. number of non-zero basis functions in each batch (get_n_compute_maxes).
  | Maximal number of non-zero basis functions:      289 in task     0
  | Maximal number of non-zero basis functions:      289 in task     1
  | Maximal number of non-zero basis functions:      289 in task     2
  | Maximal number of non-zero basis functions:      289 in task     3
  | Maximal number of non-zero basis functions:      289 in task     4
  | Maximal number of non-zero basis functions:      289 in task     5
  | Maximal number of non-zero basis functions:      289 in task     6
  | Maximal number of non-zero basis functions:      289 in task     7
  Integrating Hamiltonian matrix: batch-based integration.
  Time summed over all CPUs for integration: real work        5.182 s, elapsed        5.325 s
  Integrating overlap matrix.
  Time summed over all CPUs for integration: real work        2.722 s, elapsed        2.803 s

  Updating Kohn-Sham eigenvalues, eigenvectors, occupation numbers, and Fermi level.
  Solving generalized eigenproblem
  Updating Kohn-Sham eigenvalues and eigenfunctions.
  Transforming overlap matrix and checking for singularities.
  Overlap matrix is nonsingular:
  | Lowest eigenvalue:  0.208878E-03
  Solving real generalised eigenvalue problem by standard LAPACK (fast)
  Determining occupation numbers for Kohn-Sham eigenstates.
  | Chemical potential (Fermi level) in eV                 : -.26099235E+01
  | Error in electron count due to remaining E_F inaccuracy: 0.11084964E-08
  | Maximum occupation number of highest empty state:  0.00E+00

  Writing Kohn-Sham eigenvalues.

  State    Occupation    Eigenvalue [Ha]    Eigenvalue [eV]
      1       2.00000         -19.065134         -518.78869
      2       2.00000         -19.064850         -518.78096
      3       2.00000         -19.059273         -518.62920
      4       2.00000         -19.032035         -517.88803
      5       2.00000          -1.130124          -30.75224
      6       2.00000          -1.116710          -30.38722
      7       2.00000          -1.103929          -30.03945
      8       2.00000          -1.064421          -28.96438
      9       2.00000          -0.654949          -17.82208
     10       2.00000          -0.650901          -17.71193
     11       2.00000          -0.640977          -17.44187
     12       2.00000          -0.620534          -16.88560
     13       2.00000          -0.593850          -16.15948
     14       2.00000          -0.534512          -14.54481
     15       2.00000          -0.509251          -13.85743
     16       2.00000          -0.493863          -13.43870
     17       2.00000          -0.483514          -13.15708
     18       2.00000          -0.452658          -12.31746
     19       2.00000          -0.446511          -12.15019
     20       2.00000          -0.424968          -11.56397
     21       1.00000          -0.095913           -2.60992
     22       0.00000          -0.073173           -1.99113
     23       0.00000          -0.054881           -1.49338
     24       0.00000          -0.039132           -1.06485
     25       0.00000          -0.017654           -0.48038
     26       0.00000          -0.000545           -0.01483
     27       0.00000           0.030561            0.83162
     28       0.00000           0.045202            1.23002
     29       0.00000           0.060701            1.65176
     30       0.00000           0.068499            1.86396
     31       0.00000           0.081945            2.22983
     32       0.00000           0.090846            2.47204
     33       0.00000           0.096032            2.61316
     34       0.00000           0.100966            2.74744
     35       0.00000           0.109059            2.96765
     36       0.00000           0.116168            3.16109
     37       0.00000           0.121157            3.29686
     38       0.00000           0.141200            3.84225
     39       0.00000           0.147096            4.00269
     40       0.00000           0.159208            4.33227
     41       0.00000           0.170097            4.62859
     42       0.00000           0.193994            5.27885
     43       0.00000           0.200737            5.46234
     44       0.00000           0.219123            5.96263
     45       0.00000           0.230469            6.27139
     46       0.00000           0.253888            6.90863
     47       0.00000           0.266763            7.25898
     48       0.00000           0.268054            7.29412
     49       0.00000           0.294919            8.02516
     50       0.00000           0.300516            8.17744
     51       0.00000           0.336270            9.15037
     52       0.00000           0.367185            9.99161
     53       0.00000           0.370142           10.07208
     54       0.00000           0.377964           10.28492
     55       0.00000           0.382293           10.40273
     56       0.00000           0.395098           10.75116
     57       0.00000           0.420996           11.45588
     58       0.00000           0.424758           11.55826
     59       0.00000           0.440538           11.98764
     60       0.00000           0.446738           12.15637
     61       0.00000           0.472138           12.84754
     62       0.00000           0.489994           13.33341
     63       0.00000           0.497947           13.54984
     64       0.00000           0.538632           14.65693
     65       0.00000           0.560740           15.25850
     66       0.00000           0.571125           15.54109
     67       0.00000           0.606515           16.50412
     68       0.00000           0.626500           17.04792
     69       0.00000           0.683158           18.58969
     70       0.00000           0.730801           19.88611
     71       0.00000           0.739711           20.12857
     72       0.00000           0.756632           20.58901
     73       0.00000           0.766653           20.86169

  Highest occupied state (VBM) at     -2.60992348 eV
  | Occupation number:      1.00000000

  Lowest unoccupied state (CBM) at    -1.99112608 eV
  | Occupation number:      0.00000000

  Overall HOMO-LUMO gap:      0.61879740 eV.
  Calculating total energy contributions from superposition of free atom densities.

  Total energy components:
  | Sum of eigenvalues            :        -174.38184455 Ha       -4745.17142178 eV
  | XC energy correction          :         -36.84121967 Ha       -1002.50059397 eV
  | XC potential correction       :          47.08994353 Ha        1281.38255935 eV
  | Free-atom electrostatic energy:        -142.77862903 Ha       -3885.20417279 eV
  | Hartree energy correction     :           0.00000000 Ha           0.00000000 eV
  | van der Waals energy corr.    :           0.00000000 Ha           0.00000000 eV
  | Entropy correction            :          -0.00010367 Ha          -0.00282095 eV
  | ---------------------------
  | Total energy                  :        -306.91174972 Ha       -8351.49362920 eV
  | Total energy, T -> 0          :        -306.91185339 Ha       -8351.49645015 eV  <-- do not rely on this value for anything but (periodic) metals
  | Electronic free energy        :        -306.91195706 Ha       -8351.49927110 eV

  Derived energy quantities:
  | Kinetic energy                :         304.07171331 Ha        8274.21230650 eV
  | Electrostatic energy          :        -574.14224336 Ha      -15623.20534173 eV
  | Energy correction for multipole
  | error in Hartree potential    :           0.00000000 Ha           0.00000000 eV
  | Sum of eigenvalues per atom                           :        -365.01318629 eV
  | Total energy (T->0) per atom                          :        -642.42280386 eV  <-- do not rely on this value for anything but (periodic) metals
  | Electronic free energy per atom                       :        -642.42302085 eV
  Initialize hartree_potential_storage
  Max. number of atoms included in rho_multipole:           13

  End scf initialization - timings             :  max(cpu_time)    wall_clock(cpu1)
  | Time for scf. initialization               :        1.440 s           1.439 s
  | Boundary condition initialization          :        0.000 s           0.000 s
  | Integration                                :        1.019 s           1.019 s
  | Solution of K.-S. eqns.                    :        0.136 s           0.135 s
  | Grid partitioning                          :        0.118 s           0.117 s
  | Preloading free-atom quantities on grid    :        0.014 s           0.013 s
  | Free-atom superposition energy             :        0.052 s           0.053 s
  | Total energy evaluation                    :        0.000 s           0.000 s
------------------------------------------------------------

------------------------------------------------------------
          Begin self-consistency iteration #    1

  Date     :  20150727, Time     :  120547.185
------------------------------------------------------------
  Evaluating new KS density.
  Integration grid: deviation in total charge (<rho> - N_e) =   1.108511E-09
  Pulay mixing of updated and previous charge densities.

  Evaluating partitioned Hartree potential by multipole expansion.
  | Analytical far-field extrapolation by fixed multipoles:
  | Hartree multipole sum: apparent total charge =  -0.581072E-06
  Summing up the Hartree potential.
  Time summed over all CPUs for potential: real work        1.919 s, elapsed        1.942 s
  | RMS charge density error from multipole expansion :   0.150547E-02

  Integrating Hamiltonian matrix: batch-based integration.
  Time summed over all CPUs for integration: real work        5.164 s, elapsed        5.301 s

  Updating Kohn-Sham eigenvalues, eigenvectors, occupation numbers, and Fermi level.
  Solving generalized eigenproblem
  Updating Kohn-Sham eigenvalues and eigenfunctions.
  Solving real generalised eigenvalue problem by standard LAPACK (fast)
  Determining occupation numbers for Kohn-Sham eigenstates.
  | Chemical potential (Fermi level) in eV                 : -.24072108E+01
  | Error in electron count due to remaining E_F inaccuracy: 0.00000000E+00
  | Maximum occupation number of highest empty state:  0.00E+00

  Writing Kohn-Sham eigenvalues.

  State    Occupation    Eigenvalue [Ha]    Eigenvalue [eV]
      1       2.00000         -19.010911         -517.31322
      2       2.00000         -18.997864         -516.95819
      3       2.00000         -18.981894         -516.52362
      4       2.00000         -18.956703         -515.83812
      5       2.00000          -1.102487          -30.00020
      6       2.00000          -1.085680          -29.54285
      7       2.00000          -1.067038          -29.03559
      8       2.00000          -1.025456          -27.90408
      9       2.00000          -0.624885          -17.00398
     10       2.00000          -0.621087          -16.90063
     11       2.00000          -0.616657          -16.78009
     12       2.00000          -0.598533          -16.28691
     13       2.00000          -0.560982          -15.26508
     14       2.00000          -0.504175          -13.71929
     15       2.00000          -0.475070          -12.92731
     16       2.00000          -0.458742          -12.48302
     17       2.00000          -0.450846          -12.26815
     18       2.00000          -0.420790          -11.45027
     19       2.00000          -0.406938          -11.07334
     20       2.00000          -0.384508          -10.46301
     21       1.00000          -0.088463           -2.40721
     22       0.00000          -0.065482           -1.78185
     23       0.00000          -0.048332           -1.31517
     24       0.00000          -0.032525           -0.88504
     25       0.00000          -0.010307           -0.28046
     26       0.00000           0.005480            0.14912
     27       0.00000           0.037375            1.01704
     28       0.00000           0.053415            1.45349
     29       0.00000           0.065187            1.77384
     30       0.00000           0.075238            2.04733
     31       0.00000           0.090950            2.47488
     32       0.00000           0.099274            2.70139
     33       0.00000           0.103707            2.82202
     34       0.00000           0.107429            2.92330
     35       0.00000           0.118030            3.21175
     36       0.00000           0.123372            3.35711
     37       0.00000           0.128490            3.49640
     38       0.00000           0.149434            4.06630
     39       0.00000           0.163752            4.45592
     40       0.00000           0.168603            4.58791
     41       0.00000           0.177935            4.84186
     42       0.00000           0.201728            5.48930
     43       0.00000           0.206467            5.61825
     44       0.00000           0.227940            6.20255
     45       0.00000           0.238278            6.48388
     46       0.00000           0.261863            7.12564
     47       0.00000           0.272280            7.40912
     48       0.00000           0.274844            7.47888
     49       0.00000           0.300913            8.18826
     50       0.00000           0.305985            8.32629
     51       0.00000           0.342975            9.33283
     52       0.00000           0.373668           10.16804
     53       0.00000           0.377851           10.28184
     54       0.00000           0.387166           10.53532
     55       0.00000           0.389566           10.60062
     56       0.00000           0.404664           11.01146
     57       0.00000           0.427760           11.63994
     58       0.00000           0.431391           11.73875
     59       0.00000           0.446481           12.14936
     60       0.00000           0.454933           12.37936
     61       0.00000           0.479687           13.05295
     62       0.00000           0.498458           13.56373
     63       0.00000           0.506948           13.79475
     64       0.00000           0.546987           14.88428
     65       0.00000           0.569861           15.50671
     66       0.00000           0.582210           15.84275
     67       0.00000           0.615955           16.76099
     68       0.00000           0.636157           17.31070
     69       0.00000           0.693786           18.87889
     70       0.00000           0.741585           20.17954
     71       0.00000           0.749096           20.38394
     72       0.00000           0.766576           20.85958
     73       0.00000           0.775990           21.11575

  Highest occupied state (VBM) at     -2.40721080 eV
  | Occupation number:      1.00000000

  Lowest unoccupied state (CBM) at    -2.40721080 eV
  | Occupation number:      1.00000000

  Overall HOMO-LUMO gap:      0.00000000 eV.

  Total energy components:
  | Sum of eigenvalues            :        -172.79095491 Ha       -4701.88111216 eV
  | XC energy correction          :         -37.01225618 Ha       -1007.15473403 eV
  | XC potential correction       :          47.31316973 Ha        1287.45685357 eV
  | Free-atom electrostatic energy:        -142.77862903 Ha       -3885.20417279 eV
  | Hartree energy correction     :          -1.55208481 Ha         -42.23437649 eV
  | van der Waals energy corr.    :           0.00000000 Ha           0.00000000 eV
  | Entropy correction            :          -0.00010367 Ha          -0.00282095 eV
  | ---------------------------
  | Total energy                  :        -306.82075518 Ha       -8349.01754191 eV
  | Total energy, T -> 0          :        -306.82085885 Ha       -8349.02036286 eV  <-- do not rely on this value for anything but (periodic) metals
  | Electronic free energy        :        -306.82096252 Ha       -8349.02318381 eV

  Derived energy quantities:
  | Kinetic energy                :         305.12301557 Ha        8302.81969650 eV
  | Electrostatic energy          :        -574.93151458 Ha      -15644.68250438 eV
  | Energy correction for multipole
  | error in Hartree potential    :           0.00032642 Ha           0.00888239 eV
  | Sum of eigenvalues per atom                           :        -361.68316247 eV
  | Total energy (T->0) per atom                          :        -642.23233560 eV  <-- do not rely on this value for anything but (periodic) metals
  | Electronic free energy per atom                       :        -642.23255260 eV

  Self-consistency convergence accuracy:
  | Change of charge density      : 0.5600E+00
  | Change of sum of eigenvalues  : 0.4329E+02 eV
  | Change of total energy        : 0.2476E+01 eV

  End self-consistency iteration #     1       :  max(cpu_time)    wall_clock(cpu1)
  | Time for this iteration                    :        1.419 s           1.419 s
  | Charge density update                      :        0.467 s           0.468 s
  | Density mixing                             :        0.003 s           0.002 s
  | Hartree multipole update                   :        0.005 s           0.004 s
  | Hartree multipole summation                :        0.243 s           0.243 s
  | Integration                                :        0.664 s           0.663 s
  | Solution of K.-S. eqns.                    :        0.036 s           0.036 s
  | Total energy evaluation                    :        0.001 s           0.001 s
------------------------------------------------------------

------------------------------------------------------------
          Begin self-consistency iteration #    2

  Date     :  20150727, Time     :  120548.604
------------------------------------------------------------
  Evaluating new KS density.
  Integration grid: deviation in total charge (<rho> - N_e) =   7.105427E-15
  Pulay mixing of updated and previous charge densities.

  Evaluating partitioned Hartree potential by multipole expansion.
  | Analytical far-field extrapolation by fixed multipoles:
  | Hartree multipole sum: apparent total charge =  -0.315681E-05
  Summing up the Hartree potential.
  Time summed over all CPUs for potential: real work        1.919 s, elapsed        1.941 s
  | RMS charge density error from multipole expansion :   0.612271E-02

  Integrating Hamiltonian matrix: batch-based integration.
  Time summed over all CPUs for integration: real work        5.138 s, elapsed        5.279 s

  Updating Kohn-Sham eigenvalues, eigenvectors, occupation numbers, and Fermi level.
  Solving generalized eigenproblem
  Updating Kohn-Sham eigenvalues and eigenfunctions.
  Solving real generalised eigenvalue problem by standard LAPACK (fast)
  Determining occupation numbers for Kohn-Sham eigenstates.
  | Chemical potential (Fermi level) in eV                 : -.19496616E+01
  | Error in electron count due to remaining E_F inaccuracy: 0.13041230E-08
  | Maximum occupation number of highest empty state:  0.00E+00

  Highest occupied state (VBM) at     -1.94966162 eV
  | Occupation number:      1.00000000

  Lowest unoccupied state (CBM) at    -1.28982095 eV
  | Occupation number:      0.00000000

  Overall HOMO-LUMO gap:      0.65984066 eV.

  Total energy components:
  | Sum of eigenvalues            :        -168.97010616 Ha       -4597.91052769 eV
  | XC energy correction          :         -37.44412059 Ha       -1018.90636267 eV
  | XC potential correction       :          47.87542938 Ha        1302.75671686 eV
  | Free-atom electrostatic energy:        -142.77862903 Ha       -3885.20417279 eV
  | Hartree energy correction     :          -5.40223271 Ha        -147.00223154 eV
  | van der Waals energy corr.    :           0.00000000 Ha           0.00000000 eV
  | Entropy correction            :          -0.00010367 Ha          -0.00282095 eV
  | ---------------------------
  | Total energy                  :        -306.71965911 Ha       -8346.26657784 eV
  | Total energy, T -> 0          :        -306.71976278 Ha       -8346.26939879 eV  <-- do not rely on this value for anything but (periodic) metals
  | Electronic free energy        :        -306.71986645 Ha       -8346.27221974 eV

  Derived energy quantities:
  | Kinetic energy                :         307.32554357 Ha        8362.75353285 eV
  | Electrostatic energy          :        -576.60108210 Ha      -15690.11374802 eV
  | Energy correction for multipole
  | error in Hartree potential    :           0.00055608 Ha           0.01513157 eV
  | Sum of eigenvalues per atom                           :        -353.68542521 eV
  | Total energy (T->0) per atom                          :        -642.02072298 eV  <-- do not rely on this value for anything but (periodic) metals
  | Electronic free energy per atom                       :        -642.02093998 eV

  Self-consistency convergence accuracy:
  | Change of charge density      : 0.4263E+00
  | Change of sum of eigenvalues  : 0.1040E+03 eV
  | Change of total energy        : 0.2751E+01 eV

  End self-consistency iteration #     2       :  max(cpu_time)    wall_clock(cpu1)
  | Time for this iteration                    :        1.415 s           1.415 s
  | Charge density update                      :        0.465 s           0.465 s
  | Density mixing                             :        0.005 s           0.005 s
  | Hartree multipole update                   :        0.004 s           0.004 s
  | Hartree multipole summation                :        0.244 s           0.244 s
  | Integration                                :        0.661 s           0.661 s
  | Solution of K.-S. eqns.                    :        0.035 s           0.035 s
  | Total energy evaluation                    :        0.000 s           0.000 s
------------------------------------------------------------

------------------------------------------------------------
          Begin self-consistency iteration #    3

  Date     :  20150727, Time     :  120550.019
------------------------------------------------------------
  Evaluating new KS density.
  Integration grid: deviation in total charge (<rho> - N_e) =   1.304130E-09
  Pulay mixing of updated and previous charge densities.

  Evaluating partitioned Hartree potential by multipole expansion.
  | Analytical far-field extrapolation by fixed multipoles:
  | Hartree multipole sum: apparent total charge =  -0.335067E-05
  Summing up the Hartree potential.
  Time summed over all CPUs for potential: real work        1.919 s, elapsed        1.941 s
  | RMS charge density error from multipole expansion :   0.117752E-01

  Integrating Hamiltonian matrix: batch-based integration.
  Time summed over all CPUs for integration: real work        5.145 s, elapsed        5.282 s

  Updating Kohn-Sham eigenvalues, eigenvectors, occupation numbers, and Fermi level.
  Solving generalized eigenproblem
  Updating Kohn-Sham eigenvalues and eigenfunctions.
  Solving real generalised eigenvalue problem by standard LAPACK (fast)
  Determining occupation numbers for Kohn-Sham eigenstates.
  | Chemical potential (Fermi level) in eV                 : -.18964242E+01
  | Error in electron count due to remaining E_F inaccuracy: 0.00000000E+00
  | Maximum occupation number of highest empty state:  0.00E+00

  Highest occupied state (VBM) at     -1.89642420 eV
  | Occupation number:      1.00000000

  Lowest unoccupied state (CBM) at    -1.89642420 eV
  | Occupation number:      1.00000000

  Overall HOMO-LUMO gap:      0.00000000 eV.

  Total energy components:
  | Sum of eigenvalues            :        -169.14692707 Ha       -4602.72206959 eV
  | XC energy correction          :         -37.44636014 Ha       -1018.96730396 eV
  | XC potential correction       :          47.87191041 Ha        1302.66096094 eV
  | Free-atom electrostatic energy:        -142.77862903 Ha       -3885.20417279 eV
  | Hartree energy correction     :          -5.21916922 Ha        -142.02082036 eV
  | van der Waals energy corr.    :           0.00000000 Ha           0.00000000 eV
  | Entropy correction            :          -0.00010367 Ha          -0.00282095 eV
  | ---------------------------
  | Total energy                  :        -306.71917505 Ha       -8346.25340577 eV
  | Total energy, T -> 0          :        -306.71927872 Ha       -8346.25622672 eV  <-- do not rely on this value for anything but (periodic) metals
  | Electronic free energy        :        -306.71938238 Ha       -8346.25904767 eV

  Derived energy quantities:
  | Kinetic energy                :         306.15888496 Ha        8331.00713674 eV
  | Electrostatic energy          :        -575.43169987 Ha      -15658.29323856 eV
  | Energy correction for multipole
  | error in Hartree potential    :          -0.00249856 Ha          -0.06798922 eV
  | Sum of eigenvalues per atom                           :        -354.05554381 eV
  | Total energy (T->0) per atom                          :        -642.01970975 eV  <-- do not rely on this value for anything but (periodic) metals
  | Electronic free energy per atom                       :        -642.01992674 eV

  Self-consistency convergence accuracy:
  | Change of charge density      : 0.2076E+00
  | Change of sum of eigenvalues  : -.4812E+01 eV
  | Change of total energy        : 0.1317E-01 eV

  End self-consistency iteration #     3       :  max(cpu_time)    wall_clock(cpu1)
  | Time for this iteration                    :        1.413 s           1.413 s
  | Charge density update                      :        0.462 s           0.462 s
  | Density mixing                             :        0.006 s           0.006 s
  | Hartree multipole update                   :        0.004 s           0.004 s
  | Hartree multipole summation                :        0.244 s           0.243 s
  | Integration                                :        0.661 s           0.661 s
  | Solution of K.-S. eqns.                    :        0.036 s           0.035 s
  | Total energy evaluation                    :        0.000 s           0.000 s
------------------------------------------------------------

------------------------------------------------------------
          Begin self-consistency iteration #    4

  Date     :  20150727, Time     :  120551.432
------------------------------------------------------------
  Evaluating new KS density.
  Integration grid: deviation in total charge (<rho> - N_e) =   2.842171E-14
  Pulay mixing of updated and previous charge densities.

  Evaluating partitioned Hartree potential by multipole expansion.
  | Analytical far-field extrapolation by fixed multipoles:
  | Hartree multipole sum: apparent total charge =  -0.401215E-05
  Summing up the Hartree potential.
  Time summed over all CPUs for potential: real work        1.918 s, elapsed        1.940 s
  | RMS charge density error from multipole expansion :   0.156477E-01

  Integrating Hamiltonian matrix: batch-based integration.
  Time summed over all CPUs for integration: real work        5.133 s, elapsed        5.272 s

  Updating Kohn-Sham eigenvalues, eigenvectors, occupation numbers, and Fermi level.
  Solving generalized eigenproblem
  Updating Kohn-Sham eigenvalues and eigenfunctions.
  Solving real generalised eigenvalue problem by standard LAPACK (fast)
  Determining occupation numbers for Kohn-Sham eigenstates.
  | Chemical potential (Fermi level) in eV                 : -.17907902E+01
  | Error in electron count due to remaining E_F inaccuracy: -.39626968E-10
  | Maximum occupation number of highest empty state:  0.00E+00

  Highest occupied state (VBM) at     -7.55188592 eV
  | Occupation number:      2.00000000

  Lowest unoccupied state (CBM) at    -1.79079024 eV
  | Occupation number:      1.00000000

  Overall HOMO-LUMO gap:      5.76109568 eV.

  Total energy components:
  | Sum of eigenvalues            :        -168.30889320 Ha       -4579.91800765 eV
  | XC energy correction          :         -37.56598297 Ha       -1022.22240671 eV
  | XC potential correction       :          48.02472472 Ha        1306.81924973 eV
  | Free-atom electrostatic energy:        -142.77862903 Ha       -3885.20417279 eV
  | Hartree energy correction     :          -6.08778582 Ha        -165.65708067 eV
  | van der Waals energy corr.    :           0.00000000 Ha           0.00000000 eV
  | Entropy correction            :          -0.00010367 Ha          -0.00282095 eV
  | ---------------------------
  | Total energy                  :        -306.71656630 Ha       -8346.18241809 eV
  | Total energy, T -> 0          :        -306.71666997 Ha       -8346.18523904 eV  <-- do not rely on this value for anything but (periodic) metals
  | Electronic free energy        :        -306.71677364 Ha       -8346.18805999 eV

  Derived energy quantities:
  | Kinetic energy                :         306.12073826 Ha        8329.96911221 eV
  | Electrostatic energy          :        -575.27132159 Ha      -15653.92912359 eV
  | Energy correction for multipole
  | error in Hartree potential    :          -0.00402619 Ha          -0.10955813 eV
  | Sum of eigenvalues per atom                           :        -352.30138520 eV
  | Total energy (T->0) per atom                          :        -642.01424916 eV  <-- do not rely on this value for anything but (periodic) metals
  | Electronic free energy per atom                       :        -642.01446615 eV

  Self-consistency convergence accuracy:
  | Change of charge density      : 0.9686E-01
  | Change of sum of eigenvalues  : 0.2280E+02 eV
  | Change of total energy        : 0.7099E-01 eV

  End self-consistency iteration #     4       :  max(cpu_time)    wall_clock(cpu1)
  | Time for this iteration                    :        1.414 s           1.414 s
  | Charge density update                      :        0.463 s           0.463 s
  | Density mixing                             :        0.007 s           0.007 s
  | Hartree multipole update                   :        0.005 s           0.004 s
  | Hartree multipole summation                :        0.243 s           0.243 s
  | Integration                                :        0.660 s           0.661 s
  | Solution of K.-S. eqns.                    :        0.036 s           0.035 s
  | Total energy evaluation                    :        0.000 s           0.001 s
------------------------------------------------------------

------------------------------------------------------------
          Begin self-consistency iteration #    5

  Date     :  20150727, Time     :  120552.846
------------------------------------------------------------
  Evaluating new KS density.
  Integration grid: deviation in total charge (<rho> - N_e) =  -3.961276E-11
  Pulay mixing of updated and previous charge densities.

  Evaluating partitioned Hartree potential by multipole expansion.
  | Analytical far-field extrapolation by fixed multipoles:
  | Hartree multipole sum: apparent total charge =  -0.398754E-05
  Summing up the Hartree potential.
  Time summed over all CPUs for potential: real work        1.918 s, elapsed        1.940 s
  | RMS charge density error from multipole expansion :   0.158595E-01

  Integrating Hamiltonian matrix: batch-based integration.
  Time summed over all CPUs for integration: real work        5.132 s, elapsed        5.273 s

  Updating Kohn-Sham eigenvalues, eigenvectors, occupation numbers, and Fermi level.
  Solving generalized eigenproblem
  Updating Kohn-Sham eigenvalues and eigenfunctions.
  Solving real generalised eigenvalue problem by standard LAPACK (fast)
  Determining occupation numbers for Kohn-Sham eigenstates.
  | Chemical potential (Fermi level) in eV                 : -.18258696E+01
  | Error in electron count due to remaining E_F inaccuracy: 0.00000000E+00
  | Maximum occupation number of highest empty state:  0.00E+00

  Highest occupied state (VBM) at     -1.82586959 eV
  | Occupation number:      1.00000000

  Lowest unoccupied state (CBM) at    -1.82586959 eV
  | Occupation number:      1.00000000

  Overall HOMO-LUMO gap:      0.00000000 eV.

  Total energy components:
  | Sum of eigenvalues            :        -168.49878733 Ha       -4585.08528986 eV
  | XC energy correction          :         -37.54535664 Ha       -1021.66113583 eV
  | XC potential correction       :          47.99726512 Ha        1306.07203609 eV
  | Free-atom electrostatic energy:        -142.77862903 Ha       -3885.20417279 eV
  | Hartree energy correction     :          -5.89053143 Ha        -160.28951578 eV
  | van der Waals energy corr.    :           0.00000000 Ha           0.00000000 eV
  | Entropy correction            :          -0.00010367 Ha          -0.00282095 eV
  | ---------------------------
  | Total energy                  :        -306.71603932 Ha       -8346.16807818 eV
  | Total energy, T -> 0          :        -306.71614299 Ha       -8346.17089913 eV  <-- do not rely on this value for anything but (periodic) metals
  | Electronic free energy        :        -306.71624665 Ha       -8346.17372008 eV

  Derived energy quantities:
  | Kinetic energy                :         305.97877246 Ha        8326.10602613 eV
  | Electrostatic energy          :        -575.14945513 Ha      -15650.61296848 eV
  | Energy correction for multipole
  | error in Hartree potential    :          -0.00437801 Ha          -0.11913182 eV
  | Sum of eigenvalues per atom                           :        -352.69886845 eV
  | Total energy (T->0) per atom                          :        -642.01314609 eV  <-- do not rely on this value for anything but (periodic) metals
  | Electronic free energy per atom                       :        -642.01336308 eV

  Self-consistency convergence accuracy:
  | Change of charge density      : 0.3362E-01
  | Change of sum of eigenvalues  : -.5167E+01 eV
  | Change of total energy        : 0.1434E-01 eV

  End self-consistency iteration #     5       :  max(cpu_time)    wall_clock(cpu1)
  | Time for this iteration                    :        1.418 s           1.417 s
  | Charge density update                      :        0.466 s           0.465 s
  | Density mixing                             :        0.008 s           0.008 s
  | Hartree multipole update                   :        0.004 s           0.005 s
  | Hartree multipole summation                :        0.244 s           0.243 s
  | Integration                                :        0.660 s           0.660 s
  | Solution of K.-S. eqns.                    :        0.036 s           0.036 s
  | Total energy evaluation                    :        0.000 s           0.000 s
------------------------------------------------------------

------------------------------------------------------------
          Begin self-consistency iteration #    6

  Date     :  20150727, Time     :  120554.263
------------------------------------------------------------
  Evaluating new KS density.
  Integration grid: deviation in total charge (<rho> - N_e) =  -1.421085E-14
  Pulay mixing of updated and previous charge densities.

  Evaluating partitioned Hartree potential by multipole expansion.
  | Analytical far-field extrapolation by fixed multipoles:
  | Hartree multipole sum: apparent total charge =  -0.397800E-05
  Summing up the Hartree potential.
  Time summed over all CPUs for potential: real work        1.918 s, elapsed        1.940 s
  | RMS charge density error from multipole expansion :   0.162685E-01

  Integrating Hamiltonian matrix: batch-based integration.
  Time summed over all CPUs for integration: real work        5.131 s, elapsed        5.268 s

  Updating Kohn-Sham eigenvalues, eigenvectors, occupation numbers, and Fermi level.
  Solving generalized eigenproblem
  Updating Kohn-Sham eigenvalues and eigenfunctions.
  Solving real generalised eigenvalue problem by standard LAPACK (fast)
  Determining occupation numbers for Kohn-Sham eigenstates.
  | Chemical potential (Fermi level) in eV                 : -.18244535E+01
  | Error in electron count due to remaining E_F inaccuracy: 0.00000000E+00
  | Maximum occupation number of highest empty state:  0.00E+00

  Highest occupied state (VBM) at     -1.82445355 eV
  | Occupation number:      1.00000000

  Lowest unoccupied state (CBM) at    -1.82445355 eV
  | Occupation number:      1.00000000

  Overall HOMO-LUMO gap:      0.00000000 eV.

  Total energy components:
  | Sum of eigenvalues            :        -168.44223906 Ha       -4583.54653313 eV
  | XC energy correction          :         -37.55446873 Ha       -1021.90908843 eV
  | XC potential correction       :          48.00877386 Ha        1306.38520485 eV
  | Free-atom electrostatic energy:        -142.77862903 Ha       -3885.20417279 eV
  | Hartree energy correction     :          -5.94950432 Ha        -161.89424962 eV
  | van der Waals energy corr.    :           0.00000000 Ha           0.00000000 eV
  | Entropy correction            :          -0.00010367 Ha          -0.00282095 eV
  | ---------------------------
  | Total energy                  :        -306.71606728 Ha       -8346.16883912 eV
  | Total energy, T -> 0          :        -306.71617095 Ha       -8346.17166007 eV  <-- do not rely on this value for anything but (periodic) metals
  | Electronic free energy        :        -306.71627462 Ha       -8346.17448101 eV

  Derived energy quantities:
  | Kinetic energy                :         305.98130311 Ha        8326.17488882 eV
  | Electrostatic energy          :        -575.14290166 Ha      -15650.43463951 eV
  | Energy correction for multipole
  | error in Hartree potential    :          -0.00463711 Ha          -0.12618212 eV
  | Sum of eigenvalues per atom                           :        -352.58050255 eV
  | Total energy (T->0) per atom                          :        -642.01320462 eV  <-- do not rely on this value for anything but (periodic) metals
  | Electronic free energy per atom                       :        -642.01342162 eV

  Self-consistency convergence accuracy:
  | Change of charge density      : 0.1067E-01
  | Change of sum of eigenvalues  : 0.1539E+01 eV
  | Change of total energy        : -.7609E-03 eV

  End self-consistency iteration #     6       :  max(cpu_time)    wall_clock(cpu1)
  | Time for this iteration                    :        1.419 s           1.419 s
  | Charge density update                      :        0.466 s           0.465 s
  | Density mixing                             :        0.009 s           0.009 s
  | Hartree multipole update                   :        0.004 s           0.005 s
  | Hartree multipole summation                :        0.244 s           0.243 s
  | Integration                                :        0.660 s           0.660 s
  | Solution of K.-S. eqns.                    :        0.035 s           0.035 s
  | Total energy evaluation                    :        0.001 s           0.001 s
------------------------------------------------------------

------------------------------------------------------------
          Begin self-consistency iteration #    7

  Date     :  20150727, Time     :  120555.682
------------------------------------------------------------
  Evaluating new KS density.
  Integration grid: deviation in total charge (<rho> - N_e) =   1.421085E-14
  Pulay mixing of updated and previous charge densities.

  Evaluating partitioned Hartree potential by multipole expansion.
  | Analytical far-field extrapolation by fixed multipoles:
  | Hartree multipole sum: apparent total charge =  -0.396843E-05
  Summing up the Hartree potential.
  Time summed over all CPUs for potential: real work        1.918 s, elapsed        1.940 s
  | RMS charge density error from multipole expansion :   0.162749E-01

  Integrating Hamiltonian matrix: batch-based integration.
  Time summed over all CPUs for integration: real work        5.135 s, elapsed        5.282 s

  Updating Kohn-Sham eigenvalues, eigenvectors, occupation numbers, and Fermi level.
  Solving generalized eigenproblem
  Updating Kohn-Sham eigenvalues and eigenfunctions.
  Solving real generalised eigenvalue problem by standard LAPACK (fast)
  Determining occupation numbers for Kohn-Sham eigenstates.
  | Chemical potential (Fermi level) in eV                 : -.18315207E+01
  | Error in electron count due to remaining E_F inaccuracy: 0.36727954E-10
  | Maximum occupation number of highest empty state:  0.00E+00

  Highest occupied state (VBM) at     -1.83152066 eV
  | Occupation number:      1.00000000

  Lowest unoccupied state (CBM) at    -1.18025703 eV
  | Occupation number:      0.00000000

  Overall HOMO-LUMO gap:      0.65126364 eV.

  Total energy components:
  | Sum of eigenvalues            :        -168.47640007 Ha       -4584.47610147 eV
  | XC energy correction          :         -37.55048514 Ha       -1021.80068933 eV
  | XC potential correction       :          48.00348596 Ha        1306.24131373 eV
  | Free-atom electrostatic energy:        -142.77862903 Ha       -3885.20417279 eV
  | Hartree energy correction     :          -5.91401643 Ha        -160.92857502 eV
  | van der Waals energy corr.    :           0.00000000 Ha           0.00000000 eV
  | Entropy correction            :          -0.00010367 Ha          -0.00282095 eV
  | ---------------------------
  | Total energy                  :        -306.71604471 Ha       -8346.16822489 eV
  | Total energy, T -> 0          :        -306.71614838 Ha       -8346.17104584 eV  <-- do not rely on this value for anything but (periodic) metals
  | Electronic free energy        :        -306.71625204 Ha       -8346.17386679 eV

  Derived energy quantities:
  | Kinetic energy                :         306.00140383 Ha        8326.72185723 eV
  | Electrostatic energy          :        -575.16696340 Ha      -15651.08939279 eV
  | Energy correction for multipole
  | error in Hartree potential    :          -0.00476373 Ha          -0.12962761 eV
  | Sum of eigenvalues per atom                           :        -352.65200781 eV
  | Total energy (T->0) per atom                          :        -642.01315737 eV  <-- do not rely on this value for anything but (periodic) metals
  | Electronic free energy per atom                       :        -642.01337437 eV

  Self-consistency convergence accuracy:
  | Change of charge density      : 0.6138E-02
  | Change of sum of eigenvalues  : -.9296E+00 eV
  | Change of total energy        : 0.6142E-03 eV

  End self-consistency iteration #     7       :  max(cpu_time)    wall_clock(cpu1)
  | Time for this iteration                    :        1.419 s           1.419 s
  | Charge density update                      :        0.463 s           0.463 s
  | Density mixing                             :        0.010 s           0.010 s
  | Hartree multipole update                   :        0.004 s           0.005 s
  | Hartree multipole summation                :        0.243 s           0.243 s
  | Integration                                :        0.662 s           0.662 s
  | Solution of K.-S. eqns.                    :        0.035 s           0.035 s
  | Total energy evaluation                    :        0.000 s           0.001 s
------------------------------------------------------------

------------------------------------------------------------
          Begin self-consistency iteration #    8

  Date     :  20150727, Time     :  120557.101
------------------------------------------------------------
  Evaluating new KS density.
  Integration grid: deviation in total charge (<rho> - N_e) =   3.672085E-11
  Pulay mixing of updated and previous charge densities.

  Evaluating partitioned Hartree potential by multipole expansion.
  | Analytical far-field extrapolation by fixed multipoles:
  | Hartree multipole sum: apparent total charge =  -0.400041E-05
  Summing up the Hartree potential.
  Time summed over all CPUs for potential: real work        1.918 s, elapsed        1.940 s
  | RMS charge density error from multipole expansion :   0.163380E-01

  Integrating Hamiltonian matrix: batch-based integration.
  Time summed over all CPUs for integration: real work        5.128 s, elapsed        5.272 s

  Updating Kohn-Sham eigenvalues, eigenvectors, occupation numbers, and Fermi level.
  Solving generalized eigenproblem
  Updating Kohn-Sham eigenvalues and eigenfunctions.
  Solving real generalised eigenvalue problem by standard LAPACK (fast)
  Determining occupation numbers for Kohn-Sham eigenstates.
  | Chemical potential (Fermi level) in eV                 : -.18419068E+01
  | Error in electron count due to remaining E_F inaccuracy: 0.00000000E+00
  | Maximum occupation number of highest empty state:  0.00E+00

  Highest occupied state (VBM) at     -1.84190682 eV
  | Occupation number:      1.00000000

  Lowest unoccupied state (CBM) at    -1.84190682 eV
  | Occupation number:      1.00000000

  Overall HOMO-LUMO gap:      0.00000000 eV.

  Total energy components:
  | Sum of eigenvalues            :        -168.50313725 Ha       -4585.20365713 eV
  | XC energy correction          :         -37.54862017 Ha       -1021.74994081 eV
  | XC potential correction       :          48.00090969 Ha        1306.17121003 eV
  | Free-atom electrostatic energy:        -142.77862903 Ha       -3885.20417279 eV
  | Hartree energy correction     :          -5.88656178 Ha        -160.18149607 eV
  | van der Waals energy corr.    :           0.00000000 Ha           0.00000000 eV
  | Entropy correction            :          -0.00010367 Ha          -0.00282095 eV
  | ---------------------------
  | Total energy                  :        -306.71603853 Ha       -8346.16805677 eV
  | Total energy, T -> 0          :        -306.71614220 Ha       -8346.17087771 eV  <-- do not rely on this value for anything but (periodic) metals
  | Electronic free energy        :        -306.71624587 Ha       -8346.17369866 eV

  Derived energy quantities:
  | Kinetic energy                :         306.00650016 Ha        8326.86053548 eV
  | Electrostatic energy          :        -575.17391853 Ha      -15651.27865144 eV
  | Energy correction for multipole
  | error in Hartree potential    :          -0.00488731 Ha          -0.13299034 eV
  | Sum of eigenvalues per atom                           :        -352.70797363 eV
  | Total energy (T->0) per atom                          :        -642.01314444 eV  <-- do not rely on this value for anything but (periodic) metals
  | Electronic free energy per atom                       :        -642.01336144 eV

  Self-consistency convergence accuracy:
  | Change of charge density      : 0.3288E-02
  | Change of sum of eigenvalues  : -.7276E+00 eV
  | Change of total energy        : 0.1681E-03 eV

  End self-consistency iteration #     8       :  max(cpu_time)    wall_clock(cpu1)
  | Time for this iteration                    :        1.419 s           1.419 s
  | Charge density update                      :        0.464 s           0.463 s
  | Density mixing                             :        0.011 s           0.012 s
  | Hartree multipole update                   :        0.005 s           0.004 s
  | Hartree multipole summation                :        0.243 s           0.243 s
  | Integration                                :        0.660 s           0.660 s
  | Solution of K.-S. eqns.                    :        0.036 s           0.035 s
  | Total energy evaluation                    :        0.000 s           0.000 s
------------------------------------------------------------

------------------------------------------------------------
          Begin self-consistency iteration #    9

  Date     :  20150727, Time     :  120558.520
------------------------------------------------------------
  Evaluating new KS density.
  Integration grid: deviation in total charge (<rho> - N_e) =   0.000000E+00
  Pulay mixing of updated and previous charge densities.

  Evaluating partitioned Hartree potential by multipole expansion.
  | Analytical far-field extrapolation by fixed multipoles:
  | Hartree multipole sum: apparent total charge =  -0.399337E-05
  Summing up the Hartree potential.
  Time summed over all CPUs for potential: real work        1.918 s, elapsed        1.941 s
  | RMS charge density error from multipole expansion :   0.163294E-01

  Integrating Hamiltonian matrix: batch-based integration.
  Time summed over all CPUs for integration: real work        5.127 s, elapsed        5.293 s

  Updating Kohn-Sham eigenvalues, eigenvectors, occupation numbers, and Fermi level.
  Solving generalized eigenproblem
  Updating Kohn-Sham eigenvalues and eigenfunctions.
  Solving real generalised eigenvalue problem by standard LAPACK (fast)
  Determining occupation numbers for Kohn-Sham eigenstates.
  | Chemical potential (Fermi level) in eV                 : -.18453936E+01
  | Error in electron count due to remaining E_F inaccuracy: 0.00000000E+00
  | Maximum occupation number of highest empty state:  0.00E+00

  Highest occupied state (VBM) at     -1.84539359 eV
  | Occupation number:      1.00000000

  Lowest unoccupied state (CBM) at    -1.84539359 eV
  | Occupation number:      1.00000000

  Overall HOMO-LUMO gap:      0.00000000 eV.

  Total energy components:
  | Sum of eigenvalues            :        -168.51333025 Ha       -4585.48102288 eV
  | XC energy correction          :         -37.54768461 Ha       -1021.72448304 eV
  | XC potential correction       :          47.99967045 Ha        1306.13748845 eV
  | Free-atom electrostatic energy:        -142.77862903 Ha       -3885.20417279 eV
  | Hartree energy correction     :          -5.87606408 Ha        -159.89583892 eV
  | van der Waals energy corr.    :           0.00000000 Ha           0.00000000 eV
  | Entropy correction            :          -0.00010367 Ha          -0.00282095 eV
  | ---------------------------
  | Total energy                  :        -306.71603752 Ha       -8346.16802918 eV
  | Total energy, T -> 0          :        -306.71614118 Ha       -8346.17085013 eV  <-- do not rely on this value for anything but (periodic) metals
  | Electronic free energy        :        -306.71624485 Ha       -8346.17367108 eV

  Derived energy quantities:
  | Kinetic energy                :         306.01231073 Ha        8327.01864894 eV
  | Electrostatic energy          :        -575.18066363 Ha      -15651.46219508 eV
  | Energy correction for multipole
  | error in Hartree potential    :          -0.00491363 Ha          -0.13370660 eV
  | Sum of eigenvalues per atom                           :        -352.72930945 eV
  | Total energy (T->0) per atom                          :        -642.01314232 eV  <-- do not rely on this value for anything but (periodic) metals
  | Electronic free energy per atom                       :        -642.01335931 eV

  Self-consistency convergence accuracy:
  | Change of charge density      : 0.1409E-02
  | Change of sum of eigenvalues  : -.2774E+00 eV
  | Change of total energy        : 0.2758E-04 eV

  End self-consistency iteration #     9       :  max(cpu_time)    wall_clock(cpu1)
  | Time for this iteration                    :        1.423 s           1.422 s
  | Charge density update                      :        0.463 s           0.463 s
  | Density mixing                             :        0.013 s           0.013 s
  | Hartree multipole update                   :        0.005 s           0.004 s
  | Hartree multipole summation                :        0.243 s           0.243 s
  | Integration                                :        0.663 s           0.663 s
  | Solution of K.-S. eqns.                    :        0.035 s           0.036 s
  | Total energy evaluation                    :        0.000 s           0.000 s
------------------------------------------------------------

------------------------------------------------------------
          Begin self-consistency iteration #   10

  Date     :  20150727, Time     :  120559.942
------------------------------------------------------------
  Evaluating new KS density.
  Integration grid: deviation in total charge (<rho> - N_e) =   2.131628E-14
[...]
  | Electronic free energy        :        -306.71817882 Ha       -8346.22629708 eV

  Derived energy quantities:
  | Kinetic energy                :         306.01679382 Ha        8327.14064009 eV
  | Electrostatic energy          :        -575.18547688 Ha      -15651.59317014 eV
  | Energy correction for multipole
  | error in Hartree potential    :          -0.00494971 Ha          -0.13468855 eV
  | Sum of eigenvalues per atom                           :        -352.73874001 eV
  | Total energy (T->0) per atom                          :        -642.01719047 eV  <-- do not rely on this value for anything but (periodic) metals
  | Electronic free energy per atom                       :        -642.01740747 eV

  atomic forces [eV/Ang]:
  -----------------------
  atom #    1
   Hellmann-Feynman + Multipole  : -.238072E+01 -.760299E+01 -.766574E+01
   Pulay + GGA                   : 0.283215E+01 0.887445E+01 0.613223E+01
   Van der Waals               : 0.500836E-02 -.351446E-02 -.252842E-02
   ----------------------------------------------------------------
   Total forces(   1)            : 0.456433E+00 0.126794E+01 -.153603E+01
  atom #    2
   Hellmann-Feynman + Multipole  : 0.298780E+00 -.672544E+00 0.194952E+00
   Pulay + GGA                   : -.213202E-01 0.584375E-01 -.366596E-01
   Van der Waals               : -.309116E-04 0.140666E-02 0.615082E-03
   ----------------------------------------------------------------
   Total forces(   2)            : 0.277429E+00 -.612699E+00 0.158907E+00
  atom #    3
   Hellmann-Feynman + Multipole  : -.807635E+00 -.292784E+00 0.289822E-01
   Pulay + GGA                   : 0.150491E+00 0.451260E-01 0.639978E-02
   Van der Waals               : 0.430332E-02 -.242470E-02 0.163965E-02
   ----------------------------------------------------------------
   Total forces(   3)            : -.652841E+00 -.250082E+00 0.370216E-01
  atom #    4
   Hellmann-Feynman + Multipole  : -.323612E-01 -.185201E+00 0.111661E+01
   Pulay + GGA                   : -.352238E-01 -.128740E-01 0.751155E-01
   Van der Waals               : 0.123021E-02 -.180275E-02 0.415265E-02
   ----------------------------------------------------------------
   Total forces(   4)            : -.663548E-01 -.199878E+00 0.119588E+01
  atom #    5
   Hellmann-Feynman + Multipole  : 0.712180E+01 -.518880E+01 -.739790E+01
   Pulay + GGA                   : -.779160E+01 0.296927E+01 0.587965E+01
   Van der Waals               : -.295858E-02 -.614970E-02 -.104960E-02
   ----------------------------------------------------------------
   Total forces(   5)            : -.672764E+00 -.222568E+01 -.151930E+01
  atom #    6
   Hellmann-Feynman + Multipole  : 0.137510E+00 0.154522E+01 0.123718E+01
   Pulay + GGA                   : 0.664338E-02 0.499227E-01 0.804207E-01
   Van der Waals               : -.199080E-02 0.151530E-02 0.368417E-02
   ----------------------------------------------------------------
   Total forces(   6)            : 0.142162E+00 0.159666E+01 0.132128E+01
  atom #    7
   Hellmann-Feynman + Multipole  : 0.485541E+00 0.548610E+00 0.113773E+00
   Pulay + GGA                   : -.112302E+00 -.548722E-01 0.416699E-01
   Van der Waals               : -.585701E-03 0.149216E-02 0.640725E-03
   ----------------------------------------------------------------
   Total forces(   7)            : 0.372654E+00 0.495230E+00 0.156084E+00
  atom #    8
   Hellmann-Feynman + Multipole  : -.640314E+01 -.686143E+01 0.893031E+01
   Pulay + GGA                   : 0.682939E+01 0.615301E+01 -.584475E+01
   Van der Waals               : -.209602E-02 0.275486E-02 0.262329E-02
   ----------------------------------------------------------------
   Total forces(   8)            : 0.424153E+00 -.705659E+00 0.308818E+01
  atom #    9
   Hellmann-Feynman + Multipole  : -.442740E-01 -.359640E-01 -.715395E-01
   Pulay + GGA                   : 0.729363E-01 0.125526E+00 0.561708E-01
   Van der Waals               : -.120448E-02 0.333664E-02 0.372612E-02
   ----------------------------------------------------------------
   Total forces(   9)            : 0.274578E-01 0.928986E-01 -.116426E-01
  atom #   10
   Hellmann-Feynman + Multipole  : -.314089E+00 0.436443E+00 -.281022E+01
   Pulay + GGA                   : -.391457E-01 0.217276E-01 -.140214E+00
   Van der Waals               : -.214226E-02 0.225961E-02 -.497734E-03
   ----------------------------------------------------------------
   Total forces(  10)            : -.355377E+00 0.460431E+00 -.295093E+01
  atom #   11
   Hellmann-Feynman + Multipole  : 0.762279E+01 -.424491E+01 -.923150E+01
   Pulay + GGA                   : -.871477E+01 0.544084E+01 0.106109E+02
   Van der Waals               : 0.828342E-03 0.129340E-02 -.668480E-02
   ----------------------------------------------------------------
   Total forces(  11)            : -.109115E+01 0.119722E+01 0.137270E+01
  atom #   12
   Hellmann-Feynman + Multipole  : -.358481E+00 0.306031E+00 -.185846E+01
   Pulay + GGA                   : 0.266221E-01 -.353878E-03 0.141712E+00
   Van der Waals               : -.232630E-03 0.625633E-04 -.956109E-03
   ----------------------------------------------------------------
   Total forces(  12)            : -.332092E+00 0.305740E+00 -.171771E+01
  atom #   13
   Hellmann-Feynman + Multipole  : 0.157678E+01 -.153674E+01 0.453392E+00
   Pulay + GGA                   : -.991739E-01 0.110297E+00 -.305667E-01
   Van der Waals               : -.128829E-03 -.229588E-03 -.536503E-02
   ----------------------------------------------------------------
   Total forces(  13)            : 0.147748E+01 -.142667E+01 0.417460E+00
  Timings for vdw_correction_hirshfeld (Tkatchenko-Scheffler 2009):
  | CPU time:        3.825 s, Wall clock time:        3.825 s.
  Removing unitary transformations (pure translations, rotations) from forces on atoms.
  Atomic forces before filtering:
  | Net force on center of mass :  0.718521E-02 -.454547E-02 0.118961E-01 eV/A
  | Net torque on center of mass:  0.244987E-01 -.187763E-01 -.313356E-02 eV
  Atomic forces after filtering:
  | Net force on center of mass :  -.356812E-15 -.178406E-15 -.624421E-15 eV/A
  | Net torque on center of mass:  -.151054E-14 0.181736E-14 -.755268E-15 eV
 
  Energy and forces in a compact form:
  | Total energy uncorrected      :         -0.834622065518244E+04 eV
  | Total energy corrected        :         -0.834622347613036E+04 eV  <-- do not rely on this value for anything but (periodic) metals
  | Electronic free energy        :         -0.834622629707828E+04 eV
  Total atomic forces (unitary forces cleaned) [eV/Ang]:
  |   1          0.455425001056020E+00          0.126781233826609E+01         -0.153669987069245E+01
  |   2          0.276286920433804E+00         -0.612970856000349E+00          0.158091898290538E+00
  |   3         -0.653833475496101E+00         -0.250193236992063E+00          0.359320425212703E-01
  |   4         -0.670433593290230E-01         -0.199676794679352E+00          0.119535646471446E+01
  |   5         -0.672945806365881E+00         -0.222494804151445E+01         -0.151967881295121E+01
  |   6          0.142165298001290E+00          0.159758612189651E+01          0.132056952723110E+01
  |   7          0.372570130208169E+00          0.496058115450861E+00          0.156143117183379E+00
  |   8          0.422866501424002E+00         -0.706079852175282E+00          0.308717701823044E+01
  |   9          0.262854836844261E-01          0.926043586471418E-01         -0.130779815575705E-01
  |  10         -0.356967564632483E+00          0.459689864294418E+00         -0.295193211954482E+01
  |  11         -0.109092895090469E+01          0.119839813316589E+01          0.137126707048456E+01
  |  12         -0.331528858935064E+00          0.307270869018453E+00         -0.171916187157314E+01
  |  13          0.147764868085553E+01         -0.142555101937787E+01          0.416013517663437E+00
 
  ------------------------------------ 
  Start decomposition of the XC Energy 
  ------------------------------------ 
  Hartree-Fock part   :          0.000000000 Ha              0.000000000 eV
  ------------------------------------ 
  X Energy            :        -36.215359417 Ha           -985.470069915 eV
  C Energy GGA        :         -1.331994533 Ha            -36.245415377 eV
  Total XC Energy     :        -37.547353950 Ha          -1021.715485292 eV
  LDA X and C from self-consistent density 
  X Energy LDA        :        -32.649556444 Ha           -888.439634165 eV
  C Energy LDA        :         -2.678226115 Ha            -72.878240584 eV
  ------------------------------------ 
  End decomposition of the XC Energy 
  ------------------------------------ 
  Performing Hirshfeld analysis of fragment charges and moments.
  ----------------------------------------------------------------------
  | Atom     1: O
  |   Hirshfeld charge        :     -0.13846420
  |   Free atom volume        :     23.95238533
  |   Hirshfeld volume        :     22.24970269
  |   Hirshfeld dipole vector :     -0.00662938       0.02423231       0.03101661
  |   Hirshfeld dipole moment :      0.03991470
  |   Hirshfeld second moments:      0.07605330      -0.00719160      -0.00203073
  |                                 -0.00719160       0.03002149      -0.02686074
  |                                 -0.00203073      -0.02686074       0.04580945
  ----------------------------------------------------------------------
  | Atom     2: H
  |   Hirshfeld charge        :      0.10138592
  |   Free atom volume        :     10.44207651
  |   Hirshfeld volume        :     10.82834304
  |   Hirshfeld dipole vector :     -0.01718787       0.00361862       0.00220276
  |   Hirshfeld dipole moment :      0.01770225
  |   Hirshfeld second moments:      0.01697372       0.00732304       0.00509220
  |                                  0.00732304       0.01126038       0.00490915
  |                                  0.00509220       0.00490915       0.04306109
  ----------------------------------------------------------------------
  | Atom     3: H
  |   Hirshfeld charge        :      0.09367846
  |   Free atom volume        :     10.44207651
  |   Hirshfeld volume        :     14.09692542
  |   Hirshfeld dipole vector :      0.00062342      -0.01454378       0.01737521
  |   Hirshfeld dipole moment :      0.02266734
  |   Hirshfeld second moments:     -0.05280351      -0.03699150       0.00556950
  |                                 -0.03699150      -0.03344346      -0.00632918
  |                                  0.00556950      -0.00632918      -0.00170709
  ----------------------------------------------------------------------
  | Atom     4: H
  |   Hirshfeld charge        :      0.10400029
  |   Free atom volume        :     10.44207651
  |   Hirshfeld volume        :      9.80668874
  |   Hirshfeld dipole vector :     -0.01797115      -0.00171754       0.01701689
  |   Hirshfeld dipole moment :      0.02480900
  |   Hirshfeld second moments:      0.05618484       0.00452747       0.01044615
  |                                  0.00452747       0.05411171       0.00160875
  |                                  0.01044615       0.00160875       0.01642021
  ----------------------------------------------------------------------
  | Atom     5: O
  |   Hirshfeld charge        :     -0.23998251
  |   Free atom volume        :     23.95238533
  |   Hirshfeld volume        :     22.13074356
  |   Hirshfeld dipole vector :     -0.02152025       0.02208248      -0.00129793
  |   Hirshfeld dipole moment :      0.03086165
  |   Hirshfeld second moments:      0.02639607       0.04690070      -0.01150186
  |                                  0.04690070       0.02410546       0.01006709
  |                                 -0.01150186       0.01006709       0.05146263
  ----------------------------------------------------------------------
  | Atom     6: H
  |   Hirshfeld charge        :      0.08420150
  |   Free atom volume        :     10.44207651
  |   Hirshfeld volume        :      9.90957662
  |   Hirshfeld dipole vector :      0.00971695       0.02229219       0.02806227
  |   Hirshfeld dipole moment :      0.03713290
  |   Hirshfeld second moments:      0.03764171       0.00059945      -0.00189856
  |                                  0.00059945       0.01867030      -0.01360784
  |                                 -0.00189856      -0.01360784       0.05422277
  ----------------------------------------------------------------------
  | Atom     7: H
  |   Hirshfeld charge        :      0.12651805
  |   Free atom volume        :     10.44207651
  |   Hirshfeld volume        :      9.94040460
  |   Hirshfeld dipole vector :     -0.06537044      -0.04542502       0.01669282
  |   Hirshfeld dipole moment :      0.08133497
  |   Hirshfeld second moments:      0.03615377       0.01333750       0.00455489
  |                                  0.01333750       0.05210838       0.00943381
  |                                  0.00455489       0.00943381       0.06471608
  ----------------------------------------------------------------------
  | Atom     8: O
  |   Hirshfeld charge        :     -0.22116527
  |   Free atom volume        :     23.95238533
  |   Hirshfeld volume        :     23.51104040
  |   Hirshfeld dipole vector :      0.03109228      -0.00815400      -0.02385861
  |   Hirshfeld dipole moment :      0.04003062
  |   Hirshfeld second moments:     -0.03550869       0.00190364       0.04335435
  |                                  0.00190364       0.04064902       0.00210401
  |                                  0.04335435       0.00210401       0.03775675
  ----------------------------------------------------------------------
  | Atom     9: H
  |   Hirshfeld charge        :      0.06277885
  |   Free atom volume        :     10.44207651
  |   Hirshfeld volume        :     15.18610835
  |   Hirshfeld dipole vector :     -0.00349943       0.00372855       0.00581221
  |   Hirshfeld dipole moment :      0.00774143
  |   Hirshfeld second moments:     -0.09644762      -0.01974577       0.01688648
  |                                 -0.01974577      -0.04190655      -0.01736413
  |                                  0.01688648      -0.01736413      -0.02097067
  ----------------------------------------------------------------------
  | Atom    10: H
  |   Hirshfeld charge        :      0.09904695
  |   Free atom volume        :     10.44207651
  |   Hirshfeld volume        :     12.72604785
  |   Hirshfeld dipole vector :     -0.02066462      -0.00818221      -0.06089306
  |   Hirshfeld dipole moment :      0.06482237
  |   Hirshfeld second moments:     -0.02124842       0.00211385       0.02681015
  |                                  0.00211385       0.01907769       0.00771560
  |                                  0.02681015       0.00771560       0.00785741
  ----------------------------------------------------------------------
  | Atom    11: O
  |   Hirshfeld charge        :     -0.26143538
  |   Free atom volume        :     23.95238533
  |   Hirshfeld volume        :     23.75343184
  |   Hirshfeld dipole vector :     -0.04275930      -0.02187438       0.03182931
  |   Hirshfeld dipole moment :      0.05761901
  |   Hirshfeld second moments:     -0.04237826      -0.03626398       0.04562323
  |                                 -0.03626398       0.00890020       0.00675987
  |                                  0.04562323       0.00675987       0.00806102
  ----------------------------------------------------------------------
  | Atom    12: H
  |   Hirshfeld charge        :      0.10772702
  |   Free atom volume        :     10.44207651
  |   Hirshfeld volume        :     10.43194971
  |   Hirshfeld dipole vector :      0.01829539      -0.02088494       0.07955340
  |   Hirshfeld dipole moment :      0.08425939
  |   Hirshfeld second moments:      0.03204900      -0.01596065       0.02105914
  |                                 -0.01596065       0.04894713       0.00128611
  |                                  0.02105914       0.00128611       0.03530625
  ----------------------------------------------------------------------
  | Atom    13: H
  |   Hirshfeld charge        :      0.08170930
  |   Free atom volume        :     10.44207651
  |   Hirshfeld volume        :     12.57124255
  |   Hirshfeld dipole vector :     -0.04313600       0.02817619       0.00392796
  |   Hirshfeld dipole moment :      0.05167244
  |   Hirshfeld second moments:     -0.02760079      -0.00233877       0.01256567
  |                                 -0.00233877       0.00358796       0.01675680
  |                                  0.01256567       0.01675680       0.00852641
  ----------------------------------------------------------------------


------------------------------------------------------------------------------
  Final output of selected total energy values:

  The following output summarizes some interesting total energy values
  at the end of a run (AFTER all relaxation, molecular dynamics, etc.).

  | Total energy of the DFT / Hartree-Fock s.c.f. calculation      :          -8346.220655182 eV
  | Final zero-broadening corrected energy (caution - metals only) :          -8346.223476130 eV
  | For reference only, the value of 1 Hartree used in FHI-aims is :             27.211384500 eV

  Before relying on these values, please be sure to understand exactly which
  total energy value is referred to by a given number. Different objects may
  all carry the same name 'total energy'. Definitions:

  Total energy of the DFT / Hartree-Fock s.c.f. calculation:
  | Note that this energy does not include ANY quantities calculated after the
  | s.c.f. cycle, in particular not ANY RPA, MP2, etc. many-body perturbation terms.

  Final zero-broadening corrected energy:
  | For metallic systems only, a broadening of the occupation numbers at the Fermi
  | level can be extrapolated back to zero broadening by an electron-gas inspired
  | formula. For all systems that are not real metals, this value can be
  | meaningless and should be avoided.

------------------------------------------------------------------------------

------------------------------------------------------------
          Leaving FHI-aims.
          Date     :  20150727, Time     :  120616.699

          Computational steps:
          | Number of self-consistency cycles          :           17

          Detailed time accounting                     :  max(cpu_time)    wall_clock(cpu1)
          | Total time                                 :       31.527 s          31.551 s
          | Preparation time                           :        0.171 s           0.588 s
          | Grid partitioning                          :        0.118 s           0.117 s
          | Preloading free-atom quantities on grid    :        0.014 s           0.013 s
          | Free-atom superposition energy             :        0.052 s           0.053 s
          | Total time for integrations                :       12.302 s          12.304 s
          | Total time for solution of K.-S. equations :        0.739 s           0.738 s
          | Total time for density & force components  :       11.873 s          11.874 s
          | Total time for mixing                      :        0.189 s           0.189 s
          | Total time for Hartree multipole update    :        0.079 s           0.078 s
          | Total time for Hartree multipole sum       :        5.362 s           5.358 s
          | Total time for total energy evaluation     :        0.004 s           0.006 s
          | Total time for scaled ZORA corrections     :        0.000 s           0.000 s
          | Total time for TS (2009) vdW correction    :        0.040 s           0.040 s

          Have a nice day.
------------------------------------------------------------
