  MPI-parallelism will be employed.
------------------------------------------------------------
          Invoking FHI-aims ...
          Version 081213
          Compiled on 2013/08/29 at 17:41:06 on host generoso.

          When using FHI-aims, please cite the following reference:

          Volker Blum, Ralf Gehrke, Felix Hanke, Paula Havu,
          Ville Havu, Xinguo Ren, Karsten Reuter, and Matthias Scheffler,
          'Ab Initio Molecular Simulations with Numeric Atom-Centered Orbitals: FHI-aims',
          Computer Physics Communications 180, 2175-2196 (2009)

          For any questions about FHI-aims, please visit the aimsclub website
          with its forums and wiki. Contributions to both the forums and the
          wiki are warmly encouraged - they are for you, and everyone is welcome there.

------------------------------------------------------------

  Date     :  20150727, Time     :  123011.528
  Time zero on CPU 1             :   0.459920000000000E-01  s.
  Internal wall clock time zero  :           207232211.528  s.

  Using        8 parallel tasks.
  Task        0 on host gen59 reporting.
  Task        1 on host gen59 reporting.
  Task        2 on host gen59 reporting.
  Task        3 on host gen59 reporting.
  Task        4 on host gen59 reporting.
  Task        5 on host gen59 reporting.
  Task        6 on host gen59 reporting.
  Task        7 on host gen59 reporting.

  Performing system and environment tests:
  | Environment variable OMP_NUM_THREADS correctly set to 1.
  | Checking for scalapack...
  | No scalapack compiled in.

  Obtaining array dimensions for all initial allocations:
  
  -----------------------------------------------------------------------
  Parsing control.in (first pass over file, find array dimensions only).
  The contents of control.in will be repeated verbatim below
  unless switched off by setting 'verbatim_writeout .false.' .
  in the first line of control.in .
  -----------------------------------------------------------------------
  
  #########################################################################################
  #
  #  Volker Blum, FHI 2008 : Test run input file control.in
  #
  #########################################################################################
  #
  #  Physical model
  #
    xc                 rpbe
    spin               none
    relativistic       atomic_zora scalar
    charge             0.
   vdw_correction_hirshfeld
  #
  #  SCF convergence
  #
    occupation_type    gaussian 0.01
    mixer              pulay
      n_max_pulay        10
      charge_mix_param   0.1
    sc_accuracy_rho    5E-5
    sc_accuracy_eev    5E-3
    sc_accuracy_etot   5E-6
    sc_iter_limit      3000
  #
  #  Eigenvalue solver
  #
    KS_method          lapack
      empty_states       8
      basis_threshold    0.e-5
  #
  #  Efficiency
  #
  #   all previous settings are now default, except stratmann still
  #   undecided. Continue to handle stratmann with care, if at all.
  #
  #  partition_type stratmann
    partition_type rho_r2
  #  hartree_partition_type stratmann
  #
  #  Oprions for large clusters (100's of atoms: memory saving / better scaling)
  #
  # for periodic systems:
  #
    density_update_method orbital
    packed_matrix_format none
  #  k_grid 6 6 6
  #  output k_eigenvalue 1
  #  distributed_spline_storage .true.
  #
  #  Relaxation
  #
  #  relax_geometry   bfgs 5.e-3
    sc_accuracy_forces 5.E-4
    final_forces_cleaned .true.
  #
  #  Output options
  #
  #  output mulliken
    output Hirshfeld
  #  output dipole
  
  #harmonic_length_scale 0.001
  
  ################################################################################
  #
  #  FHI-aims code project
  #  VB, Fritz-Haber Institut, 2007
  #
  #  Suggested "safe" defaults for H atom (to be pasted into control.in file)
  #  Basis constructed for a non-relativistic H2 molecule using the
  #  PW-LDA functional.
  #
  ################################################################################
    species        H
  #     global species definitions
      nucleus             1
      cut_pot             4.0  2.0  1.0
      cut_free_atom       finite 8.0
      logarithmic         0.00010000 100.00  1.0123
      basis_dep_cutoff    1d-4  # 1d-4 is safe default - please check 5d-4 if you wish!
      radial_base         24 7.0
      radial_multiplier   2
      angular_grids       specified
        division   0.2783  110
        division   0.3822  194
        division   0.5626  302
  #      division   0.5922  434
  #      division   0.6227  590
  #      division   0.7206  770
        outer_grid  302
      l_hartree           4
  ################################################################################
  #
  #  Definition of "minimal" basis
  #
  ################################################################################
  #     valence basis states
      valence      1  s   1.
  #     ion occupancy
      ion_occ      1  s   0.5
  ################################################################################
  #
  #  Suggested additional basis functions. For production calculations,
  #  uncomment them one after another (the most important basis functions are
  #  listed first).
  #
  ################################################################################
  #  "First tier" - improvements: -1014.90 meV to -62.69 meV
       hydro 2 s 2.1
       hydro 2 p 3.5
  #  "Second tier" - improvements: -12.89 meV to -1.83 meV
       hydro 1 s 0.85
       hydro 2 p 3.7
       hydro 2 s 1.2
       hydro 3 d 7
  #  "Third tier" - improvements: -0.25 meV to -0.12 meV
  #     hydro 4 f 11.2
  #     hydro 3 p 4.8
  #     hydro 4 d 9
  #     hydro 3 s 3.2
  
  ################################################################################
  #
  #  FHI-aims code project
  #  VB, Fritz-Haber Institut, 2007
  #
  #  Suggested "safe" defaults for O atom (to be pasted into control.in file)
  #  All values have been tested for a non-relativistic, non-spinpolarized O2
  #  molecule using the PW-LDA functional. Validity for PBE is expected.
  #
  #  Constructed for dimers: 1.0 A, 1.208 A, 1.5 A, 2.0 A, 3.0 A
  #
  ################################################################################
    species        O
  #     global species definitions
      nucleus             8
      mass                15.9994
      l_hartree           4
      cut_pot             4.0  2.0  1.0
      cut_free_atom       finite 8.0
      basis_dep_cutoff    1d-4  # 1d-4 is safe default - please check 5d-4 if you wish!
      logarithmic         0.00010000 100.00  1.0123
      radial_base         36 7.0
      radial_multiplier   2
       angular_grids specified
        division   0.4087  110
        division   0.5181  194
        division   0.6184  302
  #      division   0.7315  434
  #      division   0.7934  590
  #      division   0.9656  770
  #      division   1.4041  974
  #      outer_grid 974
        outer_grid 302
  ################################################################################
  #
  #  Definition of "minimal" basis
  #
  ################################################################################
  #     valence basis states
      valence      2  s   2.
      valence      2  p   4.
  #     ion occupancy
      ion_occ      2  s   1.
      ion_occ      2  p   3.
  ################################################################################
  #
  #  Suggested additional basis functions. For production calculations,
  #  uncomment them one after another (the most important basis functions are
  #  listed first).
  #
  ################################################################################
  #  "First tier" - improvements: -699.05 meV to -159.38 meV
       hydro 2 p 1.8
       hydro 3 d 7.6
       hydro 3 s 6.4
  #  "Second tier" - improvements: -49.91 meV to -5.39 meV
       hydro 4 f 11.6
       hydro 3 p 6.2
       hydro 3 d 5.6
       hydro 5 g 17.6
       hydro 1 s 0.75
  #  "Third tier" - improvements: -2.83 meV to -0.50 meV
  #     ionic 2 p auto
  #     hydro 4 f 10.8
  #     hydro 4 d 4.7
  #     hydro 2 s 6.8
  #  "Fourth tier" - improvements: -0.40 meV to -0.12 meV
  #     hydro 3 p 5
  #     hydro 3 s 3.3
  #     hydro 5 g 15.6
  #     hydro 4 f 17.6
  #     hydro 4 d 14
  # Further basis functions - -0.08 meV and below
  #     hydro 3 s 2.1
  #     hydro 4 d 11.6
  #     hydro 3 p 16
  #     hydro 2 s 17.2
  
  
  -----------------------------------------------------------------------
  Completed first pass over input file control.in .
  -----------------------------------------------------------------------
  
  
  -----------------------------------------------------------------------
  Parsing geometry.in (first pass over file, find array dimensions only).
  The contents of geometry.in will be repeated verbatim below
  unless switched off by setting 'verbatim_writeout .false.' .
  in the first line of geometry.in .
  -----------------------------------------------------------------------
  
  atom      -4.053030000      0.065001000     -1.525160000  O
  atom      -4.566710000      0.974813000     -1.912820000  H
  atom      -3.067820000      0.330172000     -1.477310000  H
  atom      -4.370360000     -0.049164000     -0.572274000  H
  atom      -4.581760000     -0.256435000      0.939478000  O
  atom      -4.349860000      0.471090000      1.504340000  H
  atom      -5.393870000     -0.726611000      1.228070000  H
  atom      -1.975360000      2.858040000      0.453140000  O
  atom      -1.223550000      3.375850000      0.786238000  H
  atom      -2.537520000      2.567960000      1.156120000  H
  atom      -4.066610000      4.258280000     -0.900064000  O
  atom      -3.224110000      3.876870000     -0.569443000  H
  atom      -3.737450000      5.116530000     -1.322720000  H
  
  -----------------------------------------------------------------------
  Completed first pass over input file geometry.in .
  -----------------------------------------------------------------------
  
 
  Basic array size parameters: 
  | Number of species                 :        2
  | Number of atoms                   :       13
  | Max. basis fn. angular momentum   :        4
  | Max. atomic/ionic basis occupied n:        2
  | Max. number of basis fn. types    :        2
  | Max. radial fns per species/type  :        8
  | Max. logarithmic grid size        :     1301
  | Max. radial integration grid size :       73
  | Max. angular integration grid size:      302
  | Max. angular grid division number :        8
  | Radial grid for Hartree potential :     1301
  | Number of spin channels           :        1

------------------------------------------------------------
          Reading file control.in.
------------------------------------------------------------
  XC: Using RPBE gradient-corrected functionals.
  Spin treatment: No spin polarisation.
  Scalar relativistic treatment of kinetic energy: on-site free-atom approximation to ZORA.
  Charge =   0.000000E+00: Neutral system requested explicitly.
  Using non-empirical van der Waals correction (Hirshfeld partitioning):
  Occupation type: Gaussian broadening, width =   0.100000E-01 eV.
  Using pulay charge density mixing.
  Pulay mixing - number of memorized iterations:   10
  Charge density mixing - mixing parameter:     0.1000
  Convergence accuracy of self-consistent charge density: 0.5000E-04
  Convergence accuracy of sum of eigenvalues: 0.5000E-02
  Convergence accuracy of total energy: 0.5000E-05
  Maximum number of s.-c. iterations  :  3000
  Kohn-Sham eigenvalues and eigenfunctions calculated by lapack diagonalisation (D&C).
  Number of empty states per atom:        8
  Threshold for basis singularities: 0.0000E+00
  Partition function in integrals calculations: rho / r^2
 Using packed matrix format           0
  Convergence accuracy of forces: 0.5000E-03
  Cleaning forces before final output.
  Hirshfeld charge analysis will be performed.
 
  Reading configuration options for species H                   .
  | Found nuclear charge :   1.0000
  | Found cutoff potl. onset [A], width [A], scale factor :    4.00000    2.00000    1.00000
  | Found cutoff specification for free atom: Cutoff potential begins at    8.00000 A.
  | Found logarithmic grid data [bohr] : 0.1000E-03 0.1000E+03 0.1012E+01
  | Threshold for basis-dependent cutoff potential is   0.100000E-03
  | Found data for basic radial integration grid :    24 points, outermost radius =    7.000 A
  | Found multiplier for basic radial grid :   2
  | Found angular grid specification: user-specified.
  | Specified grid contains     4 separate shells.
  | Check grid settings after all constraints further below.
  | Found l_max for Hartree potential  :   4
  | Found free-atom valence shell :  1 s   1.000
  | No ionic wave fns used. Skipping ion_occ.
  | Found hydrogenic basis function :  2 s   2.100
  | Found hydrogenic basis function :  2 p   3.500
  | Found hydrogenic basis function :  1 s   0.850
  | Found hydrogenic basis function :  2 p   3.700
  | Found hydrogenic basis function :  2 s   1.200
  | Found hydrogenic basis function :  3 d   7.000
  Species H                   : Missing cutoff potential type.
  Defaulting to exp(1/x)/(1-x)^2 type cutoff potential.
  Species H : On-site basis accuracy parameter (for Gram-Schmidt orthonormalisation) not specified.
  Using default value basis_acc =  0.1000000E-03.
  Species H                   : Using default innermost maximum threshold i_radial=  2 for radial functions.
  Species H                   : Basic radial grid will be enhanced according to radial_multiplier =   2, to contain    49 grid points.
 
  Reading configuration options for species O                   .
  | Found nuclear charge :   8.0000
  | Found atomic mass :    15.9994000000000      amu
  | Found l_max for Hartree potential  :   4
  | Found cutoff potl. onset [A], width [A], scale factor :    4.00000    2.00000    1.00000
  | Found cutoff specification for free atom: Cutoff potential begins at    8.00000 A.
  | Threshold for basis-dependent cutoff potential is   0.100000E-03
  | Found logarithmic grid data [bohr] : 0.1000E-03 0.1000E+03 0.1012E+01
  | Found data for basic radial integration grid :    36 points, outermost radius =    7.000 A
  | Found multiplier for basic radial grid :   2
  | Found angular grid specification: user-specified.
  | Specified grid contains     4 separate shells.
  | Check grid settings after all constraints further below.
  | Found free-atom valence shell :  2 s   2.000
  | Found free-atom valence shell :  2 p   4.000
  | No ionic wave fns used. Skipping ion_occ.
  | No ionic wave fns used. Skipping ion_occ.
  | Found hydrogenic basis function :  2 p   1.800
  | Found hydrogenic basis function :  3 d   7.600
  | Found hydrogenic basis function :  3 s   6.400
  | Found hydrogenic basis function :  4 f  11.600
  | Found hydrogenic basis function :  3 p   6.200
  | Found hydrogenic basis function :  3 d   5.600
  | Found hydrogenic basis function :  5 g  17.600
  | Found hydrogenic basis function :  1 s   0.750
  Species O                   : Missing cutoff potential type.
  Defaulting to exp(1/x)/(1-x)^2 type cutoff potential.
  Species O : On-site basis accuracy parameter (for Gram-Schmidt orthonormalisation) not specified.
  Using default value basis_acc =  0.1000000E-03.
  Species O                   : Using default innermost maximum threshold i_radial=  2 for radial functions.
  Species O                   : Basic radial grid will be enhanced according to radial_multiplier =   2, to contain    73 grid points.
 
  Finished reading input file 'control.in'. Consistency checks are next.
 
  Target number of points in a grid batch is not set. Defaulting to  100
  Method for grid partitioning is not set. Defaulting to parallel hash+maxmin partitioning.
  Batch size limit is not set. Defaulting to    200
  By default, will store active basis functions for each batch.
  If in need of memory, prune_basis_once .false. can be used to disable this option.
  communication_type for Hartree potential was not specified.
  Defaulting to calc_hartree .
  Pulay mixer: Number of initial linear mixing iterations not set.
  Defaulting to    0 iterations.
  Work space size for distributed Hartree potential not set.
  Defaulting to   0.200000E+03 MB.
  Algorithm-dependent basis array size parameters:
  | n_max_pulay                         :       10
  Geometry relaxation not requested: no relaxation will be performed.
  Handling of forces: Unphysical translation and rotation will be removed from forces.
  No accuracy limit for integral partition fn. given. Defaulting to 0.1000E-14.
  No threshold value for u(r) in integrations given. Defaulting to 0.1000E-05.
  No accuracy for occupation numbers given. Defaulting to 0.1000E-07.
  No threshold value for occupation numbers given. Defaulting to 0.0000E+00.
  No accuracy for fermi level given. Defaulting to 0.1000E-19.
  Maximum # of iterations to find E_F not set. Defaulting to  200.
  Will not use alltoall communication since running on < 1024 CPUs.
  Partitioning for Hartree potential was not defined. Using partition_type for integrals.
  | Reporting present value of keyword multip_moments_threshold  :       0.10000000E-09
  | This value may affect high angular momentum components of the Hartree potential in periodic systems.
  No q(lm)/r^(l+1) cutoff set for long-range Hartree potential.
  | Using default value of  0.100000E-09 .
  | Verify using the multipole_threshold keyword.
  Defaulting to new monopole extrapolation.
  Density update method: Loop over occupied states selected for charge density update.
------------------------------------------------------------


------------------------------------------------------------
          Reading geometry description geometry.in.
------------------------------------------------------------
  Input structure read successfully.
  The structure contains       13 atoms,  and a total of         41.000 electrons.

  Input geometry:
  | No unit cell requested.
  | Atomic structure:
  |       Atom                x [A]            y [A]            z [A]
  |    1: Species O             -4.053030         0.065001        -1.525160
  |    2: Species H             -4.566710         0.974813        -1.912820
  |    3: Species H             -3.067820         0.330172        -1.477310
  |    4: Species H             -4.370360        -0.049164        -0.572274
  |    5: Species O             -4.581760        -0.256435         0.939478
  |    6: Species H             -4.349860         0.471090         1.504340
  |    7: Species H             -5.393870        -0.726611         1.228070
  |    8: Species O             -1.975360         2.858040         0.453140
  |    9: Species H             -1.223550         3.375850         0.786238
  |   10: Species H             -2.537520         2.567960         1.156120
  |   11: Species O             -4.066610         4.258280        -0.900064
  |   12: Species H             -3.224110         3.876870        -0.569443
  |   13: Species H             -3.737450         5.116530        -1.322720
  |

  | The smallest distance between any two atoms is         0.94570141 AA.
  |
  | The first atom of this pair is atom number                      8 .
  | The second atom of this pair is atom number                    10 .

  Structure-dependent array size parameters: 
  | Maximum number of distinct radial functions  :       18
  | Maximum number of basis functions            :      291
  | Number of Kohn-Sham states (occupied + empty):       73
------------------------------------------------------------

------------------------------------------------------------
          Preparing all fixed parts of the calculation.
------------------------------------------------------------
  Determining machine precision:
    2.225073858507201E-308
  Setting up grids for atomic and cluster calculations.

  Creating wave function, potential, and density for free atoms.

  Species: H

  List of occupied orbitals and eigenvalues:
    n    l              occ      energy [Ha]    energy [eV]
    1    0           1.0000        -0.241408        -6.5691


  Species: O

  List of occupied orbitals and eigenvalues:
    n    l              occ      energy [Ha]    energy [eV]
    1    0           2.0000       -18.944147      -515.4965
    2    0           2.0000        -0.883529       -24.0421
    2    1           4.0000        -0.330176        -8.9845

  Creating fixed part of basis set: Ionic, confined, hydrogenic.
 
  H                    hydrogenic:
 
  List of hydrogenic basis orbitals: 
    n    l      effective z      eigenvalue [eV]  inner max. [A]     outer max. [A]     outer radius [A]   
    2    0         2.100000       -14.9965           0.193241           1.317192           5.372934
    2    1         3.500000       -41.6672           0.602363           0.602363           4.056010
    1    0         0.850000        -9.8292           0.624864           0.624864           5.372934
    2    1         3.700000       -46.5653           0.573616           0.573616           3.909951
    2    0         1.200000        -4.5995           0.334977           2.228160           5.505921
    3    2         7.000000       -74.0753           0.680692           0.680692           3.769152
 
 
  O                    hydrogenic:
 
  List of hydrogenic basis orbitals: 
    n    l      effective z      eigenvalue [eV]  inner max. [A]     outer max. [A]     outer radius [A]   
    2    1         1.800000       -11.0118           1.178546           1.178546           5.432516
    3    2         7.600000       -87.3182           0.624117           0.624117           3.541422
    3    0         6.400000       -61.9209           0.061166           1.081887           4.306510
    4    3        11.600000      -114.4238           0.731621           0.731621           3.584982
    3    1         6.200000       -58.1113           0.255677           1.030255           4.306510
    3    2         5.600000       -47.4081           0.847222           0.847222           4.413102
    5    4        17.600000      -168.5799           0.749730           0.749730           3.372413
    1    0         0.750000        -7.6499           0.705275           0.705275           5.366508
 

  Adding cutoff potential to free-atom effective potential.
  Creating atomic-like basis functions for current effective potential.

  Species H                   :

  List of atomic basis orbitals and eigenvalues:
    n    l      energy [Ha]    energy [eV]    outer radius [A]
    1    0        -0.241374        -6.5681       5.372934


  Species O                   :

  List of atomic basis orbitals and eigenvalues:
    n    l      energy [Ha]    energy [eV]    outer radius [A]
    1    0       -18.944147      -515.4965       1.415745
    2    0        -0.883529       -24.0421       5.048305
    2    1        -0.330173        -8.9845       5.301302

  Assembling full basis from fixed parts.
  | Species H :   atomic orbital   1 s accepted.
  | Species H :    hydro orbital   2 s accepted.
  | Species H :    hydro orbital   1 s accepted.
  | Species H :    hydro orbital   2 s accepted.
  | Species H :    hydro orbital   2 p accepted.
  | Species H :    hydro orbital   2 p accepted.
  | Species H :    hydro orbital   3 d accepted.
  | Species O :   atomic orbital   1 s accepted.
  | Species O :    hydro orbital   3 s accepted.
  | Species O :   atomic orbital   2 s accepted.
  | Species O :    hydro orbital   1 s accepted.
  | Species O :    hydro orbital   3 p accepted.
  | Species O :   atomic orbital   2 p accepted.
  | Species O :    hydro orbital   2 p accepted.
  | Species O :    hydro orbital   3 d accepted.
  | Species O :    hydro orbital   3 d accepted.
  | Species O :    hydro orbital   4 f accepted.
  | Species O :    hydro orbital   5 g accepted.
 
  Basis size parameters after reduction:
  | Total number of radial functions:       18
  | Total number of basis functions :      291
 
  Testing on-site integration grid accuracy.
  |  Species  Function  <phi|h_atom|phi> (log., in eV)  <phi|h_atom|phi> (rad., in eV)
           1        1                 -6.5683835025                 -6.5684759159
           1        2                 13.3711789951                 13.3708738703
           1        3                 23.6590910787                 23.6532055418
           1        4                 16.2963827186                 16.1870710655 ***
           1        5                 28.7627214838                 28.7627215090
           1        6                 59.5965249172                 59.5965950857
           1        7                 60.2220506392                 60.2220503827
           2        8               -515.4964576505               -515.4964530710
           2        9                 15.3030791347                 15.3030722972
           2       10                -21.7296094581                -21.7296135470
           2       11                 14.2969371730                 14.2969701621
           2       12                 21.0679693190                 21.0679697493
           2       13                 -2.3833606469                 -2.3833613176
           2       14                 13.7067136422                 13.7066766629
           2       15                 45.8013116808                 45.8013116965
           2       16                 52.2309815402                 52.2309831494
           2       17                 85.4120732416                 85.4120732763
           2       18                142.1019167745                142.1019167817
 * Note: Onsite integrals marked "***" above are less accurate than
 * onsite_accuracy_threshold =    0.03000 eV. Usually, this is harmless.
 * When in doubt, tighten the "radial" and/or "radial_multiplier" flags to check.

  Preparing densities etc. for the partition functions (integrals / Hartree potential).

  Preparations completed.
  max(cpu_time)          :      0.171 s.
  Wall clock time (cpu1) :      0.582 s.
------------------------------------------------------------

------------------------------------------------------------
          Begin self-consistency loop: Initialization.

          Date     :  20150727, Time     :  123012.148
------------------------------------------------------------

  Initializing index lists of integration centers etc. from given atomic structure:
  | Number of centers in hartree potential         :        13
  | Number of centers in hartree multipole         :        13
  | Number of centers in electron density summation:        13
  | Number of centers in basis integrals           :        13
  | Number of centers in integrals                 :        13
  Partitioning the integration grid into batches with parallel hashing+maxmin method.
  | Number of batches:     1776
  | Maximal batch size:     190
  | Minimal batch size:      51
  | Average batch size:      95.136
  | Standard deviation of batch sizes:      29.583

  Integration load balanced across     8 MPI tasks.
  Work distribution over tasks is as follows:
  Task     0 has      21165 integration points.
  Task     1 has      21070 integration points.
  Task     2 has      21069 integration points.
  Task     3 has      21133 integration points.
  Task     4 has      21171 integration points.
  Task     5 has      21057 integration points.
  Task     6 has      21164 integration points.
  Task     7 has      21133 integration points.
  Initializing partition tables, free-atom densities, potentials, etc. across the integration grid (initialize_grid_storage).
  | Net number of integration points:   168962
  | of which are non-zero points    :   168423
  Obtaining max. number of non-zero basis functions in each batch (get_n_compute_maxes).
  | Maximal number of non-zero basis functions:      288 in task     0
  | Maximal number of non-zero basis functions:      289 in task     1
  | Maximal number of non-zero basis functions:      288 in task     2
  | Maximal number of non-zero basis functions:      288 in task     3
  | Maximal number of non-zero basis functions:      289 in task     4
  | Maximal number of non-zero basis functions:      289 in task     5
  | Maximal number of non-zero basis functions:      288 in task     6
  | Maximal number of non-zero basis functions:      288 in task     7
  Integrating Hamiltonian matrix: batch-based integration.
  Time summed over all CPUs for integration: real work        5.009 s, elapsed        5.235 s
  Integrating overlap matrix.
  Time summed over all CPUs for integration: real work        2.645 s, elapsed        2.768 s

  Updating Kohn-Sham eigenvalues, eigenvectors, occupation numbers, and Fermi level.
  Solving generalized eigenproblem
  Updating Kohn-Sham eigenvalues and eigenfunctions.
  Transforming overlap matrix and checking for singularities.
  Overlap matrix is nonsingular:
  | Lowest eigenvalue:  0.281001E-03
  Solving real generalised eigenvalue problem by standard LAPACK (fast)
  Determining occupation numbers for Kohn-Sham eigenstates.
  | Chemical potential (Fermi level) in eV                 : -.29308632E+01
  | Error in electron count due to remaining E_F inaccuracy: 0.00000000E+00
  | Maximum occupation number of highest empty state:  0.00E+00

  Writing Kohn-Sham eigenvalues.

  State    Occupation    Eigenvalue [Ha]    Eigenvalue [eV]
      1       2.00000         -19.064911         -518.78264
      2       2.00000         -19.059141         -518.62561
      3       2.00000         -19.056650         -518.55784
      4       2.00000         -19.040118         -518.10797
      5       2.00000          -1.124573          -30.60118
      6       2.00000          -1.107301          -30.13120
      7       2.00000          -1.103410          -30.02533
      8       2.00000          -1.082886          -29.46682
      9       2.00000          -0.651600          -17.73093
     10       2.00000          -0.648781          -17.65423
     11       2.00000          -0.639686          -17.40675
     12       2.00000          -0.606393          -16.50080
     13       2.00000          -0.602233          -16.38760
     14       2.00000          -0.515297          -14.02195
     15       2.00000          -0.512658          -13.95014
     16       2.00000          -0.499092          -13.58098
     17       2.00000          -0.484587          -13.18628
     18       2.00000          -0.446143          -12.14017
     19       2.00000          -0.443232          -12.06097
     20       2.00000          -0.426599          -11.60834
     21       1.00000          -0.107707           -2.93086
     22       0.00000          -0.074238           -2.02013
     23       0.00000          -0.063997           -1.74144
     24       0.00000          -0.044199           -1.20271
     25       0.00000          -0.028073           -0.76392
     26       0.00000          -0.014032           -0.38184
     27       0.00000           0.036148            0.98363
     28       0.00000           0.042385            1.15337
     29       0.00000           0.053003            1.44228
     30       0.00000           0.063502            1.72797
     31       0.00000           0.068349            1.85987
     32       0.00000           0.087202            2.37290
     33       0.00000           0.093190            2.53584
     34       0.00000           0.102665            2.79365
     35       0.00000           0.105259            2.86425
     36       0.00000           0.112607            3.06419
     37       0.00000           0.117268            3.19102
     38       0.00000           0.132831            3.61450
     39       0.00000           0.140551            3.82459
     40       0.00000           0.143942            3.91685
     41       0.00000           0.161077            4.38313
     42       0.00000           0.168679            4.58998
     43       0.00000           0.177598            4.83269
     44       0.00000           0.220435            5.99835
     45       0.00000           0.228943            6.22985
     46       0.00000           0.249611            6.79226
     47       0.00000           0.258566            7.03594
     48       0.00000           0.270375            7.35727
     49       0.00000           0.292948            7.97152
     50       0.00000           0.300925            8.18858
     51       0.00000           0.338706            9.21666
     52       0.00000           0.346271            9.42252
     53       0.00000           0.354077            9.63493
     54       0.00000           0.367288            9.99441
     55       0.00000           0.379191           10.31832
     56       0.00000           0.387959           10.55690
     57       0.00000           0.403086           10.96854
     58       0.00000           0.411312           11.19237
     59       0.00000           0.416176           11.32472
     60       0.00000           0.439803           11.96765
     61       0.00000           0.451231           12.27863
     62       0.00000           0.460675           12.53559
     63       0.00000           0.471439           12.82850
     64       0.00000           0.515678           14.03231
     65       0.00000           0.524506           14.27254
     66       0.00000           0.535923           14.58321
     67       0.00000           0.552618           15.03749
     68       0.00000           0.590991           16.08168
     69       0.00000           0.626236           17.04074
     70       0.00000           0.645755           17.57189
     71       0.00000           0.680470           18.51652
     72       0.00000           0.737516           20.06883
     73       0.00000           0.749922           20.40643

  Highest occupied state (VBM) at     -2.93086323 eV
  | Occupation number:      1.00000000

  Lowest unoccupied state (CBM) at    -2.93086323 eV
  | Occupation number:      1.00000000

  Overall HOMO-LUMO gap:      0.00000000 eV.
  Calculating total energy contributions from superposition of free atom densities.

  Total energy components:
  | Sum of eigenvalues            :        -174.33829133 Ha       -4743.98627843 eV
  | XC energy correction          :         -36.80690751 Ha       -1001.56691239 eV
  | XC potential correction       :          47.03729679 Ha        1279.94996868 eV
  | Free-atom electrostatic energy:        -142.81655261 Ha       -3886.23612613 eV
  | Hartree energy correction     :           0.00000000 Ha           0.00000000 eV
  | van der Waals energy corr.    :           0.00000000 Ha           0.00000000 eV
  | Entropy correction            :          -0.00010367 Ha          -0.00282095 eV
  | ---------------------------
  | Total energy                  :        -306.92445466 Ha       -8351.83934827 eV
  | Total energy, T -> 0          :        -306.92455833 Ha       -8351.84216922 eV  <-- do not rely on this value for anything but (periodic) metals
  | Electronic free energy        :        -306.92466200 Ha       -8351.84499016 eV

  Derived energy quantities:
  | Kinetic energy                :         303.98054224 Ha        8271.73141535 eV
  | Electrostatic energy          :        -574.09808939 Ha      -15622.00385123 eV
  | Energy correction for multipole
  | error in Hartree potential    :           0.00000000 Ha           0.00000000 eV
  | Sum of eigenvalues per atom                           :        -364.92202142 eV
  | Total energy (T->0) per atom                          :        -642.44939763 eV  <-- do not rely on this value for anything but (periodic) metals
  | Electronic free energy per atom                       :        -642.44961463 eV
  Initialize hartree_potential_storage
  Max. number of atoms included in rho_multipole:           13

  End scf initialization - timings             :  max(cpu_time)    wall_clock(cpu1)
  | Time for scf. initialization               :        1.428 s           1.428 s
  | Boundary condition initialization          :        0.000 s           0.000 s
  | Integration                                :        1.004 s           1.003 s
  | Solution of K.-S. eqns.                    :        0.135 s           0.135 s
  | Grid partitioning                          :        0.123 s           0.123 s
  | Preloading free-atom quantities on grid    :        0.013 s           0.013 s
  | Free-atom superposition energy             :        0.051 s           0.051 s
  | Total energy evaluation                    :        0.001 s           0.000 s
------------------------------------------------------------

------------------------------------------------------------
          Begin self-consistency iteration #    1

  Date     :  20150727, Time     :  123013.576
------------------------------------------------------------
  Evaluating new KS density.
  Integration grid: deviation in total charge (<rho> - N_e) =  -1.421085E-14
  Pulay mixing of updated and previous charge densities.

  Evaluating partitioned Hartree potential by multipole expansion.
  | Analytical far-field extrapolation by fixed multipoles:
  | Hartree multipole sum: apparent total charge =  -0.567292E-06
  Summing up the Hartree potential.
  Time summed over all CPUs for potential: real work        1.920 s, elapsed        1.934 s
  | RMS charge density error from multipole expansion :   0.152057E-02

  Integrating Hamiltonian matrix: batch-based integration.
  Time summed over all CPUs for integration: real work        5.012 s, elapsed        5.240 s

  Updating Kohn-Sham eigenvalues, eigenvectors, occupation numbers, and Fermi level.
  Solving generalized eigenproblem
  Updating Kohn-Sham eigenvalues and eigenfunctions.
  Solving real generalised eigenvalue problem by standard LAPACK (fast)
  Determining occupation numbers for Kohn-Sham eigenstates.
  | Chemical potential (Fermi level) in eV                 : -.27339988E+01
  | Error in electron count due to remaining E_F inaccuracy: 0.00000000E+00
  | Maximum occupation number of highest empty state:  0.00E+00

  Writing Kohn-Sham eigenvalues.

  State    Occupation    Eigenvalue [Ha]    Eigenvalue [eV]
      1       2.00000         -19.012080         -517.34503
      2       2.00000         -18.989012         -516.71730
      3       2.00000         -18.979416         -516.45619
      4       2.00000         -18.957269         -515.85354
      5       2.00000          -1.098575          -29.89375
      6       2.00000          -1.071742          -29.16357
      7       2.00000          -1.069493          -29.10238
      8       2.00000          -1.039498          -28.28617
      9       2.00000          -0.623834          -16.97539
     10       2.00000          -0.617252          -16.79627
     11       2.00000          -0.616507          -16.77601
     12       2.00000          -0.581344          -15.81918
     13       2.00000          -0.568793          -15.47763
     14       2.00000          -0.485557          -13.21268
     15       2.00000          -0.473133          -12.87459
     16       2.00000          -0.458154          -12.46700
     17       2.00000          -0.456200          -12.41384
     18       2.00000          -0.412091          -11.21355
     19       2.00000          -0.403421          -10.97764
     20       2.00000          -0.381655          -10.38535
     21       1.00000          -0.100473           -2.73400
     22       0.00000          -0.066983           -1.82269
     23       0.00000          -0.056512           -1.53776
     24       0.00000          -0.036419           -0.99100
     25       0.00000          -0.020872           -0.56796
     26       0.00000          -0.008265           -0.22490
     27       0.00000           0.046392            1.26240
     28       0.00000           0.046848            1.27481
     29       0.00000           0.058867            1.60184
     30       0.00000           0.068069            1.85224
     31       0.00000           0.075319            2.04954
     32       0.00000           0.093724            2.55037
     33       0.00000           0.102432            2.78733
     34       0.00000           0.109966            2.99233
     35       0.00000           0.112065            3.04944
     36       0.00000           0.123298            3.35511
     37       0.00000           0.123883            3.37103
     38       0.00000           0.145755            3.96618
     39       0.00000           0.148602            4.04365
     40       0.00000           0.151312            4.11741
     41       0.00000           0.168753            4.59202
     42       0.00000           0.177241            4.82296
     43       0.00000           0.185716            5.05360
     44       0.00000           0.228821            6.22653
     45       0.00000           0.234404            6.37846
     46       0.00000           0.255631            6.95607
     47       0.00000           0.265506            7.22478
     48       0.00000           0.277040            7.53864
     49       0.00000           0.298027            8.10972
     50       0.00000           0.308497            8.39463
     51       0.00000           0.346616            9.43190
     52       0.00000           0.352910            9.60318
     53       0.00000           0.361171            9.82798
     54       0.00000           0.373963           10.17605
     55       0.00000           0.385459           10.48887
     56       0.00000           0.398603           10.84654
     57       0.00000           0.411544           11.19868
     58       0.00000           0.417868           11.37077
     59       0.00000           0.426727           11.61182
     60       0.00000           0.447022           12.16410
     61       0.00000           0.460262           12.52436
     62       0.00000           0.468410           12.74609
     63       0.00000           0.479525           13.04855
     64       0.00000           0.524668           14.27694
     65       0.00000           0.534823           14.55326
     66       0.00000           0.545583           14.84606
     67       0.00000           0.561261           15.27269
     68       0.00000           0.601152           16.35817
     69       0.00000           0.634073           17.25400
     70       0.00000           0.659709           17.95160
     71       0.00000           0.690111           18.77889
     72       0.00000           0.746952           20.32560
     73       0.00000           0.759819           20.67574

  Highest occupied state (VBM) at     -2.73399878 eV
  | Occupation number:      1.00000000

  Lowest unoccupied state (CBM) at    -2.73399878 eV
  | Occupation number:      1.00000000

  Overall HOMO-LUMO gap:      0.00000000 eV.

  Total energy components:
  | Sum of eigenvalues            :        -172.69052095 Ha       -4699.14816512 eV
  | XC energy correction          :         -36.98598213 Ha       -1006.43978075 eV
  | XC potential correction       :          47.27134921 Ha        1286.31885915 eV
  | Free-atom electrostatic energy:        -142.81655261 Ha       -3886.23612613 eV
  | Hartree energy correction     :          -1.60188793 Ha         -43.58958850 eV
  | van der Waals energy corr.    :           0.00000000 Ha           0.00000000 eV
  | Entropy correction            :          -0.00010367 Ha          -0.00282095 eV
  | ---------------------------
  | Total energy                  :        -306.82359442 Ha       -8349.09480135 eV
  | Total energy, T -> 0          :        -306.82369808 Ha       -8349.09762230 eV  <-- do not rely on this value for anything but (periodic) metals
  | Electronic free energy        :        -306.82380175 Ha       -8349.10044325 eV

  Derived energy quantities:
  | Kinetic energy                :         305.07809645 Ha        8301.59738509 eV
  | Electrostatic energy          :        -574.91570874 Ha      -15644.25240569 eV
  | Energy correction for multipole
  | error in Hartree potential    :           0.00041734 Ha           0.01135637 eV
  | Sum of eigenvalues per atom                           :        -361.47293578 eV
  | Total energy (T->0) per atom                          :        -642.23827864 eV  <-- do not rely on this value for anything but (periodic) metals
  | Electronic free energy per atom                       :        -642.23849563 eV

  Self-consistency convergence accuracy:
  | Change of charge density      : 0.5761E+00
  | Change of sum of eigenvalues  : 0.4484E+02 eV
  | Change of total energy        : 0.2745E+01 eV

  End self-consistency iteration #     1       :  max(cpu_time)    wall_clock(cpu1)
  | Time for this iteration                    :        1.405 s           1.405 s
  | Charge density update                      :        0.462 s           0.462 s
  | Density mixing                             :        0.003 s           0.002 s
  | Hartree multipole update                   :        0.004 s           0.005 s
  | Hartree multipole summation                :        0.243 s           0.243 s
  | Integration                                :        0.656 s           0.656 s
  | Solution of K.-S. eqns.                    :        0.036 s           0.036 s
  | Total energy evaluation                    :        0.001 s           0.000 s
------------------------------------------------------------

------------------------------------------------------------
          Begin self-consistency iteration #    2

  Date     :  20150727, Time     :  123014.981
------------------------------------------------------------
  Evaluating new KS density.
  Integration grid: deviation in total charge (<rho> - N_e) =   7.105427E-15
  Pulay mixing of updated and previous charge densities.

  Evaluating partitioned Hartree potential by multipole expansion.
  | Analytical far-field extrapolation by fixed multipoles:
  | Hartree multipole sum: apparent total charge =  -0.168501E-05
  Summing up the Hartree potential.
  Time summed over all CPUs for potential: real work        1.920 s, elapsed        1.934 s
  | RMS charge density error from multipole expansion :   0.617138E-02

  Integrating Hamiltonian matrix: batch-based integration.
  Time summed over all CPUs for integration: real work        4.994 s, elapsed        5.209 s

  Updating Kohn-Sham eigenvalues, eigenvectors, occupation numbers, and Fermi level.
  Solving generalized eigenproblem
  Updating Kohn-Sham eigenvalues and eigenfunctions.
  Solving real generalised eigenvalue problem by standard LAPACK (fast)
  Determining occupation numbers for Kohn-Sham eigenstates.
  | Chemical potential (Fermi level) in eV                 : -.22714657E+01
  | Error in electron count due to remaining E_F inaccuracy: -.14658497E-10
  | Maximum occupation number of highest empty state:  0.00E+00

  Highest occupied state (VBM) at     -7.41618577 eV
  | Occupation number:      2.00000000

  Lowest unoccupied state (CBM) at    -2.27146573 eV
  | Occupation number:      1.00000000

  Overall HOMO-LUMO gap:      5.14472004 eV.

  Total energy components:
  | Sum of eigenvalues            :        -168.75000558 Ha       -4591.92128629 eV
  | XC energy correction          :         -37.43613320 Ha       -1018.68901456 eV
  | XC potential correction       :          47.85847698 Ha        1302.29541858 eV
  | Free-atom electrostatic energy:        -142.81655261 Ha       -3886.23612613 eV
  | Hartree energy correction     :          -5.56397367 Ha        -151.40342680 eV
  | van der Waals energy corr.    :           0.00000000 Ha           0.00000000 eV
  | Entropy correction            :          -0.00010367 Ha          -0.00282095 eV
  | ---------------------------
  | Total energy                  :        -306.70818808 Ha       -8345.95443520 eV
  | Total energy, T -> 0          :        -306.70829175 Ha       -8345.95725615 eV  <-- do not rely on this value for anything but (periodic) metals
  | Electronic free energy        :        -306.70839542 Ha       -8345.96007710 eV

  Derived energy quantities:
  | Kinetic energy                :         307.35856863 Ha        8363.65219041 eV
  | Electrostatic energy          :        -576.63062352 Ha      -15690.91761104 eV
  | Energy correction for multipole
  | error in Hartree potential    :           0.00098532 Ha           0.02681205 eV
  | Sum of eigenvalues per atom                           :        -353.22471433 eV
  | Total energy (T->0) per atom                          :        -641.99671201 eV  <-- do not rely on this value for anything but (periodic) metals
  | Electronic free energy per atom                       :        -641.99692901 eV

  Self-consistency convergence accuracy:
  | Change of charge density      : 0.4378E+00
  | Change of sum of eigenvalues  : 0.1072E+03 eV
  | Change of total energy        : 0.3140E+01 eV

  End self-consistency iteration #     2       :  max(cpu_time)    wall_clock(cpu1)
  | Time for this iteration                    :        1.398 s           1.398 s
  | Charge density update                      :        0.458 s           0.458 s
  | Density mixing                             :        0.005 s           0.004 s
  | Hartree multipole update                   :        0.004 s           0.005 s
  | Hartree multipole summation                :        0.243 s           0.242 s
  | Integration                                :        0.652 s           0.653 s
  | Solution of K.-S. eqns.                    :        0.036 s           0.035 s
  | Total energy evaluation                    :        0.000 s           0.000 s
------------------------------------------------------------

------------------------------------------------------------
          Begin self-consistency iteration #    3

  Date     :  20150727, Time     :  123016.379
------------------------------------------------------------
  Evaluating new KS density.
  Integration grid: deviation in total charge (<rho> - N_e) =  -1.464429E-11
  Pulay mixing of updated and previous charge densities.

  Evaluating partitioned Hartree potential by multipole expansion.
  | Analytical far-field extrapolation by fixed multipoles:
  | Hartree multipole sum: apparent total charge =  -0.507529E-06
  Summing up the Hartree potential.
  Time summed over all CPUs for potential: real work        1.920 s, elapsed        1.934 s
  | RMS charge density error from multipole expansion :   0.126404E-01

  Integrating Hamiltonian matrix: batch-based integration.
  Time summed over all CPUs for integration: real work        4.991 s, elapsed        5.211 s

  Updating Kohn-Sham eigenvalues, eigenvectors, occupation numbers, and Fermi level.
  Solving generalized eigenproblem
  Updating Kohn-Sham eigenvalues and eigenfunctions.
  Solving real generalised eigenvalue problem by standard LAPACK (fast)
  Determining occupation numbers for Kohn-Sham eigenstates.
  | Chemical potential (Fermi level) in eV                 : -.23363112E+01
  | Error in electron count due to remaining E_F inaccuracy: -.48338791E-08
  | Maximum occupation number of highest empty state:  0.00E+00

  Highest occupied state (VBM) at     -7.15879084 eV
  | Occupation number:      2.00000000

  Lowest unoccupied state (CBM) at    -2.33631118 eV
  | Occupation number:      1.00000000

  Overall HOMO-LUMO gap:      4.82247966 eV.

  Total energy components:
  | Sum of eigenvalues            :        -169.11654912 Ha       -4601.89544340 eV
  | XC energy correction          :         -37.41363221 Ha       -1018.07673168 eV
  | XC potential correction       :          47.82203251 Ha        1301.30371423 eV
  | Free-atom electrostatic energy:        -142.81655261 Ha       -3886.23612613 eV
  | Hartree energy correction     :          -5.18159817 Ha        -140.99846013 eV
  | van der Waals energy corr.    :           0.00000000 Ha           0.00000000 eV
  | Entropy correction            :          -0.00010367 Ha          -0.00282095 eV
  | ---------------------------
  | Total energy                  :        -306.70629960 Ha       -8345.90304710 eV
  | Total energy, T -> 0          :        -306.70640327 Ha       -8345.90586805 eV  <-- do not rely on this value for anything but (periodic) metals
  | Electronic free energy        :        -306.70650694 Ha       -8345.90868900 eV

  Derived energy quantities:
  | Kinetic energy                :         305.81865615 Ha        8321.74903969 eV
  | Electrostatic energy          :        -575.11132354 Ha      -15649.57535512 eV
  | Energy correction for multipole
  | error in Hartree potential    :          -0.00158280 Ha          -0.04307011 eV
  | Sum of eigenvalues per atom                           :        -353.99195718 eV
  | Total energy (T->0) per atom                          :        -641.99275908 eV  <-- do not rely on this value for anything but (periodic) metals
  | Electronic free energy per atom                       :        -641.99297608 eV

  Self-consistency convergence accuracy:
  | Change of charge density      : 0.2147E+00
  | Change of sum of eigenvalues  : -.9974E+01 eV
  | Change of total energy        : 0.5139E-01 eV

  End self-consistency iteration #     3       :  max(cpu_time)    wall_clock(cpu1)
  | Time for this iteration                    :        1.396 s           1.396 s
  | Charge density update                      :        0.454 s           0.455 s
  | Density mixing                             :        0.006 s           0.006 s
  | Hartree multipole update                   :        0.005 s           0.004 s
  | Hartree multipole summation                :        0.242 s           0.243 s
  | Integration                                :        0.653 s           0.652 s
  | Solution of K.-S. eqns.                    :        0.036 s           0.036 s
  | Total energy evaluation                    :        0.000 s           0.000 s
------------------------------------------------------------

------------------------------------------------------------
          Begin self-consistency iteration #    4

  Date     :  20150727, Time     :  123017.776
------------------------------------------------------------
  Evaluating new KS density.
  Integration grid: deviation in total charge (<rho> - N_e) =  -4.833858E-09
  Pulay mixing of updated and previous charge densities.

  Evaluating partitioned Hartree potential by multipole expansion.
  | Analytical far-field extrapolation by fixed multipoles:
  | Hartree multipole sum: apparent total charge =  -0.444442E-06
  Summing up the Hartree potential.
  Time summed over all CPUs for potential: real work        1.920 s, elapsed        1.934 s
  | RMS charge density error from multipole expansion :   0.161231E-01

  Integrating Hamiltonian matrix: batch-based integration.
  Time summed over all CPUs for integration: real work        4.971 s, elapsed        5.193 s

  Updating Kohn-Sham eigenvalues, eigenvectors, occupation numbers, and Fermi level.
  Solving generalized eigenproblem
  Updating Kohn-Sham eigenvalues and eigenfunctions.
  Solving real generalised eigenvalue problem by standard LAPACK (fast)
  Determining occupation numbers for Kohn-Sham eigenstates.
  | Chemical potential (Fermi level) in eV                 : -.22069728E+01
  | Error in electron count due to remaining E_F inaccuracy: 0.00000000E+00
  | Maximum occupation number of highest empty state:  0.00E+00

  Highest occupied state (VBM) at     -2.20697278 eV
  | Occupation number:      1.00000000

  Lowest unoccupied state (CBM) at    -2.20697278 eV
  | Occupation number:      1.00000000

  Overall HOMO-LUMO gap:      0.00000000 eV.

  Total energy components:
  | Sum of eigenvalues            :        -168.07506248 Ha       -4573.55514996 eV
  | XC energy correction          :         -37.55362213 Ha       -1021.88605108 eV
  | XC potential correction       :          48.00252302 Ha        1306.21511073 eV
  | Free-atom electrostatic energy:        -142.81655261 Ha       -3886.23612613 eV
  | Hartree energy correction     :          -6.25782629 Ha        -170.28411719 eV
  | van der Waals energy corr.    :           0.00000000 Ha           0.00000000 eV
  | Entropy correction            :          -0.00010367 Ha          -0.00282095 eV
  | ---------------------------
  | Total energy                  :        -306.70054049 Ha       -8345.74633363 eV
  | Total energy, T -> 0          :        -306.70064416 Ha       -8345.74915458 eV  <-- do not rely on this value for anything but (periodic) metals
  | Electronic free energy        :        -306.70074783 Ha       -8345.75197552 eV

  Derived energy quantities:
  | Kinetic energy                :         305.97074006 Ha        8325.88745353 eV
  | Electrostatic energy          :        -575.11765842 Ha      -15649.74773607 eV
  | Energy correction for multipole
  | error in Hartree potential    :          -0.00227873 Ha          -0.06200735 eV
  | Sum of eigenvalues per atom                           :        -351.81193461 eV
  | Total energy (T->0) per atom                          :        -641.98070420 eV  <-- do not rely on this value for anything but (periodic) metals
  | Electronic free energy per atom                       :        -641.98092119 eV

  Self-consistency convergence accuracy:
  | Change of charge density      : 0.1041E+00
  | Change of sum of eigenvalues  : 0.2834E+02 eV
  | Change of total energy        : 0.1567E+00 eV

  End self-consistency iteration #     4       :  max(cpu_time)    wall_clock(cpu1)
  | Time for this iteration                    :        1.395 s           1.394 s
  | Charge density update                      :        0.454 s           0.453 s
  | Density mixing                             :        0.007 s           0.006 s
  | Hartree multipole update                   :        0.005 s           0.004 s
  | Hartree multipole summation                :        0.242 s           0.242 s
  | Integration                                :        0.651 s           0.651 s
  | Solution of K.-S. eqns.                    :        0.036 s           0.036 s
  | Total energy evaluation                    :        0.000 s           0.000 s
------------------------------------------------------------

------------------------------------------------------------
          Begin self-consistency iteration #    5

  Date     :  20150727, Time     :  123019.170
------------------------------------------------------------
  Evaluating new KS density.
  Integration grid: deviation in total charge (<rho> - N_e) =  -7.105427E-15
  Pulay mixing of updated and previous charge densities.

  Evaluating partitioned Hartree potential by multipole expansion.
  | Analytical far-field extrapolation by fixed multipoles:
  | Hartree multipole sum: apparent total charge =  -0.410317E-06
  Summing up the Hartree potential.
  Time summed over all CPUs for potential: real work        1.919 s, elapsed        1.933 s
  | RMS charge density error from multipole expansion :   0.162726E-01

  Integrating Hamiltonian matrix: batch-based integration.
  Time summed over all CPUs for integration: real work        4.975 s, elapsed        5.188 s

  Updating Kohn-Sham eigenvalues, eigenvectors, occupation numbers, and Fermi level.
  Solving generalized eigenproblem
  Updating Kohn-Sham eigenvalues and eigenfunctions.
  Solving real generalised eigenvalue problem by standard LAPACK (fast)
  Determining occupation numbers for Kohn-Sham eigenstates.
  | Chemical potential (Fermi level) in eV                 : -.21822395E+01
  | Error in electron count due to remaining E_F inaccuracy: -.16747492E-10
  | Maximum occupation number of highest empty state:  0.00E+00

  Highest occupied state (VBM) at     -6.21428146 eV
  | Occupation number:      2.00000000

  Lowest unoccupied state (CBM) at    -2.18223954 eV
  | Occupation number:      1.00000000

  Overall HOMO-LUMO gap:      4.03204192 eV.

  Total energy components:
  | Sum of eigenvalues            :        -168.07262556 Ha       -4573.48883808 eV
  | XC energy correction          :         -37.55485998 Ha       -1021.91973473 eV
  | XC potential correction       :          48.00391337 Ha        1306.25294431 eV
  | Free-atom electrostatic energy:        -142.81655261 Ha       -3886.23612613 eV
  | Hartree energy correction     :          -6.26026150 Ha        -170.35038278 eV
  | van der Waals energy corr.    :           0.00000000 Ha           0.00000000 eV
  | Entropy correction            :          -0.00010367 Ha          -0.00282095 eV
  | ---------------------------
  | Total energy                  :        -306.70038628 Ha       -8345.74213740 eV
  | Total energy, T -> 0          :        -306.70048995 Ha       -8345.74495835 eV  <-- do not rely on this value for anything but (periodic) metals
  | Electronic free energy        :        -306.70059362 Ha       -8345.74777930 eV

  Derived energy quantities:
  | Kinetic energy                :         305.98931796 Ha        8326.39298383 eV
  | Electrostatic energy          :        -575.13484426 Ha      -15650.21538651 eV
  | Energy correction for multipole
  | error in Hartree potential    :          -0.00228729 Ha          -0.06224043 eV
  | Sum of eigenvalues per atom                           :        -351.80683370 eV
  | Total energy (T->0) per atom                          :        -641.98038141 eV  <-- do not rely on this value for anything but (periodic) metals
  | Electronic free energy per atom                       :        -641.98059841 eV

  Self-consistency convergence accuracy:
  | Change of charge density      : 0.1536E-01
  | Change of sum of eigenvalues  : 0.6631E-01 eV
  | Change of total energy        : 0.4196E-02 eV

  End self-consistency iteration #     5       :  max(cpu_time)    wall_clock(cpu1)
  | Time for this iteration                    :        1.396 s           1.396 s
  | Charge density update                      :        0.455 s           0.455 s
  | Density mixing                             :        0.008 s           0.008 s
  | Hartree multipole update                   :        0.004 s           0.004 s
  | Hartree multipole summation                :        0.243 s           0.243 s
  | Integration                                :        0.650 s           0.649 s
  | Solution of K.-S. eqns.                    :        0.035 s           0.036 s
  | Total energy evaluation                    :        0.000 s           0.001 s
------------------------------------------------------------

------------------------------------------------------------
          Begin self-consistency iteration #    6

  Date     :  20150727, Time     :  123020.566
------------------------------------------------------------
  Evaluating new KS density.
  Integration grid: deviation in total charge (<rho> - N_e) =  -1.673328E-11
  Pulay mixing of updated and previous charge densities.

  Evaluating partitioned Hartree potential by multipole expansion.
  | Analytical far-field extrapolation by fixed multipoles:
  | Hartree multipole sum: apparent total charge =  -0.351048E-06
  Summing up the Hartree potential.
  Time summed over all CPUs for potential: real work        1.920 s, elapsed        1.934 s
  | RMS charge density error from multipole expansion :   0.164328E-01

  Integrating Hamiltonian matrix: batch-based integration.
  Time summed over all CPUs for integration: real work        4.972 s, elapsed        5.186 s

  Updating Kohn-Sham eigenvalues, eigenvectors, occupation numbers, and Fermi level.
  Solving generalized eigenproblem
  Updating Kohn-Sham eigenvalues and eigenfunctions.
  Solving real generalised eigenvalue problem by standard LAPACK (fast)
  Determining occupation numbers for Kohn-Sham eigenstates.
  | Chemical potential (Fermi level) in eV                 : -.21809217E+01
  | Error in electron count due to remaining E_F inaccuracy: 0.13299228E-09
  | Maximum occupation number of highest empty state:  0.00E+00

  Highest occupied state (VBM) at     -2.18092171 eV
  | Occupation number:      1.00000000

  Lowest unoccupied state (CBM) at    -1.27269823 eV
  | Occupation number:      0.00000000

  Overall HOMO-LUMO gap:      0.90822348 eV.

  Total energy components:
  | Sum of eigenvalues            :        -168.09953086 Ha       -4574.22096858 eV
  | XC energy correction          :         -37.55298809 Ha       -1021.86879810 eV
  | XC potential correction       :          48.00117135 Ha        1306.17833016 eV
  | Free-atom electrostatic energy:        -142.81655261 Ha       -3886.23612613 eV
  | Hartree energy correction     :          -6.23246352 Ha        -169.59396121 eV
  | van der Waals energy corr.    :           0.00000000 Ha           0.00000000 eV
  | Entropy correction            :          -0.00010367 Ha          -0.00282095 eV
  | ---------------------------
  | Total energy                  :        -306.70036373 Ha       -8345.74152386 eV
  | Total energy, T -> 0          :        -306.70046740 Ha       -8345.74434481 eV  <-- do not rely on this value for anything but (periodic) metals
  | Electronic free energy        :        -306.70057107 Ha       -8345.74716575 eV

  Derived energy quantities:
  | Kinetic energy                :         305.98493686 Ha        8326.27376822 eV
  | Electrostatic energy          :        -575.13231251 Ha      -15650.14649399 eV
  | Energy correction for multipole
  | error in Hartree potential    :          -0.00233504 Ha          -0.06353956 eV
  | Sum of eigenvalues per atom                           :        -351.86315143 eV
  | Total energy (T->0) per atom                          :        -641.98033422 eV  <-- do not rely on this value for anything but (periodic) metals
  | Electronic free energy per atom                       :        -641.98055121 eV

  Self-consistency convergence accuracy:
  | Change of charge density      : 0.9212E-02
  | Change of sum of eigenvalues  : -.7321E+00 eV
  | Change of total energy        : 0.6135E-03 eV

  End self-consistency iteration #     6       :  max(cpu_time)    wall_clock(cpu1)
  | Time for this iteration                    :        1.399 s           1.398 s
  | Charge density update                      :        0.457 s           0.456 s
  | Density mixing                             :        0.009 s           0.010 s
  | Hartree multipole update                   :        0.004 s           0.004 s
  | Hartree multipole summation                :        0.242 s           0.243 s
  | Integration                                :        0.650 s           0.649 s
  | Solution of K.-S. eqns.                    :        0.035 s           0.036 s
  | Total energy evaluation                    :        0.001 s           0.000 s
------------------------------------------------------------

------------------------------------------------------------
          Begin self-consistency iteration #    7

  Date     :  20150727, Time     :  123021.964
------------------------------------------------------------
  Evaluating new KS density.
  Integration grid: deviation in total charge (<rho> - N_e) =   1.330065E-10
  Pulay mixing of updated and previous charge densities.

  Evaluating partitioned Hartree potential by multipole expansion.
  | Analytical far-field extrapolation by fixed multipoles:
  | Hartree multipole sum: apparent total charge =  -0.207895E-06
  Summing up the Hartree potential.
  Time summed over all CPUs for potential: real work        1.920 s, elapsed        1.934 s
  | RMS charge density error from multipole expansion :   0.165196E-01

  Integrating Hamiltonian matrix: batch-based integration.
  Time summed over all CPUs for integration: real work        4.971 s, elapsed        5.176 s

  Updating Kohn-Sham eigenvalues, eigenvectors, occupation numbers, and Fermi level.
  Solving generalized eigenproblem
  Updating Kohn-Sham eigenvalues and eigenfunctions.
  Solving real generalised eigenvalue problem by standard LAPACK (fast)
  Determining occupation numbers for Kohn-Sham eigenstates.
  | Chemical potential (Fermi level) in eV                 : -.21876748E+01
  | Error in electron count due to remaining E_F inaccuracy: 0.00000000E+00
  | Maximum occupation number of highest empty state:  0.00E+00

  Highest occupied state (VBM) at     -2.18767479 eV
  | Occupation number:      1.00000000

  Lowest unoccupied state (CBM) at    -2.18767479 eV
  | Occupation number:      1.00000000

  Overall HOMO-LUMO gap:      0.00000000 eV.

  Total energy components:
  | Sum of eigenvalues            :        -168.13943751 Ha       -4575.30688378 eV
  | XC energy correction          :         -37.54949302 Ha       -1021.77369247 eV
  | XC potential correction       :          47.99627235 Ha        1306.04502155 eV
  | Free-atom electrostatic energy:        -142.81655261 Ha       -3886.23612613 eV
  | Hartree energy correction     :          -6.19112957 Ha        -168.46920722 eV
  | van der Waals energy corr.    :           0.00000000 Ha           0.00000000 eV
  | Entropy correction            :          -0.00010367 Ha          -0.00282095 eV
  | ---------------------------
  | Total energy                  :        -306.70034037 Ha       -8345.74088805 eV
  | Total energy, T -> 0          :        -306.70044404 Ha       -8345.74370900 eV  <-- do not rely on this value for anything but (periodic) metals
  | Electronic free energy        :        -306.70054770 Ha       -8345.74652995 eV

  Derived energy quantities:
  | Kinetic energy                :         306.01671440 Ha        8327.13847885 eV
  | Electrostatic energy          :        -575.16756174 Ha      -15651.10567443 eV
  | Energy correction for multipole
  | error in Hartree potential    :          -0.00235575 Ha          -0.06410323 eV
  | Sum of eigenvalues per atom                           :        -351.94668337 eV
  | Total energy (T->0) per atom                          :        -641.98028531 eV  <-- do not rely on this value for anything but (periodic) metals
  | Electronic free energy per atom                       :        -641.98050230 eV

  Self-consistency convergence accuracy:
  | Change of charge density      : 0.6515E-02
  | Change of sum of eigenvalues  : -.1086E+01 eV
  | Change of total energy        : 0.6358E-03 eV

  End self-consistency iteration #     7       :  max(cpu_time)    wall_clock(cpu1)
  | Time for this iteration                    :        1.398 s           1.399 s
  | Charge density update                      :        0.456 s           0.457 s
  | Density mixing                             :        0.011 s           0.010 s
  | Hartree multipole update                   :        0.004 s           0.005 s
  | Hartree multipole summation                :        0.243 s           0.242 s
  | Integration                                :        0.648 s           0.649 s
  | Solution of K.-S. eqns.                    :        0.036 s           0.035 s
  | Total energy evaluation                    :        0.000 s           0.000 s
------------------------------------------------------------

------------------------------------------------------------
          Begin self-consistency iteration #    8

  Date     :  20150727, Time     :  123023.363
------------------------------------------------------------
  Evaluating new KS density.
  Integration grid: deviation in total charge (<rho> - N_e) =   0.000000E+00
  Pulay mixing of updated and previous charge densities.

  Evaluating partitioned Hartree potential by multipole expansion.
  | Analytical far-field extrapolation by fixed multipoles:
  | Hartree multipole sum: apparent total charge =  -0.193448E-06
  Summing up the Hartree potential.
  Time summed over all CPUs for potential: real work        1.920 s, elapsed        1.933 s
  | RMS charge density error from multipole expansion :   0.165202E-01

  Integrating Hamiltonian matrix: batch-based integration.
  Time summed over all CPUs for integration: real work        4.966 s, elapsed        5.180 s

  Updating Kohn-Sham eigenvalues, eigenvectors, occupation numbers, and Fermi level.
  Solving generalized eigenproblem
  Updating Kohn-Sham eigenvalues and eigenfunctions.
  Solving real generalised eigenvalue problem by standard LAPACK (fast)
  Determining occupation numbers for Kohn-Sham eigenstates.
  | Chemical potential (Fermi level) in eV                 : -.21922184E+01
  | Error in electron count due to remaining E_F inaccuracy: 0.53051252E-09
  | Maximum occupation number of highest empty state:  0.00E+00

  Highest occupied state (VBM) at     -2.19221839 eV
  | Occupation number:      1.00000000

  Lowest unoccupied state (CBM) at    -1.28408662 eV
  | Occupation number:      0.00000000

  Overall HOMO-LUMO gap:      0.90813177 eV.

  Total energy components:
  | Sum of eigenvalues            :        -168.16302062 Ha       -4575.94861281 eV
  | XC energy correction          :         -37.54695154 Ha       -1021.70453502 eV
  | XC potential correction       :          47.99285778 Ha        1305.95210632 eV
  | Free-atom electrostatic energy:        -142.81655261 Ha       -3886.23612613 eV
  | Hartree energy correction     :          -6.16666778 Ha        -167.80356796 eV
  | van der Waals energy corr.    :           0.00000000 Ha           0.00000000 eV
  | Entropy correction            :          -0.00010367 Ha          -0.00282095 eV
  | ---------------------------
  | Total energy                  :        -306.70033477 Ha       -8345.74073559 eV
  | Total energy, T -> 0          :        -306.70043843 Ha       -8345.74355654 eV  <-- do not rely on this value for anything but (periodic) metals
  | Electronic free energy        :        -306.70054210 Ha       -8345.74637749 eV

  Derived energy quantities:
  | Kinetic energy                :         306.02672374 Ha        8327.41084703 eV
  | Electrostatic energy          :        -575.18010697 Ha      -15651.44704760 eV
  | Energy correction for multipole
  | error in Hartree potential    :          -0.00236198 Ha          -0.06427265 eV
  | Sum of eigenvalues per atom                           :        -351.99604714 eV
  | Total energy (T->0) per atom                          :        -641.98027358 eV  <-- do not rely on this value for anything but (periodic) metals
  | Electronic free energy per atom                       :        -641.98049058 eV

  Self-consistency convergence accuracy:
  | Change of charge density      : 0.2665E-02
  | Change of sum of eigenvalues  : -.6417E+00 eV
  | Change of total energy        : 0.1525E-03 eV

  End self-consistency iteration #     8       :  max(cpu_time)    wall_clock(cpu1)
  | Time for this iteration                    :        1.399 s           1.399 s
  | Charge density update                      :        0.455 s           0.456 s
  | Density mixing                             :        0.011 s           0.011 s
  | Hartree multipole update                   :        0.004 s           0.005 s
  | Hartree multipole summation                :        0.243 s           0.242 s
  | Integration                                :        0.649 s           0.649 s
  | Solution of K.-S. eqns.                    :        0.036 s           0.036 s
  | Total energy evaluation                    :        0.000 s           0.000 s
------------------------------------------------------------

------------------------------------------------------------
          Begin self-consistency iteration #    9

  Date     :  20150727, Time     :  123024.762
------------------------------------------------------------
  Evaluating new KS density.
  Integration grid: deviation in total charge (<rho> - N_e) =   5.305196E-10
  Pulay mixing of updated and previous charge densities.

  Evaluating partitioned Hartree potential by multipole expansion.
  | Analytical far-field extrapolation by fixed multipoles:
  | Hartree multipole sum: apparent total charge =  -0.191808E-06
  Summing up the Hartree potential.
  Time summed over all CPUs for potential: real work        1.919 s, elapsed        1.933 s
  | RMS charge density error from multipole expansion :   0.165119E-01

  Integrating Hamiltonian matrix: batch-based integration.
  Time summed over all CPUs for integration: real work        4.969 s, elapsed        5.177 s

  Updating Kohn-Sham eigenvalues, eigenvectors, occupation numbers, and Fermi level.
  Solving generalized eigenproblem
  Updating Kohn-Sham eigenvalues and eigenfunctions.
  Solving real generalised eigenvalue problem by standard LAPACK (fast)
  Determining occupation numbers for Kohn-Sham eigenstates.
  | Chemical potential (Fermi level) in eV                 : -.21935253E+01
  | Error in electron count due to remaining E_F inaccuracy: 0.51983307E-10
  | Maximum occupation number of highest empty state:  0.00E+00

  Highest occupied state (VBM) at     -2.19352534 eV
  | Occupation number:      1.00000000

  Lowest unoccupied state (CBM) at    -1.28446150 eV
  | Occupation number:      0.00000000

  Overall HOMO-LUMO gap:      0.90906383 eV.

  Total energy components:
  | Sum of eigenvalues            :        -168.16253900 Ha       -4575.93550709 eV
  | XC energy correction          :         -37.54698348 Ha       -1021.70540425 eV
  | XC potential correction       :          47.99290274 Ha        1305.95332980 eV
  | Free-atom electrostatic energy:        -142.81655261 Ha       -3886.23612613 eV
  | Hartree energy correction     :          -6.16716142 Ha        -167.81700056 eV
  | van der Waals energy corr.    :           0.00000000 Ha           0.00000000 eV
  | Entropy correction            :          -0.00010367 Ha          -0.00282095 eV
  | ---------------------------
  | Total energy                  :        -306.70033376 Ha       -8345.74070823 eV
  | Total energy, T -> 0          :        -306.70043743 Ha       -8345.74352918 eV  <-- do not rely on this value for anything but (periodic) metals
  | Electronic free energy        :        -306.70054110 Ha       -8345.74635013 eV

  Derived energy quantities:
  | Kinetic energy                :         306.03067111 Ha        8327.51826030 eV
  | Electrostatic energy          :        -575.18402139 Ha      -15651.55356428 eV
  | Energy correction for multipole
  | error in Hartree potential    :          -0.00236153 Ha          -0.06426039 eV
  | Sum of eigenvalues per atom                           :        -351.99503901 eV
  | Total energy (T->0) per atom                          :        -641.98027148 eV  <-- do not rely on this value for anything but (periodic) metals
  | Electronic free energy per atom                       :        -641.98048847 eV

  Self-consistency convergence accuracy:
  | Change of charge density      : 0.8489E-03
  | Change of sum of eigenvalues  : 0.1311E-01 eV
  | Change of total energy        : 0.2736E-04 eV

  End self-consistency iteration #     9       :  max(cpu_time)    wall_clock(cpu1)
  | Time for this iteration                    :        1.401 s           1.401 s
  | Charge density update                      :        0.457 s           0.457 s
  | Density mixing                             :        0.012 s           0.013 s
  | Hartree multipole update                   :        0.004 s           0.004 s
  | Hartree multipole summation                :        0.242 s           0.242 s
  | Integration                                :        0.649 s           0.649 s
  | Solution of K.-S. eqns.                    :        0.036 s           0.035 s
  | Total energy evaluation                    :        0.000 s           0.000 s
------------------------------------------------------------

------------------------------------------------------------
          Begin self-consistency iteration #   10

  Date     :  20150727, Time     :  123026.163
------------------------------------------------------------
  Evaluating new KS density.
  Integration grid: deviation in total charge (<rho> - N_e) =   5.196910E-11
[...]
  | Electronic free energy        :        -306.70266919 Ha       -8345.80425845 eV

  Derived energy quantities:
  | Kinetic energy                :         306.03219555 Ha        8327.55974256 eV
  | Electrostatic energy          :        -575.18565005 Ha      -15651.59788237 eV
  | Energy correction for multipole
  | error in Hartree potential    :          -0.00237208 Ha          -0.06454750 eV
  | Sum of eigenvalues per atom                           :        -351.99754926 eV
  | Total energy (T->0) per atom                          :        -641.98472596 eV  <-- do not rely on this value for anything but (periodic) metals
  | Electronic free energy per atom                       :        -641.98494296 eV

  atomic forces [eV/Ang]:
  -----------------------
  atom #    1
   Hellmann-Feynman + Multipole  : -.238378E+01 -.681874E+01 -.831382E+01
   Pulay + GGA                   : 0.239148E+01 0.841562E+01 0.639974E+01
   Van der Waals               : 0.494264E-02 0.791534E-02 -.465645E-02
   ----------------------------------------------------------------
   Total forces(   1)            : 0.126470E-01 0.160480E+01 -.191874E+01
  atom #    2
   Hellmann-Feynman + Multipole  : 0.674655E+00 -.129179E+01 0.549677E+00
   Pulay + GGA                   : -.913229E-01 0.909617E-01 -.664885E-01
   Van der Waals               : 0.177768E-02 0.134092E-02 -.162145E-02
   ----------------------------------------------------------------
   Total forces(   2)            : 0.585110E+00 -.119949E+01 0.481567E+00
  atom #    3
   Hellmann-Feynman + Multipole  : -.442750E+00 -.174532E+00 0.633909E-01
   Pulay + GGA                   : 0.148833E+00 0.343417E-02 0.125936E-02
   Van der Waals               : 0.434659E-03 0.270596E-02 -.314248E-02
   ----------------------------------------------------------------
   Total forces(   3)            : -.293482E+00 -.168392E+00 0.615078E-01
  atom #    4
   Hellmann-Feynman + Multipole  : -.129001E+00 -.112631E+00 0.113014E+01
   Pulay + GGA                   : -.363550E-01 -.579205E-02 0.757480E-01
   Van der Waals               : 0.277207E-02 0.533985E-02 0.108966E-02
   ----------------------------------------------------------------
   Total forces(   4)            : -.162584E+00 -.113083E+00 0.120698E+01
  atom #    5
   Hellmann-Feynman + Multipole  : 0.738497E+01 -.557818E+01 -.787955E+01
   Pulay + GGA                   : -.759480E+01 0.401423E+01 0.660485E+01
   Van der Waals               : 0.157265E-02 0.286182E-02 0.516335E-02
   ----------------------------------------------------------------
   Total forces(   5)            : -.208258E+00 -.156108E+01 -.126954E+01
  atom #    6
   Hellmann-Feynman + Multipole  : -.803228E-01 0.970751E+00 0.103387E+01
   Pulay + GGA                   : 0.425185E-01 0.100073E+00 0.116069E+00
   Van der Waals               : -.857973E-03 0.213788E-02 0.621945E-02
   ----------------------------------------------------------------
   Total forces(   6)            : -.386623E-01 0.107296E+01 0.115615E+01
  atom #    7
   Hellmann-Feynman + Multipole  : 0.225760E+00 0.467745E+00 0.257591E+00
   Pulay + GGA                   : -.121281E+00 -.676110E-01 0.493968E-01
   Van der Waals               : 0.302354E-03 0.103338E-02 0.148981E-02
   ----------------------------------------------------------------
   Total forces(   7)            : 0.104782E+00 0.401168E+00 0.308478E+00
  atom #    8
   Hellmann-Feynman + Multipole  : -.109652E+01 -.428313E+01 -.154135E+02
   Pulay + GGA                   : 0.197894E+01 0.455592E+01 0.136421E+02
   Van der Waals               : -.437030E-02 -.618863E-02 -.291696E-03
   ----------------------------------------------------------------
   Total forces(   8)            : 0.878044E+00 0.266606E+00 -.177174E+01
  atom #    9
   Hellmann-Feynman + Multipole  : -.318862E+00 -.189914E+00 0.391992E+00
   Pulay + GGA                   : 0.110540E+00 0.560594E-01 0.546651E-01
   Van der Waals               : -.290334E-02 -.120048E-02 -.163224E-02
   ----------------------------------------------------------------
   Total forces(   9)            : -.211225E+00 -.135056E+00 0.445025E+00
  atom #   10
   Hellmann-Feynman + Multipole  : -.435039E+00 -.142331E+00 0.127348E+01
   Pulay + GGA                   : -.785128E-01 -.653171E-01 0.109477E+00
   Van der Waals               : -.101145E-02 -.516757E-02 -.191179E-02
   ----------------------------------------------------------------
   Total forces(  10)            : -.514563E+00 -.212816E+00 0.138104E+01
  atom #   11
   Hellmann-Feynman + Multipole  : -.137050E+02 -.493186E+01 0.669483E+00
   Pulay + GGA                   : 0.144582E+02 0.652794E+01 -.146150E+01
   Van der Waals               : -.271943E-02 -.142513E-02 -.246939E-02
   ----------------------------------------------------------------
   Total forces(  11)            : 0.750512E+00 0.159466E+01 -.794489E+00
  atom #   12
   Hellmann-Feynman + Multipole  : -.252884E+00 -.123715E+00 0.516636E-01
   Pulay + GGA                   : 0.812112E-01 -.366515E-01 0.192472E-01
   Van der Waals               : -.181155E-02 -.508576E-02 -.631194E-03
   ----------------------------------------------------------------
   Total forces(  12)            : -.173484E+00 -.165452E+00 0.702796E-01
  atom #   13
   Hellmann-Feynman + Multipole  : -.786572E+00 -.149246E+01 0.691151E+00
   Pulay + GGA                   : 0.591353E-01 0.106529E+00 -.596025E-01
   Van der Waals               : 0.187200E-02 -.426758E-02 0.239441E-02
   ----------------------------------------------------------------
   Total forces(  13)            : -.725564E+00 -.139020E+01 0.633943E+00
  Timings for vdw_correction_hirshfeld (Tkatchenko-Scheffler 2009):
  | CPU time:        3.746 s, Wall clock time:        3.747 s.
  Removing unitary transformations (pure translations, rotations) from forces on atoms.
  Atomic forces before filtering:
  | Net force on center of mass :  0.327112E-02 -.537532E-02 -.952513E-02 eV/A
  | Net torque on center of mass:  0.205961E-01 -.547410E-02 -.124115E-01 eV
  Atomic forces after filtering:
  | Net force on center of mass :  -.892031E-16 0.356812E-15 -.124884E-14 eV/A
  | Net torque on center of mass:  -.944085E-15 0.743467E-15 -.377634E-15 eV
 
  Energy and forces in a compact form:
  | Total energy uncorrected      :         -0.834579861654986E+04 eV
  | Total energy corrected        :         -0.834580143749778E+04 eV  <-- do not rely on this value for anything but (periodic) metals
  | Electronic free energy        :         -0.834580425844570E+04 eV
  Total atomic forces (unitary forces cleaned) [eV/Ang]:
  |   1          0.127151678871635E-01          0.160471355588739E+01         -0.191748245385283E+01
  |   2          0.585011688158332E+00         -0.119979264219416E+01          0.482539807858409E+00
  |   3         -0.293462791044373E+00         -0.168282780134358E+00          0.626890729839389E-01
  |   4         -0.162499510319403E+00         -0.112932855852369E+00          0.120827523235656E+01
  |   5         -0.208142796667535E+00         -0.156049870138584E+01         -0.126817888445589E+01
  |   6         -0.386842712044935E-01          0.107376415416217E+01          0.115728514599461E+01
  |   7          0.104982355015562E+00          0.401690759806938E+00          0.309977081922358E+00
  |   8          0.877585572475116E+00          0.267518846105312E+00         -0.177133850580780E+01
  |   9         -0.211780057950771E+00         -0.133899347215687E+00          0.445264660522591E+00
  |  10         -0.514970742337197E+00         -0.211786833786151E+00          0.138152702644377E+01
  |  11          0.749801580276965E+00          0.159476240994997E+01         -0.794538766307146E+00
  |  12         -0.174125180842590E+00         -0.165088919563142E+00          0.703532678331681E-01
  |  13         -0.726431013446777E+00         -0.139016764578008E+01          0.633627314508264E+00
 
  ------------------------------------ 
  Start decomposition of the XC Energy 
  ------------------------------------ 
  Hartree-Fock part   :          0.000000000 Ha              0.000000000 eV
  ------------------------------------ 
  X Energy            :        -36.221093881 Ha           -985.626112610 eV
  C Energy GGA        :         -1.325785405 Ha            -36.076456410 eV
  Total XC Energy     :        -37.546879286 Ha          -1021.702569020 eV
  LDA X and C from self-consistent density 
  X Energy LDA        :        -32.636962165 Ha           -888.096926397 eV
  C Energy LDA        :         -2.677678157 Ha            -72.863329884 eV
  ------------------------------------ 
  End decomposition of the XC Energy 
  ------------------------------------ 
  Performing Hirshfeld analysis of fragment charges and moments.
  ----------------------------------------------------------------------
  | Atom     1: O
  |   Hirshfeld charge        :     -0.12008182
  |   Free atom volume        :     23.95238533
  |   Hirshfeld volume        :     22.76647285
  |   Hirshfeld dipole vector :      0.00689205       0.02199122       0.03387519
  |   Hirshfeld dipole moment :      0.04097124
  |   Hirshfeld second moments:      0.06404839      -0.00266214      -0.00770500
  |                                 -0.00266214       0.02383057      -0.02677861
  |                                 -0.00770500      -0.02677861       0.03525056
  ----------------------------------------------------------------------
  | Atom     2: H
  |   Hirshfeld charge        :      0.08087592
  |   Free atom volume        :     10.44207651
  |   Hirshfeld volume        :     12.89251295
  |   Hirshfeld dipole vector :      0.00915934       0.00918499       0.01748942
  |   Hirshfeld dipole moment :      0.02177469
  |   Hirshfeld second moments:     -0.02004775       0.01697296      -0.00206712
  |                                  0.01697296      -0.01728849       0.00989465
  |                                 -0.00206712       0.00989465      -0.01945753
  ----------------------------------------------------------------------
  | Atom     3: H
  |   Hirshfeld charge        :      0.11068722
  |   Free atom volume        :     10.44207651
  |   Hirshfeld volume        :     11.86814415
  |   Hirshfeld dipole vector :      0.02566577       0.01596124       0.01340344
  |   Hirshfeld dipole moment :      0.03306274
  |   Hirshfeld second moments:     -0.01172374      -0.00567484      -0.00397240
  |                                 -0.00567484       0.01969624       0.00552456
  |                                 -0.00397240       0.00552456       0.01510961
  ----------------------------------------------------------------------
  | Atom     4: H
  |   Hirshfeld charge        :      0.09610927
  |   Free atom volume        :     10.44207651
  |   Hirshfeld volume        :     10.37802335
  |   Hirshfeld dipole vector :     -0.00869477       0.00030513       0.01934062
  |   Hirshfeld dipole moment :      0.02120735
  |   Hirshfeld second moments:      0.03792731       0.01506099       0.00340067
  |                                  0.01506099       0.04199023       0.00141467
  |                                  0.00340067       0.00141467       0.00881717
  ----------------------------------------------------------------------
  | Atom     5: O
  |   Hirshfeld charge        :     -0.23089670
  |   Free atom volume        :     23.95238533
  |   Hirshfeld volume        :     22.59798545
  |   Hirshfeld dipole vector :     -0.02628460       0.01918687      -0.00269748
  |   Hirshfeld dipole moment :      0.03265413
  |   Hirshfeld second moments:      0.01166178       0.05491674      -0.01424957
  |                                  0.05491674       0.02350246       0.01672006
  |                                 -0.01424957       0.01672006       0.04470303
  ----------------------------------------------------------------------
  | Atom     6: H
  |   Hirshfeld charge        :      0.10388841
  |   Free atom volume        :     10.44207651
  |   Hirshfeld volume        :     10.58463414
  |   Hirshfeld dipole vector :      0.02252993       0.05574826       0.03254203
  |   Hirshfeld dipole moment :      0.06836995
  |   Hirshfeld second moments:      0.02958693       0.03232153      -0.01166051
  |                                  0.03232153       0.03222345      -0.00486085
  |                                 -0.01166051      -0.00486085       0.03605792
  ----------------------------------------------------------------------
  | Atom     7: H
  |   Hirshfeld charge        :      0.12096256
  |   Free atom volume        :     10.44207651
  |   Hirshfeld volume        :     10.80226305
  |   Hirshfeld dipole vector :     -0.05996498      -0.04370517       0.01533771
  |   Hirshfeld dipole moment :      0.07577062
  |   Hirshfeld second moments:      0.02053243       0.01896310      -0.00324618
  |                                  0.01896310       0.03858494       0.01229499
  |                                 -0.00324618       0.01229499       0.04517908
  ----------------------------------------------------------------------
  | Atom     8: O
  |   Hirshfeld charge        :     -0.26448314
  |   Free atom volume        :     23.95238533
  |   Hirshfeld volume        :     22.24129764
  |   Hirshfeld dipole vector :     -0.01516836       0.04844339       0.03560998
  |   Hirshfeld dipole moment :      0.06200735
  |   Hirshfeld second moments:      0.05522706       0.04412063       0.00289064
  |                                  0.04412063      -0.00412247      -0.02359715
  |                                  0.00289064      -0.02359715       0.01852950
  ----------------------------------------------------------------------
  | Atom     9: H
  |   Hirshfeld charge        :      0.13966094
  |   Free atom volume        :     10.44207651
  |   Hirshfeld volume        :      8.11040115
  |   Hirshfeld dipole vector :      0.08185935       0.06844415       0.02542310
  |   Hirshfeld dipole moment :      0.10968997
  |   Hirshfeld second moments:      0.09588775       0.01025784      -0.00516582
  |                                  0.01025784       0.06911379      -0.01448739
  |                                 -0.00516582      -0.01448739       0.08723282
  ----------------------------------------------------------------------
  | Atom    10: H
  |   Hirshfeld charge        :      0.10890751
  |   Free atom volume        :     10.44207651
  |   Hirshfeld volume        :      9.33240339
  |   Hirshfeld dipole vector :     -0.05638523      -0.01201828       0.05433013
  |   Hirshfeld dipole moment :      0.07921803
  |   Hirshfeld second moments:      0.06145854       0.02099142       0.01412389
  |                                  0.02099142       0.05320674       0.00178665
  |                                  0.01412389       0.00178665       0.05035508
  ----------------------------------------------------------------------
  | Atom    11: O
  |   Hirshfeld charge        :     -0.33705912
  |   Free atom volume        :     23.95238533
  |   Hirshfeld volume        :     24.08534436
  |   Hirshfeld dipole vector :      0.06611578       0.03160465      -0.00193303
  |   Hirshfeld dipole moment :      0.07330680
  |   Hirshfeld second moments:     -0.03904021      -0.01844348       0.01658648
  |                                 -0.01844348      -0.00080874      -0.05658285
  |                                  0.01658648      -0.05658285      -0.06580899
  ----------------------------------------------------------------------
  | Atom    12: H
  |   Hirshfeld charge        :      0.07031347
  |   Free atom volume        :     10.44207651
  |   Hirshfeld volume        :      9.33195304
  |   Hirshfeld dipole vector :      0.06048125      -0.00633894       0.01540634
  |   Hirshfeld dipole moment :      0.06273371
  |   Hirshfeld second moments:      0.03060015       0.02395028      -0.01246415
  |                                  0.02395028       0.05879920      -0.01281684
  |                                 -0.01246415      -0.01281684       0.03604629
  ----------------------------------------------------------------------
  | Atom    13: H
  |   Hirshfeld charge        :      0.12108907
  |   Free atom volume        :     10.44207651
  |   Hirshfeld volume        :      7.80874060
  |   Hirshfeld dipole vector :      0.03899486       0.10394715      -0.04845231
  |   Hirshfeld dipole moment :      0.12113313
  |   Hirshfeld second moments:      0.09522060      -0.01222291       0.00835870
  |                                 -0.01222291       0.08440218      -0.01634538
  |                                  0.00835870      -0.01634538       0.07354098
  ----------------------------------------------------------------------


------------------------------------------------------------------------------
  Final output of selected total energy values:

  The following output summarizes some interesting total energy values
  at the end of a run (AFTER all relaxation, molecular dynamics, etc.).

  | Total energy of the DFT / Hartree-Fock s.c.f. calculation      :          -8345.798616550 eV
  | Final zero-broadening corrected energy (caution - metals only) :          -8345.801437498 eV
  | For reference only, the value of 1 Hartree used in FHI-aims is :             27.211384500 eV

  Before relying on these values, please be sure to understand exactly which
  total energy value is referred to by a given number. Different objects may
  all carry the same name 'total energy'. Definitions:

  Total energy of the DFT / Hartree-Fock s.c.f. calculation:
  | Note that this energy does not include ANY quantities calculated after the
  | s.c.f. cycle, in particular not ANY RPA, MP2, etc. many-body perturbation terms.

  Final zero-broadening corrected energy:
  | For metallic systems only, a broadening of the occupation numbers at the Fermi
  | level can be extrapolated back to zero broadening by an electron-gas inspired
  | formula. For all systems that are not real metals, this value can be
  | meaningless and should be avoided.

------------------------------------------------------------------------------

------------------------------------------------------------
          Leaving FHI-aims.
          Date     :  20150727, Time     :  123039.774

          Computational steps:
          | Number of self-consistency cycles          :           15

          Detailed time accounting                     :  max(cpu_time)    wall_clock(cpu1)
          | Total time                                 :       28.229 s          28.246 s
          | Preparation time                           :        0.171 s           0.582 s
          | Grid partitioning                          :        0.123 s           0.123 s
          | Preloading free-atom quantities on grid    :        0.013 s           0.013 s
          | Free-atom superposition energy             :        0.051 s           0.051 s
          | Total time for integrations                :       10.751 s          10.749 s
          | Total time for solution of K.-S. equations :        0.672 s           0.670 s
          | Total time for density & force components  :       10.731 s          10.733 s
          | Total time for mixing                      :        0.159 s           0.158 s
          | Total time for Hartree multipole update    :        0.064 s           0.066 s
          | Total time for Hartree multipole sum       :        4.837 s           4.838 s
          | Total time for total energy evaluation     :        0.007 s           0.005 s
          | Total time for scaled ZORA corrections     :        0.000 s           0.000 s
          | Total time for TS (2009) vdW correction    :        0.039 s           0.040 s

          Have a nice day.
------------------------------------------------------------
