  MPI-parallelism will be employed.
------------------------------------------------------------
          Invoking FHI-aims ...
          Version 081213
          Compiled on 2013/08/29 at 17:41:06 on host generoso.

          When using FHI-aims, please cite the following reference:

          Volker Blum, Ralf Gehrke, Felix Hanke, Paula Havu,
          Ville Havu, Xinguo Ren, Karsten Reuter, and Matthias Scheffler,
          'Ab Initio Molecular Simulations with Numeric Atom-Centered Orbitals: FHI-aims',
          Computer Physics Communications 180, 2175-2196 (2009)

          For any questions about FHI-aims, please visit the aimsclub website
          with its forums and wiki. Contributions to both the forums and the
          wiki are warmly encouraged - they are for you, and everyone is welcome there.

------------------------------------------------------------

  Date     :  20150727, Time     :  125947.085
  Time zero on CPU 1             :   0.389930000000000E-01  s.
  Internal wall clock time zero  :           207233987.085  s.

  Using        8 parallel tasks.
  Task        0 on host gen59 reporting.
  Task        1 on host gen59 reporting.
  Task        2 on host gen59 reporting.
  Task        3 on host gen59 reporting.
  Task        4 on host gen59 reporting.
  Task        5 on host gen59 reporting.
  Task        6 on host gen59 reporting.
  Task        7 on host gen59 reporting.

  Performing system and environment tests:
  | Environment variable OMP_NUM_THREADS correctly set to 1.
  | Checking for scalapack...
  | No scalapack compiled in.

  Obtaining array dimensions for all initial allocations:
  
  -----------------------------------------------------------------------
  Parsing control.in (first pass over file, find array dimensions only).
  The contents of control.in will be repeated verbatim below
  unless switched off by setting 'verbatim_writeout .false.' .
  in the first line of control.in .
  -----------------------------------------------------------------------
  
  #########################################################################################
  #
  #  Volker Blum, FHI 2008 : Test run input file control.in
  #
  #########################################################################################
  #
  #  Physical model
  #
    xc                 rpbe
    spin               none
    relativistic       atomic_zora scalar
    charge             0.
   vdw_correction_hirshfeld
  #
  #  SCF convergence
  #
    occupation_type    gaussian 0.01
    mixer              pulay
      n_max_pulay        10
      charge_mix_param   0.1
    sc_accuracy_rho    5E-5
    sc_accuracy_eev    5E-3
    sc_accuracy_etot   5E-6
    sc_iter_limit      3000
  #
  #  Eigenvalue solver
  #
    KS_method          lapack
      empty_states       8
      basis_threshold    0.e-5
  #
  #  Efficiency
  #
  #   all previous settings are now default, except stratmann still
  #   undecided. Continue to handle stratmann with care, if at all.
  #
  #  partition_type stratmann
    partition_type rho_r2
  #  hartree_partition_type stratmann
  #
  #  Oprions for large clusters (100's of atoms: memory saving / better scaling)
  #
  # for periodic systems:
  #
    density_update_method orbital
    packed_matrix_format none
  #  k_grid 6 6 6
  #  output k_eigenvalue 1
  #  distributed_spline_storage .true.
  #
  #  Relaxation
  #
  #  relax_geometry   bfgs 5.e-3
    sc_accuracy_forces 5.E-4
    final_forces_cleaned .true.
  #
  #  Output options
  #
  #  output mulliken
    output Hirshfeld
  #  output dipole
  
  #harmonic_length_scale 0.001
  
  ################################################################################
  #
  #  FHI-aims code project
  #  VB, Fritz-Haber Institut, 2007
  #
  #  Suggested "safe" defaults for H atom (to be pasted into control.in file)
  #  Basis constructed for a non-relativistic H2 molecule using the
  #  PW-LDA functional.
  #
  ################################################################################
    species        H
  #     global species definitions
      nucleus             1
      cut_pot             4.0  2.0  1.0
      cut_free_atom       finite 8.0
      logarithmic         0.00010000 100.00  1.0123
      basis_dep_cutoff    1d-4  # 1d-4 is safe default - please check 5d-4 if you wish!
      radial_base         24 7.0
      radial_multiplier   2
      angular_grids       specified
        division   0.2783  110
        division   0.3822  194
        division   0.5626  302
  #      division   0.5922  434
  #      division   0.6227  590
  #      division   0.7206  770
        outer_grid  302
      l_hartree           4
  ################################################################################
  #
  #  Definition of "minimal" basis
  #
  ################################################################################
  #     valence basis states
      valence      1  s   1.
  #     ion occupancy
      ion_occ      1  s   0.5
  ################################################################################
  #
  #  Suggested additional basis functions. For production calculations,
  #  uncomment them one after another (the most important basis functions are
  #  listed first).
  #
  ################################################################################
  #  "First tier" - improvements: -1014.90 meV to -62.69 meV
       hydro 2 s 2.1
       hydro 2 p 3.5
  #  "Second tier" - improvements: -12.89 meV to -1.83 meV
       hydro 1 s 0.85
       hydro 2 p 3.7
       hydro 2 s 1.2
       hydro 3 d 7
  #  "Third tier" - improvements: -0.25 meV to -0.12 meV
  #     hydro 4 f 11.2
  #     hydro 3 p 4.8
  #     hydro 4 d 9
  #     hydro 3 s 3.2
  
  ################################################################################
  #
  #  FHI-aims code project
  #  VB, Fritz-Haber Institut, 2007
  #
  #  Suggested "safe" defaults for O atom (to be pasted into control.in file)
  #  All values have been tested for a non-relativistic, non-spinpolarized O2
  #  molecule using the PW-LDA functional. Validity for PBE is expected.
  #
  #  Constructed for dimers: 1.0 A, 1.208 A, 1.5 A, 2.0 A, 3.0 A
  #
  ################################################################################
    species        O
  #     global species definitions
      nucleus             8
      mass                15.9994
      l_hartree           4
      cut_pot             4.0  2.0  1.0
      cut_free_atom       finite 8.0
      basis_dep_cutoff    1d-4  # 1d-4 is safe default - please check 5d-4 if you wish!
      logarithmic         0.00010000 100.00  1.0123
      radial_base         36 7.0
      radial_multiplier   2
       angular_grids specified
        division   0.4087  110
        division   0.5181  194
        division   0.6184  302
  #      division   0.7315  434
  #      division   0.7934  590
  #      division   0.9656  770
  #      division   1.4041  974
  #      outer_grid 974
        outer_grid 302
  ################################################################################
  #
  #  Definition of "minimal" basis
  #
  ################################################################################
  #     valence basis states
      valence      2  s   2.
      valence      2  p   4.
  #     ion occupancy
      ion_occ      2  s   1.
      ion_occ      2  p   3.
  ################################################################################
  #
  #  Suggested additional basis functions. For production calculations,
  #  uncomment them one after another (the most important basis functions are
  #  listed first).
  #
  ################################################################################
  #  "First tier" - improvements: -699.05 meV to -159.38 meV
       hydro 2 p 1.8
       hydro 3 d 7.6
       hydro 3 s 6.4
  #  "Second tier" - improvements: -49.91 meV to -5.39 meV
       hydro 4 f 11.6
       hydro 3 p 6.2
       hydro 3 d 5.6
       hydro 5 g 17.6
       hydro 1 s 0.75
  #  "Third tier" - improvements: -2.83 meV to -0.50 meV
  #     ionic 2 p auto
  #     hydro 4 f 10.8
  #     hydro 4 d 4.7
  #     hydro 2 s 6.8
  #  "Fourth tier" - improvements: -0.40 meV to -0.12 meV
  #     hydro 3 p 5
  #     hydro 3 s 3.3
  #     hydro 5 g 15.6
  #     hydro 4 f 17.6
  #     hydro 4 d 14
  # Further basis functions - -0.08 meV and below
  #     hydro 3 s 2.1
  #     hydro 4 d 11.6
  #     hydro 3 p 16
  #     hydro 2 s 17.2
  
  
  -----------------------------------------------------------------------
  Completed first pass over input file control.in .
  -----------------------------------------------------------------------
  
  
  -----------------------------------------------------------------------
  Parsing geometry.in (first pass over file, find array dimensions only).
  The contents of geometry.in will be repeated verbatim below
  unless switched off by setting 'verbatim_writeout .false.' .
  in the first line of geometry.in .
  -----------------------------------------------------------------------
  
  atom      -4.053030000      0.065001000     -1.525160000  O
  atom      -4.566710000      0.974813000     -1.912820000  H
  atom      -3.067820000      0.330172000     -1.477310000  H
  atom      -4.370360000     -0.049164000     -0.572274000  H
  atom      -1.645860000      0.870179000     -1.502250000  O
  atom      -1.568890000      1.501730000     -0.721051000  H
  atom      -0.824432000      0.282220000     -1.377720000  H
  atom      -4.066610000      4.258280000     -0.900064000  O
  atom      -3.224110000      3.876870000     -0.569443000  H
  atom      -3.737450000      5.116530000     -1.322720000  H
  atom      -5.628340000      3.730740000      1.385610000  O
  atom      -6.090650000      4.418470000      1.860350000  H
  atom      -5.158540000      4.200260000      0.615875000  H
  
  -----------------------------------------------------------------------
  Completed first pass over input file geometry.in .
  -----------------------------------------------------------------------
  
 
  Basic array size parameters: 
  | Number of species                 :        2
  | Number of atoms                   :       13
  | Max. basis fn. angular momentum   :        4
  | Max. atomic/ionic basis occupied n:        2
  | Max. number of basis fn. types    :        2
  | Max. radial fns per species/type  :        8
  | Max. logarithmic grid size        :     1301
  | Max. radial integration grid size :       73
  | Max. angular integration grid size:      302
  | Max. angular grid division number :        8
  | Radial grid for Hartree potential :     1301
  | Number of spin channels           :        1

------------------------------------------------------------
          Reading file control.in.
------------------------------------------------------------
  XC: Using RPBE gradient-corrected functionals.
  Spin treatment: No spin polarisation.
  Scalar relativistic treatment of kinetic energy: on-site free-atom approximation to ZORA.
  Charge =   0.000000E+00: Neutral system requested explicitly.
  Using non-empirical van der Waals correction (Hirshfeld partitioning):
  Occupation type: Gaussian broadening, width =   0.100000E-01 eV.
  Using pulay charge density mixing.
  Pulay mixing - number of memorized iterations:   10
  Charge density mixing - mixing parameter:     0.1000
  Convergence accuracy of self-consistent charge density: 0.5000E-04
  Convergence accuracy of sum of eigenvalues: 0.5000E-02
  Convergence accuracy of total energy: 0.5000E-05
  Maximum number of s.-c. iterations  :  3000
  Kohn-Sham eigenvalues and eigenfunctions calculated by lapack diagonalisation (D&C).
  Number of empty states per atom:        8
  Threshold for basis singularities: 0.0000E+00
  Partition function in integrals calculations: rho / r^2
 Using packed matrix format           0
  Convergence accuracy of forces: 0.5000E-03
  Cleaning forces before final output.
  Hirshfeld charge analysis will be performed.
 
  Reading configuration options for species H                   .
  | Found nuclear charge :   1.0000
  | Found cutoff potl. onset [A], width [A], scale factor :    4.00000    2.00000    1.00000
  | Found cutoff specification for free atom: Cutoff potential begins at    8.00000 A.
  | Found logarithmic grid data [bohr] : 0.1000E-03 0.1000E+03 0.1012E+01
  | Threshold for basis-dependent cutoff potential is   0.100000E-03
  | Found data for basic radial integration grid :    24 points, outermost radius =    7.000 A
  | Found multiplier for basic radial grid :   2
  | Found angular grid specification: user-specified.
  | Specified grid contains     4 separate shells.
  | Check grid settings after all constraints further below.
  | Found l_max for Hartree potential  :   4
  | Found free-atom valence shell :  1 s   1.000
  | No ionic wave fns used. Skipping ion_occ.
  | Found hydrogenic basis function :  2 s   2.100
  | Found hydrogenic basis function :  2 p   3.500
  | Found hydrogenic basis function :  1 s   0.850
  | Found hydrogenic basis function :  2 p   3.700
  | Found hydrogenic basis function :  2 s   1.200
  | Found hydrogenic basis function :  3 d   7.000
  Species H                   : Missing cutoff potential type.
  Defaulting to exp(1/x)/(1-x)^2 type cutoff potential.
  Species H : On-site basis accuracy parameter (for Gram-Schmidt orthonormalisation) not specified.
  Using default value basis_acc =  0.1000000E-03.
  Species H                   : Using default innermost maximum threshold i_radial=  2 for radial functions.
  Species H                   : Basic radial grid will be enhanced according to radial_multiplier =   2, to contain    49 grid points.
 
  Reading configuration options for species O                   .
  | Found nuclear charge :   8.0000
  | Found atomic mass :    15.9994000000000      amu
  | Found l_max for Hartree potential  :   4
  | Found cutoff potl. onset [A], width [A], scale factor :    4.00000    2.00000    1.00000
  | Found cutoff specification for free atom: Cutoff potential begins at    8.00000 A.
  | Threshold for basis-dependent cutoff potential is   0.100000E-03
  | Found logarithmic grid data [bohr] : 0.1000E-03 0.1000E+03 0.1012E+01
  | Found data for basic radial integration grid :    36 points, outermost radius =    7.000 A
  | Found multiplier for basic radial grid :   2
  | Found angular grid specification: user-specified.
  | Specified grid contains     4 separate shells.
  | Check grid settings after all constraints further below.
  | Found free-atom valence shell :  2 s   2.000
  | Found free-atom valence shell :  2 p   4.000
  | No ionic wave fns used. Skipping ion_occ.
  | No ionic wave fns used. Skipping ion_occ.
  | Found hydrogenic basis function :  2 p   1.800
  | Found hydrogenic basis function :  3 d   7.600
  | Found hydrogenic basis function :  3 s   6.400
  | Found hydrogenic basis function :  4 f  11.600
  | Found hydrogenic basis function :  3 p   6.200
  | Found hydrogenic basis function :  3 d   5.600
  | Found hydrogenic basis function :  5 g  17.600
  | Found hydrogenic basis function :  1 s   0.750
  Species O                   : Missing cutoff potential type.
  Defaulting to exp(1/x)/(1-x)^2 type cutoff potential.
  Species O : On-site basis accuracy parameter (for Gram-Schmidt orthonormalisation) not specified.
  Using default value basis_acc =  0.1000000E-03.
  Species O                   : Using default innermost maximum threshold i_radial=  2 for radial functions.
  Species O                   : Basic radial grid will be enhanced according to radial_multiplier =   2, to contain    73 grid points.
 
  Finished reading input file 'control.in'. Consistency checks are next.
 
  Target number of points in a grid batch is not set. Defaulting to  100
  Method for grid partitioning is not set. Defaulting to parallel hash+maxmin partitioning.
  Batch size limit is not set. Defaulting to    200
  By default, will store active basis functions for each batch.
  If in need of memory, prune_basis_once .false. can be used to disable this option.
  communication_type for Hartree potential was not specified.
  Defaulting to calc_hartree .
  Pulay mixer: Number of initial linear mixing iterations not set.
  Defaulting to    0 iterations.
  Work space size for distributed Hartree potential not set.
  Defaulting to   0.200000E+03 MB.
  Algorithm-dependent basis array size parameters:
  | n_max_pulay                         :       10
  Geometry relaxation not requested: no relaxation will be performed.
  Handling of forces: Unphysical translation and rotation will be removed from forces.
  No accuracy limit for integral partition fn. given. Defaulting to 0.1000E-14.
  No threshold value for u(r) in integrations given. Defaulting to 0.1000E-05.
  No accuracy for occupation numbers given. Defaulting to 0.1000E-07.
  No threshold value for occupation numbers given. Defaulting to 0.0000E+00.
  No accuracy for fermi level given. Defaulting to 0.1000E-19.
  Maximum # of iterations to find E_F not set. Defaulting to  200.
  Will not use alltoall communication since running on < 1024 CPUs.
  Partitioning for Hartree potential was not defined. Using partition_type for integrals.
  | Reporting present value of keyword multip_moments_threshold  :       0.10000000E-09
  | This value may affect high angular momentum components of the Hartree potential in periodic systems.
  No q(lm)/r^(l+1) cutoff set for long-range Hartree potential.
  | Using default value of  0.100000E-09 .
  | Verify using the multipole_threshold keyword.
  Defaulting to new monopole extrapolation.
  Density update method: Loop over occupied states selected for charge density update.
------------------------------------------------------------


------------------------------------------------------------
          Reading geometry description geometry.in.
------------------------------------------------------------
  Input structure read successfully.
  The structure contains       13 atoms,  and a total of         41.000 electrons.

  Input geometry:
  | No unit cell requested.
  | Atomic structure:
  |       Atom                x [A]            y [A]            z [A]
  |    1: Species O             -4.053030         0.065001        -1.525160
  |    2: Species H             -4.566710         0.974813        -1.912820
  |    3: Species H             -3.067820         0.330172        -1.477310
  |    4: Species H             -4.370360        -0.049164        -0.572274
  |    5: Species O             -1.645860         0.870179        -1.502250
  |    6: Species H             -1.568890         1.501730        -0.721051
  |    7: Species H             -0.824432         0.282220        -1.377720
  |    8: Species O             -4.066610         4.258280        -0.900064
  |    9: Species H             -3.224110         3.876870        -0.569443
  |   10: Species H             -3.737450         5.116530        -1.322720
  |   11: Species O             -5.628340         3.730740         1.385610
  |   12: Species H             -6.090650         4.418470         1.860350
  |   13: Species H             -5.158540         4.200260         0.615875
  |

  | The smallest distance between any two atoms is         0.95502940 AA.
  |
  | The first atom of this pair is atom number                     11 .
  | The second atom of this pair is atom number                    12 .

  Structure-dependent array size parameters: 
  | Maximum number of distinct radial functions  :       18
  | Maximum number of basis functions            :      291
  | Number of Kohn-Sham states (occupied + empty):       73
------------------------------------------------------------

------------------------------------------------------------
          Preparing all fixed parts of the calculation.
------------------------------------------------------------
  Determining machine precision:
    2.225073858507201E-308
  Setting up grids for atomic and cluster calculations.

  Creating wave function, potential, and density for free atoms.

  Species: H

  List of occupied orbitals and eigenvalues:
    n    l              occ      energy [Ha]    energy [eV]
    1    0           1.0000        -0.241408        -6.5691


  Species: O

  List of occupied orbitals and eigenvalues:
    n    l              occ      energy [Ha]    energy [eV]
    1    0           2.0000       -18.944147      -515.4965
    2    0           2.0000        -0.883529       -24.0421
    2    1           4.0000        -0.330176        -8.9845

  Creating fixed part of basis set: Ionic, confined, hydrogenic.
 
  H                    hydrogenic:
 
  List of hydrogenic basis orbitals: 
    n    l      effective z      eigenvalue [eV]  inner max. [A]     outer max. [A]     outer radius [A]   
    2    0         2.100000       -14.9965           0.193241           1.317192           5.372934
    2    1         3.500000       -41.6672           0.602363           0.602363           4.056010
    1    0         0.850000        -9.8292           0.624864           0.624864           5.372934
    2    1         3.700000       -46.5653           0.573616           0.573616           3.909951
    2    0         1.200000        -4.5995           0.334977           2.228160           5.505921
    3    2         7.000000       -74.0753           0.680692           0.680692           3.769152
 
 
  O                    hydrogenic:
 
  List of hydrogenic basis orbitals: 
    n    l      effective z      eigenvalue [eV]  inner max. [A]     outer max. [A]     outer radius [A]   
    2    1         1.800000       -11.0118           1.178546           1.178546           5.432516
    3    2         7.600000       -87.3182           0.624117           0.624117           3.541422
    3    0         6.400000       -61.9209           0.061166           1.081887           4.306510
    4    3        11.600000      -114.4238           0.731621           0.731621           3.584982
    3    1         6.200000       -58.1113           0.255677           1.030255           4.306510
    3    2         5.600000       -47.4081           0.847222           0.847222           4.413102
    5    4        17.600000      -168.5799           0.749730           0.749730           3.372413
    1    0         0.750000        -7.6499           0.705275           0.705275           5.366508
 

  Adding cutoff potential to free-atom effective potential.
  Creating atomic-like basis functions for current effective potential.

  Species H                   :

  List of atomic basis orbitals and eigenvalues:
    n    l      energy [Ha]    energy [eV]    outer radius [A]
    1    0        -0.241374        -6.5681       5.372934


  Species O                   :

  List of atomic basis orbitals and eigenvalues:
    n    l      energy [Ha]    energy [eV]    outer radius [A]
    1    0       -18.944147      -515.4965       1.415745
    2    0        -0.883529       -24.0421       5.048305
    2    1        -0.330173        -8.9845       5.301302

  Assembling full basis from fixed parts.
  | Species H :   atomic orbital   1 s accepted.
  | Species H :    hydro orbital   2 s accepted.
  | Species H :    hydro orbital   1 s accepted.
  | Species H :    hydro orbital   2 s accepted.
  | Species H :    hydro orbital   2 p accepted.
  | Species H :    hydro orbital   2 p accepted.
  | Species H :    hydro orbital   3 d accepted.
  | Species O :   atomic orbital   1 s accepted.
  | Species O :    hydro orbital   3 s accepted.
  | Species O :   atomic orbital   2 s accepted.
  | Species O :    hydro orbital   1 s accepted.
  | Species O :    hydro orbital   3 p accepted.
  | Species O :   atomic orbital   2 p accepted.
  | Species O :    hydro orbital   2 p accepted.
  | Species O :    hydro orbital   3 d accepted.
  | Species O :    hydro orbital   3 d accepted.
  | Species O :    hydro orbital   4 f accepted.
  | Species O :    hydro orbital   5 g accepted.
 
  Basis size parameters after reduction:
  | Total number of radial functions:       18
  | Total number of basis functions :      291
 
  Testing on-site integration grid accuracy.
  |  Species  Function  <phi|h_atom|phi> (log., in eV)  <phi|h_atom|phi> (rad., in eV)
           1        1                 -6.5683835025                 -6.5684759159
           1        2                 13.3711789951                 13.3708738703
           1        3                 23.6590910787                 23.6532055418
           1        4                 16.2963827186                 16.1870710655 ***
           1        5                 28.7627214838                 28.7627215090
           1        6                 59.5965249172                 59.5965950857
           1        7                 60.2220506392                 60.2220503827
           2        8               -515.4964576505               -515.4964530710
           2        9                 15.3030791347                 15.3030722972
           2       10                -21.7296094581                -21.7296135470
           2       11                 14.2969371730                 14.2969701621
           2       12                 21.0679693190                 21.0679697493
           2       13                 -2.3833606469                 -2.3833613176
           2       14                 13.7067136422                 13.7066766629
           2       15                 45.8013116808                 45.8013116965
           2       16                 52.2309815402                 52.2309831494
           2       17                 85.4120732416                 85.4120732763
           2       18                142.1019167745                142.1019167817
 * Note: Onsite integrals marked "***" above are less accurate than
 * onsite_accuracy_threshold =    0.03000 eV. Usually, this is harmless.
 * When in doubt, tighten the "radial" and/or "radial_multiplier" flags to check.

  Preparing densities etc. for the partition functions (integrals / Hartree potential).

  Preparations completed.
  max(cpu_time)          :      0.171 s.
  Wall clock time (cpu1) :      0.624 s.
------------------------------------------------------------

------------------------------------------------------------
          Begin self-consistency loop: Initialization.

          Date     :  20150727, Time     :  125947.721
------------------------------------------------------------

  Initializing index lists of integration centers etc. from given atomic structure:
  | Number of centers in hartree potential         :        13
  | Number of centers in hartree multipole         :        13
  | Number of centers in electron density summation:        13
  | Number of centers in basis integrals           :        13
  | Number of centers in integrals                 :        13
  Partitioning the integration grid into batches with parallel hashing+maxmin method.
  | Number of batches:     1649
  | Maximal batch size:     200
  | Minimal batch size:      50
  | Average batch size:     102.463
  | Standard deviation of batch sizes:      30.594

  Integration load balanced across     8 MPI tasks.
  Work distribution over tasks is as follows:
  Task     0 has      21102 integration points.
  Task     1 has      21115 integration points.
  Task     2 has      21114 integration points.
  Task     3 has      21081 integration points.
  Task     4 has      21148 integration points.
  Task     5 has      21132 integration points.
  Task     6 has      21102 integration points.
  Task     7 has      21168 integration points.
  Initializing partition tables, free-atom densities, potentials, etc. across the integration grid (initialize_grid_storage).
  | Net number of integration points:   168962
  | of which are non-zero points    :   168415
  Obtaining max. number of non-zero basis functions in each batch (get_n_compute_maxes).
  | Maximal number of non-zero basis functions:      288 in task     0
  | Maximal number of non-zero basis functions:      288 in task     1
  | Maximal number of non-zero basis functions:      288 in task     2
  | Maximal number of non-zero basis functions:      288 in task     3
  | Maximal number of non-zero basis functions:      288 in task     4
  | Maximal number of non-zero basis functions:      288 in task     5
  | Maximal number of non-zero basis functions:      288 in task     6
  | Maximal number of non-zero basis functions:      288 in task     7
  Integrating Hamiltonian matrix: batch-based integration.
  Time summed over all CPUs for integration: real work        4.541 s, elapsed        4.664 s
  Integrating overlap matrix.
  Time summed over all CPUs for integration: real work        2.398 s, elapsed        2.485 s

  Updating Kohn-Sham eigenvalues, eigenvectors, occupation numbers, and Fermi level.
  Solving generalized eigenproblem
  Updating Kohn-Sham eigenvalues and eigenfunctions.
  Transforming overlap matrix and checking for singularities.
  Overlap matrix is nonsingular:
  | Lowest eigenvalue:  0.291185E-03
  Solving real generalised eigenvalue problem by standard LAPACK (fast)
  Determining occupation numbers for Kohn-Sham eigenstates.
  | Chemical potential (Fermi level) in eV                 : -.29689094E+01
  | Error in electron count due to remaining E_F inaccuracy: 0.00000000E+00
  | Maximum occupation number of highest empty state:  0.00E+00

  Writing Kohn-Sham eigenvalues.

  State    Occupation    Eigenvalue [Ha]    Eigenvalue [eV]
      1       2.00000         -19.064918         -518.78282
      2       2.00000         -19.044595         -518.22981
      3       2.00000         -19.042499         -518.17276
      4       2.00000         -19.042484         -518.17235
      5       2.00000          -1.122287          -30.53898
      6       2.00000          -1.092156          -29.71906
      7       2.00000          -1.084006          -29.49729
      8       2.00000          -1.081769          -29.43643
      9       2.00000          -0.639301          -17.39627
     10       2.00000          -0.623193          -16.95793
     11       2.00000          -0.604937          -16.46117
     12       2.00000          -0.603850          -16.43159
     13       2.00000          -0.600957          -16.35287
     14       2.00000          -0.515410          -14.02502
     15       2.00000          -0.514921          -14.01171
     16       2.00000          -0.497864          -13.54757
     17       2.00000          -0.486189          -13.22988
     18       2.00000          -0.435881          -11.86094
     19       2.00000          -0.433385          -11.79301
     20       2.00000          -0.429307          -11.68204
     21       1.00000          -0.109105           -2.96891
     22       0.00000          -0.075826           -2.06334
     23       0.00000          -0.067309           -1.83156
     24       0.00000          -0.043192           -1.17531
     25       0.00000          -0.029199           -0.79454
     26       0.00000          -0.020090           -0.54669
     27       0.00000           0.025655            0.69810
     28       0.00000           0.037035            1.00778
     29       0.00000           0.046282            1.25940
     30       0.00000           0.061318            1.66855
     31       0.00000           0.076147            2.07206
     32       0.00000           0.084440            2.29772
     33       0.00000           0.087751            2.38782
     34       0.00000           0.095812            2.60717
     35       0.00000           0.103518            2.81688
     36       0.00000           0.104686            2.84865
     37       0.00000           0.118120            3.21422
     38       0.00000           0.129288            3.51811
     39       0.00000           0.130501            3.55111
     40       0.00000           0.150994            4.10875
     41       0.00000           0.156967            4.27130
     42       0.00000           0.165444            4.50196
     43       0.00000           0.184864            5.03040
     44       0.00000           0.210475            5.72733
     45       0.00000           0.219477            5.97229
     46       0.00000           0.233493            6.35367
     47       0.00000           0.251755            6.85059
     48       0.00000           0.257825            7.01577
     49       0.00000           0.292410            7.95688
     50       0.00000           0.315181            8.57650
     51       0.00000           0.333232            9.06772
     52       0.00000           0.348276            9.47708
     53       0.00000           0.356709            9.70654
     54       0.00000           0.363236            9.88416
     55       0.00000           0.368506           10.02756
     56       0.00000           0.374138           10.18082
     57       0.00000           0.375276           10.21179
     58       0.00000           0.411059           11.18550
     59       0.00000           0.421789           11.47748
     60       0.00000           0.431655           11.74592
     61       0.00000           0.448495           12.20418
     62       0.00000           0.458303           12.47106
     63       0.00000           0.468857           12.75824
     64       0.00000           0.491809           13.38279
     65       0.00000           0.515056           14.01540
     66       0.00000           0.532612           14.49312
     67       0.00000           0.555619           15.11916
     68       0.00000           0.575996           15.67364
     69       0.00000           0.619538           16.85848
     70       0.00000           0.631523           17.18461
     71       0.00000           0.659580           17.94808
     72       0.00000           0.729526           19.85141
     73       0.00000           0.747619           20.34375

  Highest occupied state (VBM) at     -2.96890937 eV
  | Occupation number:      1.00000000

  Lowest unoccupied state (CBM) at    -2.96890937 eV
  | Occupation number:      1.00000000

  Overall HOMO-LUMO gap:      0.00000000 eV.
  Calculating total energy contributions from superposition of free atom densities.

  Total energy components:
  | Sum of eigenvalues            :        -174.02892197 Ha       -4735.56790975 eV
  | XC energy correction          :         -36.77928702 Ha       -1000.81532075 eV
  | XC potential correction       :          47.00044323 Ha        1278.94713251 eV
  | Free-atom electrostatic energy:        -143.10656298 Ha       -3894.12770986 eV
  | Hartree energy correction     :           0.00000000 Ha           0.00000000 eV
  | van der Waals energy corr.    :           0.00000000 Ha           0.00000000 eV
  | Entropy correction            :          -0.00010367 Ha          -0.00282095 eV
  | ---------------------------
  | Total energy                  :        -306.91432874 Ha       -8351.56380784 eV
  | Total energy, T -> 0          :        -306.91443241 Ha       -8351.56662879 eV  <-- do not rely on this value for anything but (periodic) metals
  | Electronic free energy        :        -306.91453607 Ha       -8351.56944974 eV

  Derived energy quantities:
  | Kinetic energy                :         303.94595899 Ha        8270.79035719 eV
  | Electrostatic energy          :        -574.08100070 Ha      -15621.53884428 eV
  | Energy correction for multipole
  | error in Hartree potential    :           0.00000000 Ha           0.00000000 eV
  | Sum of eigenvalues per atom                           :        -364.27445460 eV
  | Total energy (T->0) per atom                          :        -642.42820221 eV  <-- do not rely on this value for anything but (periodic) metals
  | Electronic free energy per atom                       :        -642.42841921 eV
  Initialize hartree_potential_storage
  Max. number of atoms included in rho_multipole:           13

  End scf initialization - timings             :  max(cpu_time)    wall_clock(cpu1)
  | Time for scf. initialization               :        1.336 s           1.336 s
  | Boundary condition initialization          :        0.000 s           0.000 s
  | Integration                                :        0.896 s           0.896 s
  | Solution of K.-S. eqns.                    :        0.136 s           0.136 s
  | Grid partitioning                          :        0.139 s           0.138 s
  | Preloading free-atom quantities on grid    :        0.014 s           0.013 s
  | Free-atom superposition energy             :        0.052 s           0.052 s
  | Total energy evaluation                    :        0.000 s           0.000 s
------------------------------------------------------------

------------------------------------------------------------
          Begin self-consistency iteration #    1

  Date     :  20150727, Time     :  125949.057
------------------------------------------------------------
  Evaluating new KS density.
  Integration grid: deviation in total charge (<rho> - N_e) =   1.421085E-14
  Pulay mixing of updated and previous charge densities.

  Evaluating partitioned Hartree potential by multipole expansion.
  | Analytical far-field extrapolation by fixed multipoles:
  | Hartree multipole sum: apparent total charge =  -0.100787E-05
  Summing up the Hartree potential.
  Time summed over all CPUs for potential: real work        1.918 s, elapsed        1.932 s
  | RMS charge density error from multipole expansion :   0.144706E-02

  Integrating Hamiltonian matrix: batch-based integration.
  Time summed over all CPUs for integration: real work        4.535 s, elapsed        4.670 s

  Updating Kohn-Sham eigenvalues, eigenvectors, occupation numbers, and Fermi level.
  Solving generalized eigenproblem
  Updating Kohn-Sham eigenvalues and eigenfunctions.
  Solving real generalised eigenvalue problem by standard LAPACK (fast)
  Determining occupation numbers for Kohn-Sham eigenstates.
  | Chemical potential (Fermi level) in eV                 : -.27979109E+01
  | Error in electron count due to remaining E_F inaccuracy: -.11937118E-11
  | Maximum occupation number of highest empty state:  0.00E+00

  Writing Kohn-Sham eigenvalues.

  State    Occupation    Eigenvalue [Ha]    Eigenvalue [eV]
      1       2.00000         -19.013636         -517.38737
      2       2.00000         -18.977280         -516.39807
      3       2.00000         -18.968429         -516.15723
      4       2.00000         -18.960068         -515.92970
      5       2.00000          -1.098717          -29.89761
      6       2.00000          -1.052137          -28.63010
      7       2.00000          -1.051483          -28.61231
      8       2.00000          -1.042896          -28.37864
      9       2.00000          -0.618559          -16.83186
     10       2.00000          -0.585632          -15.93585
     11       2.00000          -0.583526          -15.87856
     12       2.00000          -0.576864          -15.69727
     13       2.00000          -0.571970          -15.56409
     14       2.00000          -0.487282          -13.25961
     15       2.00000          -0.476900          -12.97712
     16       2.00000          -0.460361          -12.52705
     17       2.00000          -0.455137          -12.38491
     18       2.00000          -0.404027          -10.99413
     19       2.00000          -0.393855          -10.71734
     20       2.00000          -0.384066          -10.45096
     21       1.00000          -0.102821           -2.79791
     22       0.00000          -0.068567           -1.86580
     23       0.00000          -0.060637           -1.65001
     24       0.00000          -0.034657           -0.94306
     25       0.00000          -0.023646           -0.64343
     26       0.00000          -0.013663           -0.37179
     27       0.00000           0.034807            0.94714
     28       0.00000           0.044280            1.20491
     29       0.00000           0.054115            1.47255
     30       0.00000           0.064923            1.76663
     31       0.00000           0.080689            2.19566
     32       0.00000           0.090424            2.46056
     33       0.00000           0.096530            2.62672
     34       0.00000           0.102911            2.80035
     35       0.00000           0.112639            3.06506
     36       0.00000           0.114931            3.12742
     37       0.00000           0.124484            3.38738
     38       0.00000           0.136070            3.70266
     39       0.00000           0.141191            3.84200
     40       0.00000           0.158539            4.31406
     41       0.00000           0.164648            4.48031
     42       0.00000           0.173749            4.72795
     43       0.00000           0.191692            5.21619
     44       0.00000           0.219554            5.97435
     45       0.00000           0.225641            6.14001
     46       0.00000           0.239115            6.50665
     47       0.00000           0.258103            7.02334
     48       0.00000           0.265015            7.21141
     49       0.00000           0.297042            8.08292
     50       0.00000           0.321561            8.75011
     51       0.00000           0.339382            9.23506
     52       0.00000           0.354566            9.64824
     53       0.00000           0.364509            9.91880
     54       0.00000           0.372397           10.13345
     55       0.00000           0.375422           10.21575
     56       0.00000           0.380870           10.36401
     57       0.00000           0.382353           10.40435
     58       0.00000           0.416423           11.33144
     59       0.00000           0.428553           11.66151
     60       0.00000           0.440664           11.99109
     61       0.00000           0.456034           12.40931
     62       0.00000           0.467497           12.72125
     63       0.00000           0.474275           12.90569
     64       0.00000           0.504748           13.73490
     65       0.00000           0.523917           14.25651
     66       0.00000           0.542176           14.75337
     67       0.00000           0.562546           15.30767
     68       0.00000           0.588922           16.02537
     69       0.00000           0.626265           17.04153
     70       0.00000           0.640888           17.43944
     71       0.00000           0.670956           18.25765
     72       0.00000           0.739594           20.12538
     73       0.00000           0.758092           20.62874

  Highest occupied state (VBM) at    -10.45096353 eV
  | Occupation number:      2.00000000

  Lowest unoccupied state (CBM) at    -2.79791094 eV
  | Occupation number:      1.00000000

  Overall HOMO-LUMO gap:      7.65305260 eV.

  Total energy components:
  | Sum of eigenvalues            :        -172.42847342 Ha       -4692.01748890 eV
  | XC energy correction          :         -36.95268171 Ha       -1005.53363038 eV
  | XC potential correction       :          47.22719022 Ha        1285.11723205 eV
  | Free-atom electrostatic energy:        -143.10656298 Ha       -3894.12770986 eV
  | Hartree energy correction     :          -1.55709546 Ha         -42.37072326 eV
  | van der Waals energy corr.    :           0.00000000 Ha           0.00000000 eV
  | Entropy correction            :          -0.00010367 Ha          -0.00282095 eV
  | ---------------------------
  | Total energy                  :        -306.81762335 Ha       -8348.93232035 eV
  | Total energy, T -> 0          :        -306.81772702 Ha       -8348.93514129 eV  <-- do not rely on this value for anything but (periodic) metals
  | Electronic free energy        :        -306.81783069 Ha       -8348.93796224 eV

  Derived energy quantities:
  | Kinetic energy                :         304.99886126 Ha        8299.44128574 eV
  | Electrostatic energy          :        -574.86380289 Ha      -15642.83997570 eV
  | Energy correction for multipole
  | error in Hartree potential    :           0.00026723 Ha           0.00727174 eV
  | Sum of eigenvalues per atom                           :        -360.92442222 eV
  | Total energy (T->0) per atom                          :        -642.22578010 eV  <-- do not rely on this value for anything but (periodic) metals
  | Electronic free energy per atom                       :        -642.22599710 eV

  Self-consistency convergence accuracy:
  | Change of charge density      : 0.5588E+00
  | Change of sum of eigenvalues  : 0.4355E+02 eV
  | Change of total energy        : 0.2631E+01 eV

  End self-consistency iteration #     1       :  max(cpu_time)    wall_clock(cpu1)
  | Time for this iteration                    :        1.299 s           1.299 s
  | Charge density update                      :        0.427 s           0.427 s
  | Density mixing                             :        0.002 s           0.003 s
  | Hartree multipole update                   :        0.005 s           0.005 s
  | Hartree multipole summation                :        0.242 s           0.242 s
  | Integration                                :        0.585 s           0.585 s
  | Solution of K.-S. eqns.                    :        0.035 s           0.036 s
  | Total energy evaluation                    :        0.000 s           0.001 s
------------------------------------------------------------

------------------------------------------------------------
          Begin self-consistency iteration #    2

  Date     :  20150727, Time     :  125950.356
------------------------------------------------------------
  Evaluating new KS density.
  Integration grid: deviation in total charge (<rho> - N_e) =  -1.172396E-12
  Pulay mixing of updated and previous charge densities.

  Evaluating partitioned Hartree potential by multipole expansion.
  | Analytical far-field extrapolation by fixed multipoles:
  | Hartree multipole sum: apparent total charge =  -0.343420E-05
  Summing up the Hartree potential.
  Time summed over all CPUs for potential: real work        1.918 s, elapsed        1.933 s
  | RMS charge density error from multipole expansion :   0.578449E-02

  Integrating Hamiltonian matrix: batch-based integration.
  Time summed over all CPUs for integration: real work        4.529 s, elapsed        4.669 s

  Updating Kohn-Sham eigenvalues, eigenvectors, occupation numbers, and Fermi level.
  Solving generalized eigenproblem
  Updating Kohn-Sham eigenvalues and eigenfunctions.
  Solving real generalised eigenvalue problem by standard LAPACK (fast)
  Determining occupation numbers for Kohn-Sham eigenstates.
  | Chemical potential (Fermi level) in eV                 : -.24082190E+01
  | Error in electron count due to remaining E_F inaccuracy: 0.00000000E+00
  | Maximum occupation number of highest empty state:  0.00E+00

  Highest occupied state (VBM) at     -2.40821904 eV
  | Occupation number:      1.00000000

  Lowest unoccupied state (CBM) at    -2.40821904 eV
  | Occupation number:      1.00000000

  Overall HOMO-LUMO gap:      0.00000000 eV.

  Total energy components:
  | Sum of eigenvalues            :        -168.70246078 Ha       -4590.62752626 eV
  | XC energy correction          :         -37.37639931 Ha       -1017.06357281 eV
  | XC potential correction       :          47.78013009 Ha        1300.16349132 eV
  | Free-atom electrostatic energy:        -143.10656298 Ha       -3894.12770986 eV
  | Hartree energy correction     :          -5.30436068 Ha        -144.33899796 eV
  | van der Waals energy corr.    :           0.00000000 Ha           0.00000000 eV
  | Entropy correction            :          -0.00010367 Ha          -0.00282095 eV
  | ---------------------------
  | Total energy                  :        -306.70965366 Ha       -8345.99431557 eV
  | Total energy, T -> 0          :        -306.70975733 Ha       -8345.99713652 eV  <-- do not rely on this value for anything but (periodic) metals
  | Electronic free energy        :        -306.70986099 Ha       -8345.99995746 eV

  Derived energy quantities:
  | Kinetic energy                :         307.12065126 Ha        8357.17812940 eV
  | Electrostatic energy          :        -576.45390561 Ha      -15686.10887216 eV
  | Energy correction for multipole
  | error in Hartree potential    :           0.00042655 Ha           0.01160712 eV
  | Sum of eigenvalues per atom                           :        -353.12519433 eV
  | Total energy (T->0) per atom                          :        -641.99977973 eV  <-- do not rely on this value for anything but (periodic) metals
  | Electronic free energy per atom                       :        -641.99999673 eV

  Self-consistency convergence accuracy:
  | Change of charge density      : 0.4233E+00
  | Change of sum of eigenvalues  : 0.1014E+03 eV
  | Change of total energy        : 0.2938E+01 eV

  End self-consistency iteration #     2       :  max(cpu_time)    wall_clock(cpu1)
  | Time for this iteration                    :        1.296 s           1.295 s
  | Charge density update                      :        0.423 s           0.423 s
  | Density mixing                             :        0.005 s           0.004 s
  | Hartree multipole update                   :        0.004 s           0.005 s
  | Hartree multipole summation                :        0.243 s           0.242 s
  | Integration                                :        0.585 s           0.585 s
  | Solution of K.-S. eqns.                    :        0.035 s           0.036 s
  | Total energy evaluation                    :        0.001 s           0.000 s
------------------------------------------------------------

------------------------------------------------------------
          Begin self-consistency iteration #    3

  Date     :  20150727, Time     :  125951.651
------------------------------------------------------------
  Evaluating new KS density.
  Integration grid: deviation in total charge (<rho> - N_e) =   4.263256E-14
  Pulay mixing of updated and previous charge densities.

  Evaluating partitioned Hartree potential by multipole expansion.
  | Analytical far-field extrapolation by fixed multipoles:
  | Hartree multipole sum: apparent total charge =  -0.358372E-05
  Summing up the Hartree potential.
  Time summed over all CPUs for potential: real work        1.918 s, elapsed        1.932 s
  | RMS charge density error from multipole expansion :   0.121213E-01

  Integrating Hamiltonian matrix: batch-based integration.
  Time summed over all CPUs for integration: real work        4.528 s, elapsed        4.661 s

  Updating Kohn-Sham eigenvalues, eigenvectors, occupation numbers, and Fermi level.
  Solving generalized eigenproblem
  Updating Kohn-Sham eigenvalues and eigenfunctions.
  Solving real generalised eigenvalue problem by standard LAPACK (fast)
  Determining occupation numbers for Kohn-Sham eigenstates.
  | Chemical potential (Fermi level) in eV                 : -.24695251E+01
  | Error in electron count due to remaining E_F inaccuracy: -.21316282E-12
  | Maximum occupation number of highest empty state:  0.00E+00

  Highest occupied state (VBM) at     -6.98901580 eV
  | Occupation number:      2.00000000

  Lowest unoccupied state (CBM) at    -2.46952508 eV
  | Occupation number:      1.00000000

  Overall HOMO-LUMO gap:      4.51949072 eV.

  Total energy components:
  | Sum of eigenvalues            :        -168.98236853 Ha       -4598.24420382 eV
  | XC energy correction          :         -37.36215420 Ha       -1016.67594367 eV
  | XC potential correction       :          47.75469678 Ha        1299.47141579 eV
  | Free-atom electrostatic energy:        -143.10656298 Ha       -3894.12770986 eV
  | Hartree energy correction     :          -5.01057272 Ha        -136.34462077 eV
  | van der Waals energy corr.    :           0.00000000 Ha           0.00000000 eV
  | Entropy correction            :          -0.00010367 Ha          -0.00282095 eV
  | ---------------------------
  | Total energy                  :        -306.70696165 Ha       -8345.92106232 eV
  | Total energy, T -> 0          :        -306.70706532 Ha       -8345.92388326 eV  <-- do not rely on this value for anything but (periodic) metals
  | Electronic free energy        :        -306.70716899 Ha       -8345.92670421 eV

  Derived energy quantities:
  | Kinetic energy                :         305.64305010 Ha        8316.97055613 eV
  | Electrostatic energy          :        -574.98785756 Ha      -15646.21567478 eV
  | Energy correction for multipole
  | error in Hartree potential    :          -0.00237741 Ha          -0.06469257 eV
  | Sum of eigenvalues per atom                           :        -353.71109260 eV
  | Total energy (T->0) per atom                          :        -641.99414487 eV  <-- do not rely on this value for anything but (periodic) metals
  | Electronic free energy per atom                       :        -641.99436186 eV

  Self-consistency convergence accuracy:
  | Change of charge density      : 0.2127E+00
  | Change of sum of eigenvalues  : -.7617E+01 eV
  | Change of total energy        : 0.7325E-01 eV

  End self-consistency iteration #     3       :  max(cpu_time)    wall_clock(cpu1)
  | Time for this iteration                    :        1.293 s           1.293 s
  | Charge density update                      :        0.420 s           0.420 s
  | Density mixing                             :        0.006 s           0.006 s
  | Hartree multipole update                   :        0.004 s           0.005 s
  | Hartree multipole summation                :        0.243 s           0.242 s
  | Integration                                :        0.583 s           0.584 s
  | Solution of K.-S. eqns.                    :        0.036 s           0.035 s
  | Total energy evaluation                    :        0.000 s           0.000 s
------------------------------------------------------------

------------------------------------------------------------
          Begin self-consistency iteration #    4

  Date     :  20150727, Time     :  125952.944
------------------------------------------------------------
  Evaluating new KS density.
  Integration grid: deviation in total charge (<rho> - N_e) =  -2.060574E-13
  Pulay mixing of updated and previous charge densities.

  Evaluating partitioned Hartree potential by multipole expansion.
  | Analytical far-field extrapolation by fixed multipoles:
  | Hartree multipole sum: apparent total charge =  -0.446553E-05
  Summing up the Hartree potential.
  Time summed over all CPUs for potential: real work        1.917 s, elapsed        1.932 s
  | RMS charge density error from multipole expansion :   0.155474E-01

  Integrating Hamiltonian matrix: batch-based integration.
  Time summed over all CPUs for integration: real work        4.518 s, elapsed        4.655 s

  Updating Kohn-Sham eigenvalues, eigenvectors, occupation numbers, and Fermi level.
  Solving generalized eigenproblem
  Updating Kohn-Sham eigenvalues and eigenfunctions.
  Solving real generalised eigenvalue problem by standard LAPACK (fast)
  Determining occupation numbers for Kohn-Sham eigenstates.
  | Chemical potential (Fermi level) in eV                 : -.23624624E+01
  | Error in electron count due to remaining E_F inaccuracy: 0.12889956E-09
  | Maximum occupation number of highest empty state:  0.00E+00

  Highest occupied state (VBM) at     -2.36246242 eV
  | Occupation number:      1.00000000

  Lowest unoccupied state (CBM) at    -1.37797922 eV
  | Occupation number:      0.00000000

  Overall HOMO-LUMO gap:      0.98448320 eV.

  Total energy components:
  | Sum of eigenvalues            :        -167.94257607 Ha       -4569.95001146 eV
  | XC energy correction          :         -37.50080658 Ha       -1020.44886691 eV
  | XC potential correction       :          47.93347124 Ha        1304.33611640 eV
  | Free-atom electrostatic energy:        -143.10656298 Ha       -3894.12770986 eV
  | Hartree energy correction     :          -6.08532953 Ha        -165.59024155 eV
  | van der Waals energy corr.    :           0.00000000 Ha           0.00000000 eV
  | Entropy correction            :          -0.00010367 Ha          -0.00282095 eV
  | ---------------------------
  | Total energy                  :        -306.70180392 Ha       -8345.78071337 eV
  | Total energy, T -> 0          :        -306.70190759 Ha       -8345.78353432 eV  <-- do not rely on this value for anything but (periodic) metals
  | Electronic free energy        :        -306.70201126 Ha       -8345.78635527 eV

  Derived energy quantities:
  | Kinetic energy                :         305.78097586 Ha        8320.72370694 eV
  | Electrostatic energy          :        -574.98197320 Ha      -15646.05555340 eV
  | Energy correction for multipole
  | error in Hartree potential    :          -0.00327826 Ha          -0.08920599 eV
  | Sum of eigenvalues per atom                           :        -351.53461627 eV
  | Total energy (T->0) per atom                          :        -641.98334879 eV  <-- do not rely on this value for anything but (periodic) metals
  | Electronic free energy per atom                       :        -641.98356579 eV

  Self-consistency convergence accuracy:
  | Change of charge density      : 0.9976E-01
  | Change of sum of eigenvalues  : 0.2829E+02 eV
  | Change of total energy        : 0.1403E+00 eV

  End self-consistency iteration #     4       :  max(cpu_time)    wall_clock(cpu1)
  | Time for this iteration                    :        1.293 s           1.293 s
  | Charge density update                      :        0.420 s           0.420 s
  | Density mixing                             :        0.007 s           0.007 s
  | Hartree multipole update                   :        0.004 s           0.005 s
  | Hartree multipole summation                :        0.243 s           0.242 s
  | Integration                                :        0.583 s           0.583 s
  | Solution of K.-S. eqns.                    :        0.035 s           0.036 s
  | Total energy evaluation                    :        0.000 s           0.000 s
------------------------------------------------------------

------------------------------------------------------------
          Begin self-consistency iteration #    5

  Date     :  20150727, Time     :  125954.237
------------------------------------------------------------
  Evaluating new KS density.
  Integration grid: deviation in total charge (<rho> - N_e) =   1.288996E-10
  Pulay mixing of updated and previous charge densities.

  Evaluating partitioned Hartree potential by multipole expansion.
  | Analytical far-field extrapolation by fixed multipoles:
  | Hartree multipole sum: apparent total charge =  -0.448365E-05
  Summing up the Hartree potential.
  Time summed over all CPUs for potential: real work        1.917 s, elapsed        1.932 s
  | RMS charge density error from multipole expansion :   0.155918E-01

  Integrating Hamiltonian matrix: batch-based integration.
  Time summed over all CPUs for integration: real work        4.514 s, elapsed        4.667 s

  Updating Kohn-Sham eigenvalues, eigenvectors, occupation numbers, and Fermi level.
  Solving generalized eigenproblem
  Updating Kohn-Sham eigenvalues and eigenfunctions.
  Solving real generalised eigenvalue problem by standard LAPACK (fast)
  Determining occupation numbers for Kohn-Sham eigenstates.
  | Chemical potential (Fermi level) in eV                 : -.23439117E+01
  | Error in electron count due to remaining E_F inaccuracy: -.10181580E-08
  | Maximum occupation number of highest empty state:  0.00E+00

  Highest occupied state (VBM) at     -6.09063325 eV
  | Occupation number:      2.00000000

  Lowest unoccupied state (CBM) at    -2.34391172 eV
  | Occupation number:      1.00000000

  Overall HOMO-LUMO gap:      3.74672153 eV.

  Total energy components:
  | Sum of eigenvalues            :        -167.96887486 Ha       -4570.66563788 eV
  | XC energy correction          :         -37.49763579 Ha       -1020.36258544 eV
  | XC potential correction       :          47.92911864 Ha        1304.21767615 eV
  | Free-atom electrostatic energy:        -143.10656298 Ha       -3894.12770986 eV
  | Hartree energy correction     :          -6.05764693 Ha        -164.83695979 eV
  | van der Waals energy corr.    :           0.00000000 Ha           0.00000000 eV
  | Entropy correction            :          -0.00010367 Ha          -0.00282095 eV
  | ---------------------------
  | Total energy                  :        -306.70160193 Ha       -8345.77521682 eV
  | Total energy, T -> 0          :        -306.70170560 Ha       -8345.77803776 eV  <-- do not rely on this value for anything but (periodic) metals
  | Electronic free energy        :        -306.70180926 Ha       -8345.78085871 eV

  Derived energy quantities:
  | Kinetic energy                :         305.80502648 Ha        8321.37815770 eV
  | Electrostatic energy          :        -575.00899262 Ha      -15646.79078908 eV
  | Energy correction for multipole
  | error in Hartree potential    :          -0.00324840 Ha          -0.08839337 eV
  | Sum of eigenvalues per atom                           :        -351.58966445 eV
  | Total energy (T->0) per atom                          :        -641.98292598 eV  <-- do not rely on this value for anything but (periodic) metals
  | Electronic free energy per atom                       :        -641.98314298 eV

  Self-consistency convergence accuracy:
  | Change of charge density      : 0.1679E-01
  | Change of sum of eigenvalues  : -.7156E+00 eV
  | Change of total energy        : 0.5497E-02 eV

  End self-consistency iteration #     5       :  max(cpu_time)    wall_clock(cpu1)
  | Time for this iteration                    :        1.296 s           1.295 s
  | Charge density update                      :        0.420 s           0.420 s
  | Density mixing                             :        0.008 s           0.008 s
  | Hartree multipole update                   :        0.005 s           0.005 s
  | Hartree multipole summation                :        0.242 s           0.242 s
  | Integration                                :        0.584 s           0.584 s
  | Solution of K.-S. eqns.                    :        0.035 s           0.036 s
  | Total energy evaluation                    :        0.000 s           0.000 s
------------------------------------------------------------

------------------------------------------------------------
          Begin self-consistency iteration #    6

  Date     :  20150727, Time     :  125955.533
------------------------------------------------------------
  Evaluating new KS density.
  Integration grid: deviation in total charge (<rho> - N_e) =  -1.018130E-09
  Pulay mixing of updated and previous charge densities.

  Evaluating partitioned Hartree potential by multipole expansion.
  | Analytical far-field extrapolation by fixed multipoles:
  | Hartree multipole sum: apparent total charge =  -0.441198E-05
  Summing up the Hartree potential.
  Time summed over all CPUs for potential: real work        1.917 s, elapsed        1.932 s
  | RMS charge density error from multipole expansion :   0.156714E-01

  Integrating Hamiltonian matrix: batch-based integration.
  Time summed over all CPUs for integration: real work        4.516 s, elapsed        4.650 s

  Updating Kohn-Sham eigenvalues, eigenvectors, occupation numbers, and Fermi level.
  Solving generalized eigenproblem
  Updating Kohn-Sham eigenvalues and eigenfunctions.
  Solving real generalised eigenvalue problem by standard LAPACK (fast)
  Determining occupation numbers for Kohn-Sham eigenstates.
  | Chemical potential (Fermi level) in eV                 : -.23462792E+01
  | Error in electron count due to remaining E_F inaccuracy: -.60446439E-08
  | Maximum occupation number of highest empty state:  0.00E+00

  Highest occupied state (VBM) at     -6.13277788 eV
  | Occupation number:      2.00000000

  Lowest unoccupied state (CBM) at    -2.34627922 eV
  | Occupation number:      0.99999999

  Overall HOMO-LUMO gap:      3.78649867 eV.

  Total energy components:
  | Sum of eigenvalues            :        -168.00460578 Ha       -4571.63792561 eV
  | XC energy correction          :         -37.49405617 Ha       -1020.26517901 eV
  | XC potential correction       :          47.92424577 Ha        1304.08507841 eV
  | Free-atom electrostatic energy:        -143.10656298 Ha       -3894.12770986 eV
  | Hartree energy correction     :          -6.02059398 Ha        -163.82869765 eV
  | van der Waals energy corr.    :           0.00000000 Ha           0.00000000 eV
  | Entropy correction            :          -0.00010367 Ha          -0.00282095 eV
  | ---------------------------
  | Total energy                  :        -306.70157315 Ha       -8345.77443371 eV
  | Total energy, T -> 0          :        -306.70167682 Ha       -8345.77725466 eV  <-- do not rely on this value for anything but (periodic) metals
  | Electronic free energy        :        -306.70178048 Ha       -8345.78007560 eV

  Derived energy quantities:
  | Kinetic energy                :         305.79434810 Ha        8321.08758419 eV
  | Electrostatic energy          :        -575.00186508 Ha      -15646.59683890 eV
  | Energy correction for multipole
  | error in Hartree potential    :          -0.00327675 Ha          -0.08916488 eV
  | Sum of eigenvalues per atom                           :        -351.66445582 eV
  | Total energy (T->0) per atom                          :        -641.98286574 eV  <-- do not rely on this value for anything but (periodic) metals
  | Electronic free energy per atom                       :        -641.98308274 eV

  Self-consistency convergence accuracy:
  | Change of charge density      : 0.9644E-02
  | Change of sum of eigenvalues  : -.9723E+00 eV
  | Change of total energy        : 0.7831E-03 eV

  End self-consistency iteration #     6       :  max(cpu_time)    wall_clock(cpu1)
  | Time for this iteration                    :        1.294 s           1.294 s
  | Charge density update                      :        0.420 s           0.420 s
  | Density mixing                             :        0.009 s           0.009 s
  | Hartree multipole update                   :        0.004 s           0.004 s
  | Hartree multipole summation                :        0.243 s           0.242 s
  | Integration                                :        0.582 s           0.582 s
  | Solution of K.-S. eqns.                    :        0.036 s           0.036 s
  | Total energy evaluation                    :        0.000 s           0.000 s
------------------------------------------------------------

------------------------------------------------------------
          Begin self-consistency iteration #    7

  Date     :  20150727, Time     :  125956.827
------------------------------------------------------------
  Evaluating new KS density.
  Integration grid: deviation in total charge (<rho> - N_e) =  -6.044651E-09
  Pulay mixing of updated and previous charge densities.

  Evaluating partitioned Hartree potential by multipole expansion.
  | Analytical far-field extrapolation by fixed multipoles:
  | Hartree multipole sum: apparent total charge =  -0.435278E-05
  Summing up the Hartree potential.
  Time summed over all CPUs for potential: real work        1.917 s, elapsed        1.933 s
  | RMS charge density error from multipole expansion :   0.157389E-01

  Integrating Hamiltonian matrix: batch-based integration.
  Time summed over all CPUs for integration: real work        4.516 s, elapsed        4.647 s

  Updating Kohn-Sham eigenvalues, eigenvectors, occupation numbers, and Fermi level.
  Solving generalized eigenproblem
  Updating Kohn-Sham eigenvalues and eigenfunctions.
  Solving real generalised eigenvalue problem by standard LAPACK (fast)
  Determining occupation numbers for Kohn-Sham eigenstates.
  | Chemical potential (Fermi level) in eV                 : -.23536476E+01
  | Error in electron count due to remaining E_F inaccuracy: 0.00000000E+00
  | Maximum occupation number of highest empty state:  0.00E+00

  Highest occupied state (VBM) at     -2.35364760 eV
  | Occupation number:      1.00000000

  Lowest unoccupied state (CBM) at    -2.35364760 eV
  | Occupation number:      1.00000000

  Overall HOMO-LUMO gap:      0.00000000 eV.

  Total energy components:
  | Sum of eigenvalues            :        -168.03726101 Ha       -4572.52651980 eV
  | XC energy correction          :         -37.49117538 Ha       -1020.18678854 eV
  | XC potential correction       :          47.92022449 Ha        1303.97565392 eV
  | Free-atom electrostatic energy:        -143.10656298 Ha       -3894.12770986 eV
  | Hartree energy correction     :          -5.98677867 Ha        -162.90853640 eV
  | van der Waals energy corr.    :           0.00000000 Ha           0.00000000 eV
  | Entropy correction            :          -0.00010367 Ha          -0.00282095 eV
  | ---------------------------
  | Total energy                  :        -306.70155356 Ha       -8345.77390067 eV
  | Total energy, T -> 0          :        -306.70165723 Ha       -8345.77672162 eV  <-- do not rely on this value for anything but (periodic) metals
  | Electronic free energy        :        -306.70176090 Ha       -8345.77954256 eV

  Derived energy quantities:
  | Kinetic energy                :         305.82190152 Ha        8321.83735083 eV
  | Electrostatic energy          :        -575.03227970 Ha      -15647.42446296 eV
  | Energy correction for multipole
  | error in Hartree potential    :          -0.00328570 Ha          -0.08940840 eV
  | Sum of eigenvalues per atom                           :        -351.73280922 eV
  | Total energy (T->0) per atom                          :        -641.98282474 eV  <-- do not rely on this value for anything but (periodic) metals
  | Electronic free energy per atom                       :        -641.98304174 eV

  Self-consistency convergence accuracy:
  | Change of charge density      : 0.6747E-02
  | Change of sum of eigenvalues  : -.8886E+00 eV
  | Change of total energy        : 0.5330E-03 eV

  End self-consistency iteration #     7       :  max(cpu_time)    wall_clock(cpu1)
  | Time for this iteration                    :        1.296 s           1.296 s
  | Charge density update                      :        0.421 s           0.421 s
  | Density mixing                             :        0.010 s           0.010 s
  | Hartree multipole update                   :        0.004 s           0.005 s
  | Hartree multipole summation                :        0.242 s           0.242 s
  | Integration                                :        0.582 s           0.582 s
  | Solution of K.-S. eqns.                    :        0.036 s           0.035 s
  | Total energy evaluation                    :        0.000 s           0.000 s
------------------------------------------------------------

------------------------------------------------------------
          Begin self-consistency iteration #    8

  Date     :  20150727, Time     :  125958.123
------------------------------------------------------------
  Evaluating new KS density.
  Integration grid: deviation in total charge (<rho> - N_e) =   1.421085E-14
  Pulay mixing of updated and previous charge densities.

  Evaluating partitioned Hartree potential by multipole expansion.
  | Analytical far-field extrapolation by fixed multipoles:
  | Hartree multipole sum: apparent total charge =  -0.429871E-05
  Summing up the Hartree potential.
  Time summed over all CPUs for potential: real work        1.917 s, elapsed        1.932 s
  | RMS charge density error from multipole expansion :   0.157909E-01

  Integrating Hamiltonian matrix: batch-based integration.
  Time summed over all CPUs for integration: real work        4.505 s, elapsed        4.644 s

  Updating Kohn-Sham eigenvalues, eigenvectors, occupation numbers, and Fermi level.
  Solving generalized eigenproblem
  Updating Kohn-Sham eigenvalues and eigenfunctions.
  Solving real generalised eigenvalue problem by standard LAPACK (fast)
  Determining occupation numbers for Kohn-Sham eigenstates.
  | Chemical potential (Fermi level) in eV                 : -.23581567E+01
  | Error in electron count due to remaining E_F inaccuracy: -.10153443E-08
  | Maximum occupation number of highest empty state:  0.00E+00

  Highest occupied state (VBM) at     -6.20306851 eV
  | Occupation number:      2.00000000

  Lowest unoccupied state (CBM) at    -2.35815674 eV
  | Occupation number:      1.00000000

  Overall HOMO-LUMO gap:      3.84491177 eV.

  Total energy components:
  | Sum of eigenvalues            :        -168.06855949 Ha       -4573.37819457 eV
  | XC energy correction          :         -37.48815681 Ha       -1020.10464920 eV
  | XC potential correction       :          47.91609715 Ha        1303.86334339 eV
  | Free-atom electrostatic energy:        -143.10656298 Ha       -3894.12770986 eV
  | Hartree energy correction     :          -5.95436579 Ha        -162.02653686 eV
  | van der Waals energy corr.    :           0.00000000 Ha           0.00000000 eV
  | Entropy correction            :          -0.00010367 Ha          -0.00282095 eV
  | ---------------------------
  | Total energy                  :        -306.70154792 Ha       -8345.77374709 eV
  | Total energy, T -> 0          :        -306.70165158 Ha       -8345.77656804 eV  <-- do not rely on this value for anything but (periodic) metals
  | Electronic free energy        :        -306.70175525 Ha       -8345.77938899 eV

  Derived energy quantities:
  | Kinetic energy                :         305.83435338 Ha        8322.17618307 eV
  | Electrostatic energy          :        -575.04774448 Ha      -15647.84528096 eV
  | Energy correction for multipole
  | error in Hartree potential    :          -0.00330223 Ha          -0.08985811 eV
  | Sum of eigenvalues per atom                           :        -351.79832266 eV
  | Total energy (T->0) per atom                          :        -641.98281293 eV  <-- do not rely on this value for anything but (periodic) metals
  | Electronic free energy per atom                       :        -641.98302992 eV

  Self-consistency convergence accuracy:
  | Change of charge density      : 0.3466E-02
  | Change of sum of eigenvalues  : -.8517E+00 eV
  | Change of total energy        : 0.1536E-03 eV

  End self-consistency iteration #     8       :  max(cpu_time)    wall_clock(cpu1)
  | Time for this iteration                    :        1.296 s           1.296 s
  | Charge density update                      :        0.420 s           0.420 s
  | Density mixing                             :        0.011 s           0.012 s
  | Hartree multipole update                   :        0.005 s           0.004 s
  | Hartree multipole summation                :        0.242 s           0.242 s
  | Integration                                :        0.582 s           0.582 s
  | Solution of K.-S. eqns.                    :        0.035 s           0.036 s
  | Total energy evaluation                    :        0.001 s           0.000 s
------------------------------------------------------------

------------------------------------------------------------
          Begin self-consistency iteration #    9

  Date     :  20150727, Time     :  125959.419
------------------------------------------------------------
  Evaluating new KS density.
  Integration grid: deviation in total charge (<rho> - N_e) =  -1.015330E-09
  Pulay mixing of updated and previous charge densities.

  Evaluating partitioned Hartree potential by multipole expansion.
  | Analytical far-field extrapolation by fixed multipoles:
  | Hartree multipole sum: apparent total charge =  -0.429337E-05
  Summing up the Hartree potential.
  Time summed over all CPUs for potential: real work        1.917 s, elapsed        1.932 s
  | RMS charge density error from multipole expansion :   0.157816E-01

  Integrating Hamiltonian matrix: batch-based integration.
  Time summed over all CPUs for integration: real work        4.519 s, elapsed        4.650 s

  Updating Kohn-Sham eigenvalues, eigenvectors, occupation numbers, and Fermi level.
  Solving generalized eigenproblem
  Updating Kohn-Sham eigenvalues and eigenfunctions.
  Solving real generalised eigenvalue problem by standard LAPACK (fast)
  Determining occupation numbers for Kohn-Sham eigenstates.
  | Chemical potential (Fermi level) in eV                 : -.23595424E+01
  | Error in electron count due to remaining E_F inaccuracy: -.19752520E-08
  | Maximum occupation number of highest empty state:  0.00E+00

  Highest occupied state (VBM) at     -6.20152646 eV
  | Occupation number:      2.00000000

  Lowest unoccupied state (CBM) at    -2.35954241 eV
  | Occupation number:      1.00000000

  Overall HOMO-LUMO gap:      3.84198405 eV.

  Total energy components:
  | Sum of eigenvalues            :        -168.06658966 Ha       -4573.32459273 eV
  | XC energy correction          :         -37.48834550 Ha       -1020.10978365 eV
  | XC potential correction       :          47.91635011 Ha        1303.87022657 eV
  | Free-atom electrostatic energy:        -143.10656298 Ha       -3894.12770986 eV
  | Hartree energy correction     :          -5.95639897 Ha        -162.08186255 eV
  | van der Waals energy corr.    :           0.00000000 Ha           0.00000000 eV
  | Entropy correction            :          -0.00010367 Ha          -0.00282095 eV
  | ---------------------------
  | Total energy                  :        -306.70154700 Ha       -8345.77372221 eV
  | Total energy, T -> 0          :        -306.70165067 Ha       -8345.77654316 eV  <-- do not rely on this value for anything but (periodic) metals
  | Electronic free energy        :        -306.70175434 Ha       -8345.77936411 eV

  Derived energy quantities:
  | Kinetic energy                :         305.84025721 Ha        8322.33683442 eV
  | Electrostatic energy          :        -575.05345871 Ha      -15648.00077298 eV
  | Energy correction for multipole
  | error in Hartree potential    :          -0.00330065 Ha          -0.08981524 eV
  | Sum of eigenvalues per atom                           :        -351.79419944 eV
  | Total energy (T->0) per atom                          :        -641.98281101 eV  <-- do not rely on this value for anything but (periodic) metals
  | Electronic free energy per atom                       :        -641.98302801 eV

  Self-consistency convergence accuracy:
  | Change of charge density      : 0.8478E-03
  | Change of sum of eigenvalues  : 0.5360E-01 eV
  | Change of total energy        : 0.2488E-04 eV

  End self-consistency iteration #     9       :  max(cpu_time)    wall_clock(cpu1)
  | Time for this iteration                    :        1.299 s           1.300 s
  | Charge density update                      :        0.421 s           0.422 s
  | Density mixing                             :        0.013 s           0.012 s
  | Hartree multipole update                   :        0.005 s           0.005 s
  | Hartree multipole summation                :        0.242 s           0.242 s
  | Integration                                :        0.582 s           0.583 s
  | Solution of K.-S. eqns.                    :        0.036 s           0.035 s
  | Total energy evaluation                    :        0.000 s           0.000 s
------------------------------------------------------------

------------------------------------------------------------
          Begin self-consistency iteration #   10

  Date     :  20150727, Time     :  130000.719
------------------------------------------------------------
  Evaluating new KS density.
  Integration grid: deviation in total charge (<rho> - N_e) =  -1.975266E-09
[...]
  | Electronic free energy        :        -306.70339791 Ha       -8345.82408787 eV

  Derived energy quantities:
  | Kinetic energy                :         305.84053815 Ha        8322.34447935 eV
  | Electrostatic energy          :        -575.05426163 Ha      -15648.02262144 eV
  | Energy correction for multipole
  | error in Hartree potential    :          -0.00331111 Ha          -0.09009999 eV
  | Sum of eigenvalues per atom                           :        -351.80327279 eV
  | Total energy (T->0) per atom                          :        -641.98625130 eV  <-- do not rely on this value for anything but (periodic) metals
  | Electronic free energy per atom                       :        -641.98646830 eV

  atomic forces [eV/Ang]:
  -----------------------
  atom #    1
   Hellmann-Feynman + Multipole  : -.360418E+01 -.739080E+01 -.738518E+01
   Pulay + GGA                   : 0.175636E+01 0.831611E+01 0.697159E+01
   Van der Waals               : -.704243E-02 0.286231E-02 0.433852E-03
   ----------------------------------------------------------------
   Total forces(   1)            : -.185486E+01 0.928175E+00 -.413156E+00
  atom #    2
   Hellmann-Feynman + Multipole  : 0.692683E+00 -.126818E+01 0.574874E+00
   Pulay + GGA                   : -.695174E-01 0.996980E-01 -.780069E-01
   Van der Waals               : -.368765E-02 0.120421E-02 0.472613E-03
   ----------------------------------------------------------------
   Total forces(   2)            : 0.619478E+00 -.116728E+01 0.497340E+00
  atom #    3
   Hellmann-Feynman + Multipole  : 0.968152E+00 0.137923E+00 -.210516E-01
   Pulay + GGA                   : 0.813548E-01 0.375697E-02 0.255091E-01
   Van der Waals               : -.106424E-02 0.396173E-02 0.987815E-03
   ----------------------------------------------------------------
   Total forces(   3)            : 0.104844E+01 0.145642E+00 0.544527E-02
  atom #    4
   Hellmann-Feynman + Multipole  : 0.634022E-01 0.577616E-01 -.259682E+00
   Pulay + GGA                   : -.259564E-01 -.475776E-01 0.144770E+00
   Van der Waals               : -.415219E-02 0.227048E-02 0.146540E-02
   ----------------------------------------------------------------
   Total forces(   4)            : 0.332936E-01 0.124545E-01 -.113446E+00
  atom #    5
   Hellmann-Feynman + Multipole  : -.469607E+01 0.209303E+01 -.975207E+01
   Pulay + GGA                   : 0.610496E+01 -.216611E+01 0.106881E+02
   Van der Waals               : 0.333369E-02 0.495891E-02 0.492824E-03
   ----------------------------------------------------------------
   Total forces(   5)            : 0.141222E+01 -.681266E-01 0.936567E+00
  atom #    6
   Hellmann-Feynman + Multipole  : -.135681E+00 -.466516E+00 -.748001E+00
   Pulay + GGA                   : 0.139410E-01 0.926566E-01 0.113635E+00
   Van der Waals               : 0.606415E-02 0.422230E-02 0.171081E-02
   ----------------------------------------------------------------
   Total forces(   6)            : -.115675E+00 -.369637E+00 -.632655E+00
  atom #    7
   Hellmann-Feynman + Multipole  : -.124895E+01 0.638822E+00 -.281043E+00
   Pulay + GGA                   : 0.118213E+00 -.725057E-01 0.175189E-01
   Van der Waals               : 0.604223E-03 0.144969E-02 0.351456E-03
   ----------------------------------------------------------------
   Total forces(   7)            : -.113014E+01 0.567766E+00 -.263173E+00
  atom #    8
   Hellmann-Feynman + Multipole  : -.125670E+02 -.540098E+01 -.136676E+01
   Pulay + GGA                   : 0.135572E+02 0.681530E+01 0.700656E+00
   Van der Waals               : 0.358557E-02 -.698567E-02 -.909455E-03
   ----------------------------------------------------------------
   Total forces(   8)            : 0.993829E+00 0.140733E+01 -.667013E+00
  atom #    9
   Hellmann-Feynman + Multipole  : -.388865E+00 -.356236E-01 -.715384E-01
   Pulay + GGA                   : 0.135148E+00 -.668526E-01 0.290486E-01
   Van der Waals               : 0.168246E-02 -.454696E-02 -.326114E-02
   ----------------------------------------------------------------
   Total forces(   9)            : -.252034E+00 -.107023E+00 -.457509E-01
  atom #   10
   Hellmann-Feynman + Multipole  : -.700585E+00 -.135626E+01 0.650085E+00
   Pulay + GGA                   : 0.505288E-01 0.103718E+00 -.729906E-01
   Van der Waals               : -.381644E-03 -.312994E-02 0.121912E-02
   ----------------------------------------------------------------
   Total forces(  10)            : -.650437E+00 -.125567E+01 0.578314E+00
  atom #   11
   Hellmann-Feynman + Multipole  : 0.125529E+01 -.154170E+02 0.165336E+01
   Pulay + GGA                   : -.277197E+00 0.155457E+02 -.297400E+01
   Van der Waals               : -.173777E-02 -.268753E-02 0.563125E-03
   ----------------------------------------------------------------
   Total forces(  11)            : 0.976351E+00 0.125937E+00 -.132008E+01
  atom #   12
   Hellmann-Feynman + Multipole  : -.258555E+00 0.453033E+00 0.246015E+00
   Pulay + GGA                   : -.718965E-01 0.944718E-01 0.837937E-01
   Van der Waals               : 0.284803E-02 -.535398E-03 -.339681E-02
   ----------------------------------------------------------------
   Total forces(  12)            : -.327604E+00 0.546969E+00 0.326412E+00
  atom #   13
   Hellmann-Feynman + Multipole  : -.784591E+00 -.822429E+00 0.116762E+01
   Pulay + GGA                   : 0.353552E-01 0.660150E-01 -.657289E-01
   Van der Waals               : -.522077E-04 -.304412E-02 -.129623E-03
   ----------------------------------------------------------------
   Total forces(  13)            : -.749288E+00 -.759458E+00 0.110176E+01
  Timings for vdw_correction_hirshfeld (Tkatchenko-Scheffler 2009):
  | CPU time:        3.540 s, Wall clock time:        3.541 s.
  Removing unitary transformations (pure translations, rotations) from forces on atoms.
  Atomic forces before filtering:
  | Net force on center of mass :  0.357714E-02 0.707489E-02 -.943327E-02 eV/A
  | Net torque on center of mass:  -.164326E-02 0.159311E-01 -.205858E-01 eV
  Atomic forces after filtering:
  | Net force on center of mass :  0.267609E-15 -.178406E-15 0.356812E-15 eV/A
  | Net torque on center of mass:  0.755268E-15 -.151054E-14 0.207699E-14 eV
 
  Energy and forces in a compact form:
  | Total energy uncorrected      :         -0.834581844597271E+04 eV
  | Total energy corrected        :         -0.834582126692063E+04 eV  <-- do not rely on this value for anything but (periodic) metals
  | Electronic free energy        :         -0.834582408786854E+04 eV
  Total atomic forces (unitary forces cleaned) [eV/Ang]:
  |   1         -0.185444667992706E+01          0.927625858462375E+00         -0.412691848088252E+00
  |   2          0.619835098274238E+00         -0.116789615571892E+01          0.497713996390144E+00
  |   3          0.104879075208628E+01          0.145275185215791E+00          0.622172124576965E-02
  |   4          0.334439341204490E-01          0.117791891368388E-01         -0.113084966222045E+00
  |   5          0.141247307706029E+01         -0.682227459442659E-01          0.937805059401515E+00
  |   6         -0.115773567109316E+00         -0.369773343996609E+00         -0.631350089022009E+00
  |   7         -0.112980884534986E+01          0.567816400741725E+00         -0.261730392512602E+00
  |   8          0.993263843307026E+00          0.140673377856258E+01         -0.666260281050378E+00
  |   9         -0.252625931602311E+00         -0.107482323423110E+00         -0.447738992454199E-01
  |  10         -0.651038382274318E+00         -0.125617780023779E+01          0.579223980486548E+00
  |  11          0.975203868789079E+00          0.124887285057536E+00         -0.131982812554708E+01
  |  12         -0.329022724823219E+00          0.545799755123915E+00          0.326571429700373E+00
  |  13         -0.750294442551277E+00         -0.760365082980072E+00          0.110218341446344E+01
 
  ------------------------------------ 
  Start decomposition of the XC Energy 
  ------------------------------------ 
  Hartree-Fock part   :          0.000000000 Ha              0.000000000 eV
  ------------------------------------ 
  X Energy            :        -36.164178511 Ha           -984.077366598 eV
  C Energy GGA        :         -1.323645084 Ha            -36.018215331 eV
  Total XC Energy     :        -37.487823596 Ha          -1020.095581930 eV
  LDA X and C from self-consistent density 
  X Energy LDA        :        -32.580631362 Ha           -886.564087256 eV
  C Energy LDA        :         -2.674756945 Ha            -72.783839688 eV
  ------------------------------------ 
  End decomposition of the XC Energy 
  ------------------------------------ 
  Performing Hirshfeld analysis of fragment charges and moments.
  ----------------------------------------------------------------------
  | Atom     1: O
  |   Hirshfeld charge        :     -0.11913943
  |   Free atom volume        :     23.95238533
  |   Hirshfeld volume        :     22.63269042
  |   Hirshfeld dipole vector :      0.01488713       0.02457844       0.01683622
  |   Hirshfeld dipole moment :      0.03330442
  |   Hirshfeld second moments:      0.05987121      -0.00692952      -0.01290792
  |                                 -0.00692952       0.02071603      -0.02713689
  |                                 -0.01290792      -0.02713689       0.05020758
  ----------------------------------------------------------------------
  | Atom     2: H
  |   Hirshfeld charge        :      0.08807364
  |   Free atom volume        :     10.44207651
  |   Hirshfeld volume        :     12.07004961
  |   Hirshfeld dipole vector :      0.00707529       0.00913630       0.00327859
  |   Hirshfeld dipole moment :      0.01201170
  |   Hirshfeld second moments:     -0.00358521       0.01255742      -0.00645791
  |                                  0.01255742      -0.01113470       0.01362509
  |                                 -0.00645791       0.01362509       0.00166191
  ----------------------------------------------------------------------
  | Atom     3: H
  |   Hirshfeld charge        :      0.09191822
  |   Free atom volume        :     10.44207651
  |   Hirshfeld volume        :     10.45654564
  |   Hirshfeld dipole vector :      0.01563518       0.00705314      -0.00145298
  |   Hirshfeld dipole moment :      0.01721385
  |   Hirshfeld second moments:      0.01451420      -0.01216069      -0.00509921
  |                                 -0.01216069       0.03438158       0.00572360
  |                                 -0.00509921       0.00572360       0.03204023
  ----------------------------------------------------------------------
  | Atom     4: H
  |   Hirshfeld charge        :      0.10847206
  |   Free atom volume        :     10.44207651
  |   Hirshfeld volume        :     12.27431979
  |   Hirshfeld dipole vector :     -0.01301975      -0.00090413       0.02694846
  |   Hirshfeld dipole moment :      0.02994246
  |   Hirshfeld second moments:      0.01189250       0.00269879      -0.00436758
  |                                  0.00269879       0.01140835      -0.00407357
  |                                 -0.00436758      -0.00407357      -0.01928759
  ----------------------------------------------------------------------
  | Atom     5: O
  |   Hirshfeld charge        :     -0.22646685
  |   Free atom volume        :     23.95238533
  |   Hirshfeld volume        :     23.06333721
  |   Hirshfeld dipole vector :     -0.00674447      -0.02527101       0.02799923
  |   Hirshfeld dipole moment :      0.03831539
  |   Hirshfeld second moments:      0.04239839      -0.01796868       0.00717878
  |                                 -0.01796868       0.01798726       0.04577465
  |                                  0.00717878       0.04577465      -0.02045916
  ----------------------------------------------------------------------
  | Atom     6: H
  |   Hirshfeld charge        :      0.08583928
  |   Free atom volume        :     10.44207651
  |   Hirshfeld volume        :     11.29910265
  |   Hirshfeld dipole vector :     -0.00102057       0.03736542       0.03297424
  |   Hirshfeld dipole moment :      0.04984493
  |   Hirshfeld second moments:      0.03852084      -0.01827613       0.00524797
  |                                 -0.01827613       0.02831908       0.01179095
  |                                  0.00524797       0.01179095      -0.02155958
  ----------------------------------------------------------------------
  | Atom     7: H
  |   Hirshfeld charge        :      0.11067167
  |   Free atom volume        :     10.44207651
  |   Hirshfeld volume        :     11.07934450
  |   Hirshfeld dipole vector :      0.05657180      -0.04220538      -0.00234587
  |   Hirshfeld dipole moment :      0.07061987
  |   Hirshfeld second moments:      0.03340935      -0.00266710      -0.00054224
  |                                 -0.00266710       0.02867412       0.02411804
  |                                 -0.00054224       0.02411804       0.01964000
  ----------------------------------------------------------------------
  | Atom     8: O
  |   Hirshfeld charge        :     -0.24776987
  |   Free atom volume        :     23.95238533
  |   Hirshfeld volume        :     22.25570697
  |   Hirshfeld dipole vector :      0.01534824       0.03073295       0.03573339
  |   Hirshfeld dipole moment :      0.04956771
  |   Hirshfeld second moments:      0.03182745      -0.01718094      -0.00687398
  |                                 -0.01718094       0.03298505      -0.05127340
  |                                 -0.00687398      -0.05127340       0.00007811
  ----------------------------------------------------------------------
  | Atom     9: H
  |   Hirshfeld charge        :      0.10400298
  |   Free atom volume        :     10.44207651
  |   Hirshfeld volume        :      9.29273491
  |   Hirshfeld dipole vector :      0.06267140      -0.01766484       0.03691894
  |   Hirshfeld dipole moment :      0.07485158
  |   Hirshfeld second moments:      0.04794559       0.00414426      -0.00971152
  |                                  0.00414426       0.06858217      -0.00664715
  |                                 -0.00971152      -0.00664715       0.04435787
  ----------------------------------------------------------------------
  | Atom    10: H
  |   Hirshfeld charge        :      0.13817488
  |   Free atom volume        :     10.44207651
  |   Hirshfeld volume        :      7.78794091
  |   Hirshfeld dipole vector :      0.02438442       0.09951553      -0.03992015
  |   Hirshfeld dipole moment :      0.10996163
  |   Hirshfeld second moments:      0.09686973      -0.01063116       0.00244007
  |                                 -0.01063116       0.08499333      -0.01730092
  |                                  0.00244007      -0.01730092       0.08384312
  ----------------------------------------------------------------------
  | Atom    11: O
  |   Hirshfeld charge        :     -0.33773378
  |   Free atom volume        :     23.95238533
  |   Hirshfeld volume        :     23.72386590
  |   Hirshfeld dipole vector :     -0.00811973       0.07590913      -0.01095886
  |   Hirshfeld dipole moment :      0.07712472
  |   Hirshfeld second moments:     -0.03775877      -0.01499359      -0.06215517
  |                                 -0.01499359      -0.04113613       0.00686302
  |                                 -0.06215517       0.00686302      -0.00224784
  ----------------------------------------------------------------------
  | Atom    12: H
  |   Hirshfeld charge        :      0.12153369
  |   Free atom volume        :     10.44207651
  |   Hirshfeld volume        :      7.18665466
  |   Hirshfeld dipole vector :     -0.06333205       0.08995468       0.06365608
  |   Hirshfeld dipole moment :      0.12710189
  |   Hirshfeld second moments:      0.09025683       0.00210782      -0.01829652
  |                                  0.00210782       0.09010416      -0.00772185
  |                                 -0.01829652      -0.00772185       0.10581882
  ----------------------------------------------------------------------
  | Atom    13: H
  |   Hirshfeld charge        :      0.08238895
  |   Free atom volume        :     10.44207651
  |   Hirshfeld volume        :      8.98482631
  |   Hirshfeld dipole vector :      0.01765811       0.05152575      -0.03789068
  |   Hirshfeld dipole moment :      0.06635070
  |   Hirshfeld second moments:      0.04984067      -0.01905936       0.00623743
  |                                 -0.01905936       0.06422527       0.01149654
  |                                  0.00623743       0.01149654       0.03244514
  ----------------------------------------------------------------------


------------------------------------------------------------------------------
  Final output of selected total energy values:

  The following output summarizes some interesting total energy values
  at the end of a run (AFTER all relaxation, molecular dynamics, etc.).

  | Total energy of the DFT / Hartree-Fock s.c.f. calculation      :          -8345.818445973 eV
  | Final zero-broadening corrected energy (caution - metals only) :          -8345.821266921 eV
  | For reference only, the value of 1 Hartree used in FHI-aims is :             27.211384500 eV

  Before relying on these values, please be sure to understand exactly which
  total energy value is referred to by a given number. Different objects may
  all carry the same name 'total energy'. Definitions:

  Total energy of the DFT / Hartree-Fock s.c.f. calculation:
  | Note that this energy does not include ANY quantities calculated after the
  | s.c.f. cycle, in particular not ANY RPA, MP2, etc. many-body perturbation terms.

  Final zero-broadening corrected energy:
  | For metallic systems only, a broadening of the occupation numbers at the Fermi
  | level can be extrapolated back to zero broadening by an electron-gas inspired
  | formula. For all systems that are not real metals, this value can be
  | meaningless and should be avoided.

------------------------------------------------------------------------------

------------------------------------------------------------
          Leaving FHI-aims.
          Date     :  20150727, Time     :  130012.601

          Computational steps:
          | Number of self-consistency cycles          :           16

          Detailed time accounting                     :  max(cpu_time)    wall_clock(cpu1)
          | Total time                                 :       25.467 s          25.516 s
          | Preparation time                           :        0.171 s           0.624 s
          | Grid partitioning                          :        0.139 s           0.138 s
          | Preloading free-atom quantities on grid    :        0.014 s           0.013 s
          | Free-atom superposition energy             :        0.052 s           0.052 s
          | Total time for integrations                :       10.234 s          10.238 s
          | Total time for solution of K.-S. equations :        0.703 s           0.706 s
          | Total time for density & force components  :        8.588 s           8.588 s
          | Total time for mixing                      :        0.174 s           0.173 s
          | Total time for Hartree multipole update    :        0.069 s           0.073 s
          | Total time for Hartree multipole sum       :        4.679 s           4.675 s
          | Total time for total energy evaluation     :        0.004 s           0.004 s
          | Total time for scaled ZORA corrections     :        0.000 s           0.000 s
          | Total time for TS (2009) vdW correction    :        0.040 s           0.039 s

          Have a nice day.
------------------------------------------------------------
