  MPI-parallelism will be employed.
------------------------------------------------------------
          Invoking FHI-aims ...
          Version 081213
          Compiled on 2013/08/29 at 17:41:06 on host generoso.

          When using FHI-aims, please cite the following reference:

          Volker Blum, Ralf Gehrke, Felix Hanke, Paula Havu,
          Ville Havu, Xinguo Ren, Karsten Reuter, and Matthias Scheffler,
          'Ab Initio Molecular Simulations with Numeric Atom-Centered Orbitals: FHI-aims',
          Computer Physics Communications 180, 2175-2196 (2009)

          For any questions about FHI-aims, please visit the aimsclub website
          with its forums and wiki. Contributions to both the forums and the
          wiki are warmly encouraged - they are for you, and everyone is welcome there.

------------------------------------------------------------

  Date     :  20150727, Time     :  130204.988
  Time zero on CPU 1             :   0.399930000000000E-01  s.
  Internal wall clock time zero  :           207234124.988  s.

  Using        8 parallel tasks.
  Task        0 on host gen59 reporting.
  Task        1 on host gen59 reporting.
  Task        2 on host gen59 reporting.
  Task        3 on host gen59 reporting.
  Task        4 on host gen59 reporting.
  Task        5 on host gen59 reporting.
  Task        6 on host gen59 reporting.
  Task        7 on host gen59 reporting.

  Performing system and environment tests:
  | Environment variable OMP_NUM_THREADS correctly set to 1.
  | Checking for scalapack...
  | No scalapack compiled in.

  Obtaining array dimensions for all initial allocations:
  
  -----------------------------------------------------------------------
  Parsing control.in (first pass over file, find array dimensions only).
  The contents of control.in will be repeated verbatim below
  unless switched off by setting 'verbatim_writeout .false.' .
  in the first line of control.in .
  -----------------------------------------------------------------------
  
  #########################################################################################
  #
  #  Volker Blum, FHI 2008 : Test run input file control.in
  #
  #########################################################################################
  #
  #  Physical model
  #
    xc                 rpbe
    spin               none
    relativistic       atomic_zora scalar
    charge             0.
   vdw_correction_hirshfeld
  #
  #  SCF convergence
  #
    occupation_type    gaussian 0.01
    mixer              pulay
      n_max_pulay        10
      charge_mix_param   0.1
    sc_accuracy_rho    5E-5
    sc_accuracy_eev    5E-3
    sc_accuracy_etot   5E-6
    sc_iter_limit      3000
  #
  #  Eigenvalue solver
  #
    KS_method          lapack
      empty_states       8
      basis_threshold    0.e-5
  #
  #  Efficiency
  #
  #   all previous settings are now default, except stratmann still
  #   undecided. Continue to handle stratmann with care, if at all.
  #
  #  partition_type stratmann
    partition_type rho_r2
  #  hartree_partition_type stratmann
  #
  #  Oprions for large clusters (100's of atoms: memory saving / better scaling)
  #
  # for periodic systems:
  #
    density_update_method orbital
    packed_matrix_format none
  #  k_grid 6 6 6
  #  output k_eigenvalue 1
  #  distributed_spline_storage .true.
  #
  #  Relaxation
  #
  #  relax_geometry   bfgs 5.e-3
    sc_accuracy_forces 5.E-4
    final_forces_cleaned .true.
  #
  #  Output options
  #
  #  output mulliken
    output Hirshfeld
  #  output dipole
  
  #harmonic_length_scale 0.001
  
  ################################################################################
  #
  #  FHI-aims code project
  #  VB, Fritz-Haber Institut, 2007
  #
  #  Suggested "safe" defaults for H atom (to be pasted into control.in file)
  #  Basis constructed for a non-relativistic H2 molecule using the
  #  PW-LDA functional.
  #
  ################################################################################
    species        H
  #     global species definitions
      nucleus             1
      cut_pot             4.0  2.0  1.0
      cut_free_atom       finite 8.0
      logarithmic         0.00010000 100.00  1.0123
      basis_dep_cutoff    1d-4  # 1d-4 is safe default - please check 5d-4 if you wish!
      radial_base         24 7.0
      radial_multiplier   2
      angular_grids       specified
        division   0.2783  110
        division   0.3822  194
        division   0.5626  302
  #      division   0.5922  434
  #      division   0.6227  590
  #      division   0.7206  770
        outer_grid  302
      l_hartree           4
  ################################################################################
  #
  #  Definition of "minimal" basis
  #
  ################################################################################
  #     valence basis states
      valence      1  s   1.
  #     ion occupancy
      ion_occ      1  s   0.5
  ################################################################################
  #
  #  Suggested additional basis functions. For production calculations,
  #  uncomment them one after another (the most important basis functions are
  #  listed first).
  #
  ################################################################################
  #  "First tier" - improvements: -1014.90 meV to -62.69 meV
       hydro 2 s 2.1
       hydro 2 p 3.5
  #  "Second tier" - improvements: -12.89 meV to -1.83 meV
       hydro 1 s 0.85
       hydro 2 p 3.7
       hydro 2 s 1.2
       hydro 3 d 7
  #  "Third tier" - improvements: -0.25 meV to -0.12 meV
  #     hydro 4 f 11.2
  #     hydro 3 p 4.8
  #     hydro 4 d 9
  #     hydro 3 s 3.2
  
  ################################################################################
  #
  #  FHI-aims code project
  #  VB, Fritz-Haber Institut, 2007
  #
  #  Suggested "safe" defaults for O atom (to be pasted into control.in file)
  #  All values have been tested for a non-relativistic, non-spinpolarized O2
  #  molecule using the PW-LDA functional. Validity for PBE is expected.
  #
  #  Constructed for dimers: 1.0 A, 1.208 A, 1.5 A, 2.0 A, 3.0 A
  #
  ################################################################################
    species        O
  #     global species definitions
      nucleus             8
      mass                15.9994
      l_hartree           4
      cut_pot             4.0  2.0  1.0
      cut_free_atom       finite 8.0
      basis_dep_cutoff    1d-4  # 1d-4 is safe default - please check 5d-4 if you wish!
      logarithmic         0.00010000 100.00  1.0123
      radial_base         36 7.0
      radial_multiplier   2
       angular_grids specified
        division   0.4087  110
        division   0.5181  194
        division   0.6184  302
  #      division   0.7315  434
  #      division   0.7934  590
  #      division   0.9656  770
  #      division   1.4041  974
  #      outer_grid 974
        outer_grid 302
  ################################################################################
  #
  #  Definition of "minimal" basis
  #
  ################################################################################
  #     valence basis states
      valence      2  s   2.
      valence      2  p   4.
  #     ion occupancy
      ion_occ      2  s   1.
      ion_occ      2  p   3.
  ################################################################################
  #
  #  Suggested additional basis functions. For production calculations,
  #  uncomment them one after another (the most important basis functions are
  #  listed first).
  #
  ################################################################################
  #  "First tier" - improvements: -699.05 meV to -159.38 meV
       hydro 2 p 1.8
       hydro 3 d 7.6
       hydro 3 s 6.4
  #  "Second tier" - improvements: -49.91 meV to -5.39 meV
       hydro 4 f 11.6
       hydro 3 p 6.2
       hydro 3 d 5.6
       hydro 5 g 17.6
       hydro 1 s 0.75
  #  "Third tier" - improvements: -2.83 meV to -0.50 meV
  #     ionic 2 p auto
  #     hydro 4 f 10.8
  #     hydro 4 d 4.7
  #     hydro 2 s 6.8
  #  "Fourth tier" - improvements: -0.40 meV to -0.12 meV
  #     hydro 3 p 5
  #     hydro 3 s 3.3
  #     hydro 5 g 15.6
  #     hydro 4 f 17.6
  #     hydro 4 d 14
  # Further basis functions - -0.08 meV and below
  #     hydro 3 s 2.1
  #     hydro 4 d 11.6
  #     hydro 3 p 16
  #     hydro 2 s 17.2
  
  
  -----------------------------------------------------------------------
  Completed first pass over input file control.in .
  -----------------------------------------------------------------------
  
  
  -----------------------------------------------------------------------
  Parsing geometry.in (first pass over file, find array dimensions only).
  The contents of geometry.in will be repeated verbatim below
  unless switched off by setting 'verbatim_writeout .false.' .
  in the first line of geometry.in .
  -----------------------------------------------------------------------
  
  atom      -4.053030000      0.065001000     -1.525160000  O
  atom      -4.566710000      0.974813000     -1.912820000  H
  atom      -3.067820000      0.330172000     -1.477310000  H
  atom      -4.370360000     -0.049164000     -0.572274000  H
  atom      -3.818880000      2.024990000      2.187990000  O
  atom      -3.690880000      1.961360000      3.202150000  H
  atom      -4.546490000      2.751300000      2.045370000  H
  atom      -1.975360000      2.858040000      0.453140000  O
  atom      -1.223550000      3.375850000      0.786238000  H
  atom      -2.537520000      2.567960000      1.156120000  H
  atom      -5.628340000      3.730740000      1.385610000  O
  atom      -6.090650000      4.418470000      1.860350000  H
  atom      -5.158540000      4.200260000      0.615875000  H
  
  -----------------------------------------------------------------------
  Completed first pass over input file geometry.in .
  -----------------------------------------------------------------------
  
 
  Basic array size parameters: 
  | Number of species                 :        2
  | Number of atoms                   :       13
  | Max. basis fn. angular momentum   :        4
  | Max. atomic/ionic basis occupied n:        2
  | Max. number of basis fn. types    :        2
  | Max. radial fns per species/type  :        8
  | Max. logarithmic grid size        :     1301
  | Max. radial integration grid size :       73
  | Max. angular integration grid size:      302
  | Max. angular grid division number :        8
  | Radial grid for Hartree potential :     1301
  | Number of spin channels           :        1

------------------------------------------------------------
          Reading file control.in.
------------------------------------------------------------
  XC: Using RPBE gradient-corrected functionals.
  Spin treatment: No spin polarisation.
  Scalar relativistic treatment of kinetic energy: on-site free-atom approximation to ZORA.
  Charge =   0.000000E+00: Neutral system requested explicitly.
  Using non-empirical van der Waals correction (Hirshfeld partitioning):
  Occupation type: Gaussian broadening, width =   0.100000E-01 eV.
  Using pulay charge density mixing.
  Pulay mixing - number of memorized iterations:   10
  Charge density mixing - mixing parameter:     0.1000
  Convergence accuracy of self-consistent charge density: 0.5000E-04
  Convergence accuracy of sum of eigenvalues: 0.5000E-02
  Convergence accuracy of total energy: 0.5000E-05
  Maximum number of s.-c. iterations  :  3000
  Kohn-Sham eigenvalues and eigenfunctions calculated by lapack diagonalisation (D&C).
  Number of empty states per atom:        8
  Threshold for basis singularities: 0.0000E+00
  Partition function in integrals calculations: rho / r^2
 Using packed matrix format           0
  Convergence accuracy of forces: 0.5000E-03
  Cleaning forces before final output.
  Hirshfeld charge analysis will be performed.
 
  Reading configuration options for species H                   .
  | Found nuclear charge :   1.0000
  | Found cutoff potl. onset [A], width [A], scale factor :    4.00000    2.00000    1.00000
  | Found cutoff specification for free atom: Cutoff potential begins at    8.00000 A.
  | Found logarithmic grid data [bohr] : 0.1000E-03 0.1000E+03 0.1012E+01
  | Threshold for basis-dependent cutoff potential is   0.100000E-03
  | Found data for basic radial integration grid :    24 points, outermost radius =    7.000 A
  | Found multiplier for basic radial grid :   2
  | Found angular grid specification: user-specified.
  | Specified grid contains     4 separate shells.
  | Check grid settings after all constraints further below.
  | Found l_max for Hartree potential  :   4
  | Found free-atom valence shell :  1 s   1.000
  | No ionic wave fns used. Skipping ion_occ.
  | Found hydrogenic basis function :  2 s   2.100
  | Found hydrogenic basis function :  2 p   3.500
  | Found hydrogenic basis function :  1 s   0.850
  | Found hydrogenic basis function :  2 p   3.700
  | Found hydrogenic basis function :  2 s   1.200
  | Found hydrogenic basis function :  3 d   7.000
  Species H                   : Missing cutoff potential type.
  Defaulting to exp(1/x)/(1-x)^2 type cutoff potential.
  Species H : On-site basis accuracy parameter (for Gram-Schmidt orthonormalisation) not specified.
  Using default value basis_acc =  0.1000000E-03.
  Species H                   : Using default innermost maximum threshold i_radial=  2 for radial functions.
  Species H                   : Basic radial grid will be enhanced according to radial_multiplier =   2, to contain    49 grid points.
 
  Reading configuration options for species O                   .
  | Found nuclear charge :   8.0000
  | Found atomic mass :    15.9994000000000      amu
  | Found l_max for Hartree potential  :   4
  | Found cutoff potl. onset [A], width [A], scale factor :    4.00000    2.00000    1.00000
  | Found cutoff specification for free atom: Cutoff potential begins at    8.00000 A.
  | Threshold for basis-dependent cutoff potential is   0.100000E-03
  | Found logarithmic grid data [bohr] : 0.1000E-03 0.1000E+03 0.1012E+01
  | Found data for basic radial integration grid :    36 points, outermost radius =    7.000 A
  | Found multiplier for basic radial grid :   2
  | Found angular grid specification: user-specified.
  | Specified grid contains     4 separate shells.
  | Check grid settings after all constraints further below.
  | Found free-atom valence shell :  2 s   2.000
  | Found free-atom valence shell :  2 p   4.000
  | No ionic wave fns used. Skipping ion_occ.
  | No ionic wave fns used. Skipping ion_occ.
  | Found hydrogenic basis function :  2 p   1.800
  | Found hydrogenic basis function :  3 d   7.600
  | Found hydrogenic basis function :  3 s   6.400
  | Found hydrogenic basis function :  4 f  11.600
  | Found hydrogenic basis function :  3 p   6.200
  | Found hydrogenic basis function :  3 d   5.600
  | Found hydrogenic basis function :  5 g  17.600
  | Found hydrogenic basis function :  1 s   0.750
  Species O                   : Missing cutoff potential type.
  Defaulting to exp(1/x)/(1-x)^2 type cutoff potential.
  Species O : On-site basis accuracy parameter (for Gram-Schmidt orthonormalisation) not specified.
  Using default value basis_acc =  0.1000000E-03.
  Species O                   : Using default innermost maximum threshold i_radial=  2 for radial functions.
  Species O                   : Basic radial grid will be enhanced according to radial_multiplier =   2, to contain    73 grid points.
 
  Finished reading input file 'control.in'. Consistency checks are next.
 
  Target number of points in a grid batch is not set. Defaulting to  100
  Method for grid partitioning is not set. Defaulting to parallel hash+maxmin partitioning.
  Batch size limit is not set. Defaulting to    200
  By default, will store active basis functions for each batch.
  If in need of memory, prune_basis_once .false. can be used to disable this option.
  communication_type for Hartree potential was not specified.
  Defaulting to calc_hartree .
  Pulay mixer: Number of initial linear mixing iterations not set.
  Defaulting to    0 iterations.
  Work space size for distributed Hartree potential not set.
  Defaulting to   0.200000E+03 MB.
  Algorithm-dependent basis array size parameters:
  | n_max_pulay                         :       10
  Geometry relaxation not requested: no relaxation will be performed.
  Handling of forces: Unphysical translation and rotation will be removed from forces.
  No accuracy limit for integral partition fn. given. Defaulting to 0.1000E-14.
  No threshold value for u(r) in integrations given. Defaulting to 0.1000E-05.
  No accuracy for occupation numbers given. Defaulting to 0.1000E-07.
  No threshold value for occupation numbers given. Defaulting to 0.0000E+00.
  No accuracy for fermi level given. Defaulting to 0.1000E-19.
  Maximum # of iterations to find E_F not set. Defaulting to  200.
  Will not use alltoall communication since running on < 1024 CPUs.
  Partitioning for Hartree potential was not defined. Using partition_type for integrals.
  | Reporting present value of keyword multip_moments_threshold  :       0.10000000E-09
  | This value may affect high angular momentum components of the Hartree potential in periodic systems.
  No q(lm)/r^(l+1) cutoff set for long-range Hartree potential.
  | Using default value of  0.100000E-09 .
  | Verify using the multipole_threshold keyword.
  Defaulting to new monopole extrapolation.
  Density update method: Loop over occupied states selected for charge density update.
------------------------------------------------------------


------------------------------------------------------------
          Reading geometry description geometry.in.
------------------------------------------------------------
  Input structure read successfully.
  The structure contains       13 atoms,  and a total of         41.000 electrons.

  Input geometry:
  | No unit cell requested.
  | Atomic structure:
  |       Atom                x [A]            y [A]            z [A]
  |    1: Species O             -4.053030         0.065001        -1.525160
  |    2: Species H             -4.566710         0.974813        -1.912820
  |    3: Species H             -3.067820         0.330172        -1.477310
  |    4: Species H             -4.370360        -0.049164        -0.572274
  |    5: Species O             -3.818880         2.024990         2.187990
  |    6: Species H             -3.690880         1.961360         3.202150
  |    7: Species H             -4.546490         2.751300         2.045370
  |    8: Species O             -1.975360         2.858040         0.453140
  |    9: Species H             -1.223550         3.375850         0.786238
  |   10: Species H             -2.537520         2.567960         1.156120
  |   11: Species O             -5.628340         3.730740         1.385610
  |   12: Species H             -6.090650         4.418470         1.860350
  |   13: Species H             -5.158540         4.200260         0.615875
  |

  | The smallest distance between any two atoms is         0.94570141 AA.
  |
  | The first atom of this pair is atom number                      8 .
  | The second atom of this pair is atom number                    10 .

  Structure-dependent array size parameters: 
  | Maximum number of distinct radial functions  :       18
  | Maximum number of basis functions            :      291
  | Number of Kohn-Sham states (occupied + empty):       73
------------------------------------------------------------

------------------------------------------------------------
          Preparing all fixed parts of the calculation.
------------------------------------------------------------
  Determining machine precision:
    2.225073858507201E-308
  Setting up grids for atomic and cluster calculations.

  Creating wave function, potential, and density for free atoms.

  Species: H

  List of occupied orbitals and eigenvalues:
    n    l              occ      energy [Ha]    energy [eV]
    1    0           1.0000        -0.241408        -6.5691


  Species: O

  List of occupied orbitals and eigenvalues:
    n    l              occ      energy [Ha]    energy [eV]
    1    0           2.0000       -18.944147      -515.4965
    2    0           2.0000        -0.883529       -24.0421
    2    1           4.0000        -0.330176        -8.9845

  Creating fixed part of basis set: Ionic, confined, hydrogenic.
 
  H                    hydrogenic:
 
  List of hydrogenic basis orbitals: 
    n    l      effective z      eigenvalue [eV]  inner max. [A]     outer max. [A]     outer radius [A]   
    2    0         2.100000       -14.9965           0.193241           1.317192           5.372934
    2    1         3.500000       -41.6672           0.602363           0.602363           4.056010
    1    0         0.850000        -9.8292           0.624864           0.624864           5.372934
    2    1         3.700000       -46.5653           0.573616           0.573616           3.909951
    2    0         1.200000        -4.5995           0.334977           2.228160           5.505921
    3    2         7.000000       -74.0753           0.680692           0.680692           3.769152
 
 
  O                    hydrogenic:
 
  List of hydrogenic basis orbitals: 
    n    l      effective z      eigenvalue [eV]  inner max. [A]     outer max. [A]     outer radius [A]   
    2    1         1.800000       -11.0118           1.178546           1.178546           5.432516
    3    2         7.600000       -87.3182           0.624117           0.624117           3.541422
    3    0         6.400000       -61.9209           0.061166           1.081887           4.306510
    4    3        11.600000      -114.4238           0.731621           0.731621           3.584982
    3    1         6.200000       -58.1113           0.255677           1.030255           4.306510
    3    2         5.600000       -47.4081           0.847222           0.847222           4.413102
    5    4        17.600000      -168.5799           0.749730           0.749730           3.372413
    1    0         0.750000        -7.6499           0.705275           0.705275           5.366508
 

  Adding cutoff potential to free-atom effective potential.
  Creating atomic-like basis functions for current effective potential.

  Species H                   :

  List of atomic basis orbitals and eigenvalues:
    n    l      energy [Ha]    energy [eV]    outer radius [A]
    1    0        -0.241374        -6.5681       5.372934


  Species O                   :

  List of atomic basis orbitals and eigenvalues:
    n    l      energy [Ha]    energy [eV]    outer radius [A]
    1    0       -18.944147      -515.4965       1.415745
    2    0        -0.883529       -24.0421       5.048305
    2    1        -0.330173        -8.9845       5.301302

  Assembling full basis from fixed parts.
  | Species H :   atomic orbital   1 s accepted.
  | Species H :    hydro orbital   2 s accepted.
  | Species H :    hydro orbital   1 s accepted.
  | Species H :    hydro orbital   2 s accepted.
  | Species H :    hydro orbital   2 p accepted.
  | Species H :    hydro orbital   2 p accepted.
  | Species H :    hydro orbital   3 d accepted.
  | Species O :   atomic orbital   1 s accepted.
  | Species O :    hydro orbital   3 s accepted.
  | Species O :   atomic orbital   2 s accepted.
  | Species O :    hydro orbital   1 s accepted.
  | Species O :    hydro orbital   3 p accepted.
  | Species O :   atomic orbital   2 p accepted.
  | Species O :    hydro orbital   2 p accepted.
  | Species O :    hydro orbital   3 d accepted.
  | Species O :    hydro orbital   3 d accepted.
  | Species O :    hydro orbital   4 f accepted.
  | Species O :    hydro orbital   5 g accepted.
 
  Basis size parameters after reduction:
  | Total number of radial functions:       18
  | Total number of basis functions :      291
 
  Testing on-site integration grid accuracy.
  |  Species  Function  <phi|h_atom|phi> (log., in eV)  <phi|h_atom|phi> (rad., in eV)
           1        1                 -6.5683835025                 -6.5684759159
           1        2                 13.3711789951                 13.3708738703
           1        3                 23.6590910787                 23.6532055418
           1        4                 16.2963827186                 16.1870710655 ***
           1        5                 28.7627214838                 28.7627215090
           1        6                 59.5965249172                 59.5965950857
           1        7                 60.2220506392                 60.2220503827
           2        8               -515.4964576505               -515.4964530710
           2        9                 15.3030791347                 15.3030722972
           2       10                -21.7296094581                -21.7296135470
           2       11                 14.2969371730                 14.2969701621
           2       12                 21.0679693190                 21.0679697493
           2       13                 -2.3833606469                 -2.3833613176
           2       14                 13.7067136422                 13.7066766629
           2       15                 45.8013116808                 45.8013116965
           2       16                 52.2309815402                 52.2309831494
           2       17                 85.4120732416                 85.4120732763
           2       18                142.1019167745                142.1019167817
 * Note: Onsite integrals marked "***" above are less accurate than
 * onsite_accuracy_threshold =    0.03000 eV. Usually, this is harmless.
 * When in doubt, tighten the "radial" and/or "radial_multiplier" flags to check.

  Preparing densities etc. for the partition functions (integrals / Hartree potential).

  Preparations completed.
  max(cpu_time)          :      0.171 s.
  Wall clock time (cpu1) :      0.619 s.
------------------------------------------------------------

------------------------------------------------------------
          Begin self-consistency loop: Initialization.

          Date     :  20150727, Time     :  130205.626
------------------------------------------------------------

  Initializing index lists of integration centers etc. from given atomic structure:
  | Number of centers in hartree potential         :        13
  | Number of centers in hartree multipole         :        13
  | Number of centers in electron density summation:        13
  | Number of centers in basis integrals           :        13
  | Number of centers in integrals                 :        13
  Partitioning the integration grid into batches with parallel hashing+maxmin method.
  | Number of batches:     1788
  | Maximal batch size:     187
  | Minimal batch size:      49
  | Average batch size:      94.498
  | Standard deviation of batch sizes:      30.613

  Integration load balanced across     8 MPI tasks.
  Work distribution over tasks is as follows:
  Task     0 has      21071 integration points.
  Task     1 has      21099 integration points.
  Task     2 has      21069 integration points.
  Task     3 has      21117 integration points.
  Task     4 has      21153 integration points.
  Task     5 has      21242 integration points.
  Task     6 has      21116 integration points.
  Task     7 has      21095 integration points.
  Initializing partition tables, free-atom densities, potentials, etc. across the integration grid (initialize_grid_storage).
  | Net number of integration points:   168962
  | of which are non-zero points    :   168438
  Obtaining max. number of non-zero basis functions in each batch (get_n_compute_maxes).
  | Maximal number of non-zero basis functions:      289 in task     0
  | Maximal number of non-zero basis functions:      289 in task     1
  | Maximal number of non-zero basis functions:      289 in task     2
  | Maximal number of non-zero basis functions:      289 in task     3
  | Maximal number of non-zero basis functions:      289 in task     4
  | Maximal number of non-zero basis functions:      289 in task     5
  | Maximal number of non-zero basis functions:      289 in task     6
  | Maximal number of non-zero basis functions:      289 in task     7
  Integrating Hamiltonian matrix: batch-based integration.
  Time summed over all CPUs for integration: real work        5.027 s, elapsed        5.167 s
  Integrating overlap matrix.
  Time summed over all CPUs for integration: real work        2.653 s, elapsed        2.712 s

  Updating Kohn-Sham eigenvalues, eigenvectors, occupation numbers, and Fermi level.
  Solving generalized eigenproblem
  Updating Kohn-Sham eigenvalues and eigenfunctions.
  Transforming overlap matrix and checking for singularities.
  Overlap matrix is nonsingular:
  | Lowest eigenvalue:  0.296870E-03
  Solving real generalised eigenvalue problem by standard LAPACK (fast)
  Determining occupation numbers for Kohn-Sham eigenstates.
  | Chemical potential (Fermi level) in eV                 : -.29875379E+01
  | Error in electron count due to remaining E_F inaccuracy: 0.00000000E+00
  | Maximum occupation number of highest empty state:  0.00E+00

  Writing Kohn-Sham eigenvalues.

  State    Occupation    Eigenvalue [Ha]    Eigenvalue [eV]
      1       2.00000         -19.064657         -518.77570
      2       2.00000         -19.054642         -518.50318
      3       2.00000         -19.050529         -518.39127
      4       2.00000         -19.032806         -517.90902
      5       2.00000          -1.118642          -30.43980
      6       2.00000          -1.105745          -30.08885
      7       2.00000          -1.098858          -29.90143
      8       2.00000          -1.064285          -28.96067
      9       2.00000          -0.651711          -17.73396
     10       2.00000          -0.628605          -17.10520
     11       2.00000          -0.626753          -17.05481
     12       2.00000          -0.602672          -16.39954
     13       2.00000          -0.598793          -16.29400
     14       2.00000          -0.522657          -14.22223
     15       2.00000          -0.504299          -13.72266
     16       2.00000          -0.489404          -13.31737
     17       2.00000          -0.485714          -13.21696
     18       2.00000          -0.439558          -11.96099
     19       2.00000          -0.438477          -11.93157
     20       2.00000          -0.424347          -11.54708
     21       1.00000          -0.109790           -2.98754
     22       0.00000          -0.080757           -2.19752
     23       0.00000          -0.055773           -1.51766
     24       0.00000          -0.042294           -1.15088
     25       0.00000          -0.032378           -0.88106
     26       0.00000          -0.015305           -0.41648
     27       0.00000          -0.004103           -0.11166
     28       0.00000           0.048917            1.33111
     29       0.00000           0.052877            1.43886
     30       0.00000           0.064914            1.76639
     31       0.00000           0.076215            2.07393
     32       0.00000           0.080383            2.18732
     33       0.00000           0.088646            2.41217
     34       0.00000           0.093596            2.54688
     35       0.00000           0.102729            2.79540
     36       0.00000           0.113195            3.08018
     37       0.00000           0.116299            3.16466
     38       0.00000           0.125503            3.41510
     39       0.00000           0.142143            3.86790
     40       0.00000           0.157023            4.27282
     41       0.00000           0.168037            4.57252
     42       0.00000           0.180557            4.91320
     43       0.00000           0.190718            5.18971
     44       0.00000           0.208667            5.67810
     45       0.00000           0.228413            6.21543
     46       0.00000           0.239426            6.51510
     47       0.00000           0.253769            6.90540
     48       0.00000           0.270506            7.36086
     49       0.00000           0.276492            7.52372
     50       0.00000           0.310480            8.44858
     51       0.00000           0.321499            8.74842
     52       0.00000           0.338950            9.22330
     53       0.00000           0.357248            9.72121
     54       0.00000           0.362486            9.86374
     55       0.00000           0.371169           10.10002
     56       0.00000           0.378252           10.29276
     57       0.00000           0.389136           10.58892
     58       0.00000           0.402603           10.95538
     59       0.00000           0.410784           11.17801
     60       0.00000           0.432449           11.76753
     61       0.00000           0.436679           11.88265
     62       0.00000           0.459468           12.50275
     63       0.00000           0.485486           13.21076
     64       0.00000           0.497246           13.53075
     65       0.00000           0.521128           14.18062
     66       0.00000           0.534060           14.53251
     67       0.00000           0.561213           15.27138
     68       0.00000           0.581204           15.81536
     69       0.00000           0.640485           17.42849
     70       0.00000           0.654241           17.80280
     71       0.00000           0.709442           19.30489
     72       0.00000           0.713696           19.42066
     73       0.00000           0.736594           20.04375

  Highest occupied state (VBM) at     -2.98753787 eV
  | Occupation number:      1.00000000

  Lowest unoccupied state (CBM) at    -2.98753787 eV
  | Occupation number:      1.00000000

  Overall HOMO-LUMO gap:      0.00000000 eV.
  Calculating total energy contributions from superposition of free atom densities.

  Total energy components:
  | Sum of eigenvalues            :        -174.11609945 Ha       -4737.94012991 eV
  | XC energy correction          :         -36.78601739 Ha       -1000.99846350 eV
  | XC potential correction       :          47.00949068 Ha        1279.19332608 eV
  | Free-atom electrostatic energy:        -143.02381211 Ha       -3891.87594409 eV
  | Hartree energy correction     :           0.00000000 Ha           0.00000000 eV
  | van der Waals energy corr.    :           0.00000000 Ha           0.00000000 eV
  | Entropy correction            :          -0.00010367 Ha          -0.00282095 eV
  | ---------------------------
  | Total energy                  :        -306.91643828 Ha       -8351.62121142 eV
  | Total energy, T -> 0          :        -306.91654195 Ha       -8351.62403237 eV  <-- do not rely on this value for anything but (periodic) metals
  | Electronic free energy        :        -306.91664562 Ha       -8351.62685331 eV

  Derived energy quantities:
  | Kinetic energy                :         303.95215310 Ha        8270.95890762 eV
  | Electrostatic energy          :        -574.08257399 Ha      -15621.58165554 eV
  | Energy correction for multipole
  | error in Hartree potential    :           0.00000000 Ha           0.00000000 eV
  | Sum of eigenvalues per atom                           :        -364.45693307 eV
  | Total energy (T->0) per atom                          :        -642.43261787 eV  <-- do not rely on this value for anything but (periodic) metals
  | Electronic free energy per atom                       :        -642.43283487 eV
  Initialize hartree_potential_storage
  Max. number of atoms included in rho_multipole:           13

  End scf initialization - timings             :  max(cpu_time)    wall_clock(cpu1)
  | Time for scf. initialization               :        1.421 s           1.421 s
  | Boundary condition initialization          :        0.000 s           0.002 s
  | Integration                                :        0.987 s           0.988 s
  | Solution of K.-S. eqns.                    :        0.136 s           0.136 s
  | Grid partitioning                          :        0.130 s           0.129 s
  | Preloading free-atom quantities on grid    :        0.014 s           0.013 s
  | Free-atom superposition energy             :        0.051 s           0.052 s
  | Total energy evaluation                    :        0.000 s           0.000 s
------------------------------------------------------------

------------------------------------------------------------
          Begin self-consistency iteration #    1

  Date     :  20150727, Time     :  130207.047
------------------------------------------------------------
  Evaluating new KS density.
  Integration grid: deviation in total charge (<rho> - N_e) =   7.105427E-15
  Pulay mixing of updated and previous charge densities.

  Evaluating partitioned Hartree potential by multipole expansion.
  | Analytical far-field extrapolation by fixed multipoles:
  | Hartree multipole sum: apparent total charge =  -0.726558E-06
  Summing up the Hartree potential.
  Time summed over all CPUs for potential: real work        1.920 s, elapsed        1.941 s
  | RMS charge density error from multipole expansion :   0.148768E-02

  Integrating Hamiltonian matrix: batch-based integration.
  Time summed over all CPUs for integration: real work        5.025 s, elapsed        5.157 s

  Updating Kohn-Sham eigenvalues, eigenvectors, occupation numbers, and Fermi level.
  Solving generalized eigenproblem
  Updating Kohn-Sham eigenvalues and eigenfunctions.
  Solving real generalised eigenvalue problem by standard LAPACK (fast)
  Determining occupation numbers for Kohn-Sham eigenstates.
  | Chemical potential (Fermi level) in eV                 : -.28109640E+01
  | Error in electron count due to remaining E_F inaccuracy: 0.90722097E-10
  | Maximum occupation number of highest empty state:  0.00E+00

  Writing Kohn-Sham eigenvalues.

  State    Occupation    Eigenvalue [Ha]    Eigenvalue [eV]
      1       2.00000         -19.014621         -517.41417
      2       2.00000         -18.981862         -516.52275
      3       2.00000         -18.966448         -516.10331
      4       2.00000         -18.956367         -515.82899
      5       2.00000          -1.095663          -29.81451
      6       2.00000          -1.066663          -29.02539
      7       2.00000          -1.059102          -28.81963
      8       2.00000          -1.024515          -27.87848
      9       2.00000          -0.611440          -16.63813
     10       2.00000          -0.607305          -16.52561
     11       2.00000          -0.599957          -16.32565
     12       2.00000          -0.579329          -15.76435
     13       2.00000          -0.570362          -15.52033
     14       2.00000          -0.487394          -13.26266
     15       2.00000          -0.465495          -12.66677
     16       2.00000          -0.461118          -12.54765
     17       2.00000          -0.446063          -12.13799
     18       2.00000          -0.403543          -10.98098
     19       2.00000          -0.391626          -10.65669
     20       2.00000          -0.382586          -10.41069
     21       1.00000          -0.103301           -2.81096
     22       0.00000          -0.073152           -1.99057
     23       0.00000          -0.047976           -1.30549
     24       0.00000          -0.033706           -0.91719
     25       0.00000          -0.025531           -0.69473
     26       0.00000          -0.008615           -0.23443
     27       0.00000           0.002303            0.06267
     28       0.00000           0.057687            1.56975
     29       0.00000           0.058465            1.59092
     30       0.00000           0.072236            1.96565
     31       0.00000           0.081523            2.21834
     32       0.00000           0.085126            2.31640
     33       0.00000           0.096621            2.62918
     34       0.00000           0.099853            2.71713
     35       0.00000           0.111167            3.02500
     36       0.00000           0.120229            3.27159
     37       0.00000           0.130167            3.54202
     38       0.00000           0.133855            3.64237
     39       0.00000           0.152061            4.13780
     40       0.00000           0.172741            4.70052
     41       0.00000           0.178019            4.84414
     42       0.00000           0.189210            5.14866
     43       0.00000           0.200850            5.46540
     44       0.00000           0.215544            5.86526
     45       0.00000           0.235079            6.39682
     46       0.00000           0.245312            6.67527
     47       0.00000           0.261162            7.10657
     48       0.00000           0.276972            7.53679
     49       0.00000           0.285933            7.78064
     50       0.00000           0.317795            8.64765
     51       0.00000           0.329569            8.96802
     52       0.00000           0.346915            9.44003
     53       0.00000           0.364344            9.91431
     54       0.00000           0.371084           10.09770
     55       0.00000           0.377410           10.26985
     56       0.00000           0.384350           10.45868
     57       0.00000           0.396735           10.79570
     58       0.00000           0.411540           11.19858
     59       0.00000           0.420302           11.43700
     60       0.00000           0.439394           11.95651
     61       0.00000           0.445851           12.13223
     62       0.00000           0.467348           12.71718
     63       0.00000           0.495130           13.47316
     64       0.00000           0.506125           13.77235
     65       0.00000           0.532517           14.49053
     66       0.00000           0.545197           14.83558
     67       0.00000           0.574008           15.61955
     68       0.00000           0.592116           16.11229
     69       0.00000           0.653711           17.78837
     70       0.00000           0.666685           18.14141
     71       0.00000           0.717838           19.53336
     72       0.00000           0.721894           19.64374
     73       0.00000           0.746554           20.31476

  Highest occupied state (VBM) at     -2.81096404 eV
  | Occupation number:      1.00000000

  Lowest unoccupied state (CBM) at    -1.99057122 eV
  | Occupation number:      0.00000000

  Overall HOMO-LUMO gap:      0.82039283 eV.

  Total energy components:
  | Sum of eigenvalues            :        -172.44622105 Ha       -4692.50042647 eV
  | XC energy correction          :         -36.96215259 Ha       -1005.79134614 eV
  | XC potential correction       :          47.23977122 Ha        1285.45957837 eV
  | Free-atom electrostatic energy:        -143.02381211 Ha       -3891.87594409 eV
  | Hartree energy correction     :          -1.62389534 Ha         -44.18844037 eV
  | van der Waals energy corr.    :           0.00000000 Ha           0.00000000 eV
  | Entropy correction            :          -0.00010367 Ha          -0.00282095 eV
  | ---------------------------
  | Total energy                  :        -306.81630987 Ha       -8348.89657870 eV
  | Total energy, T -> 0          :        -306.81641354 Ha       -8348.89939965 eV  <-- do not rely on this value for anything but (periodic) metals
  | Electronic free energy        :        -306.81651720 Ha       -8348.90222060 eV

  Derived energy quantities:
  | Kinetic energy                :         305.02532696 Ha        8300.16145425 eV
  | Electrostatic energy          :        -574.87948424 Ha      -15643.26668681 eV
  | Energy correction for multipole
  | error in Hartree potential    :           0.00041510 Ha           0.01129558 eV
  | Sum of eigenvalues per atom                           :        -360.96157127 eV
  | Total energy (T->0) per atom                          :        -642.22303074 eV  <-- do not rely on this value for anything but (periodic) metals
  | Electronic free energy per atom                       :        -642.22324774 eV

  Self-consistency convergence accuracy:
  | Change of charge density      : 0.5677E+00
  | Change of sum of eigenvalues  : 0.4544E+02 eV
  | Change of total energy        : 0.2725E+01 eV

  End self-consistency iteration #     1       :  max(cpu_time)    wall_clock(cpu1)
  | Time for this iteration                    :        1.390 s           1.391 s
  | Charge density update                      :        0.457 s           0.457 s
  | Density mixing                             :        0.002 s           0.003 s
  | Hartree multipole update                   :        0.004 s           0.005 s
  | Hartree multipole summation                :        0.244 s           0.243 s
  | Integration                                :        0.645 s           0.646 s
  | Solution of K.-S. eqns.                    :        0.035 s           0.036 s
  | Total energy evaluation                    :        0.000 s           0.001 s
------------------------------------------------------------

------------------------------------------------------------
          Begin self-consistency iteration #    2

  Date     :  20150727, Time     :  130208.438
------------------------------------------------------------
  Evaluating new KS density.
  Integration grid: deviation in total charge (<rho> - N_e) =   9.070789E-11
  Pulay mixing of updated and previous charge densities.

  Evaluating partitioned Hartree potential by multipole expansion.
  | Analytical far-field extrapolation by fixed multipoles:
  | Hartree multipole sum: apparent total charge =  -0.226847E-05
  Summing up the Hartree potential.
  Time summed over all CPUs for potential: real work        1.919 s, elapsed        1.940 s
  | RMS charge density error from multipole expansion :   0.601896E-02

  Integrating Hamiltonian matrix: batch-based integration.
  Time summed over all CPUs for integration: real work        5.006 s, elapsed        5.143 s

  Updating Kohn-Sham eigenvalues, eigenvectors, occupation numbers, and Fermi level.
  Solving generalized eigenproblem
  Updating Kohn-Sham eigenvalues and eigenfunctions.
  Solving real generalised eigenvalue problem by standard LAPACK (fast)
  Determining occupation numbers for Kohn-Sham eigenstates.
  | Chemical potential (Fermi level) in eV                 : -.23864658E+01
  | Error in electron count due to remaining E_F inaccuracy: -.58932415E-10
  | Maximum occupation number of highest empty state:  0.00E+00

  Highest occupied state (VBM) at     -7.46320648 eV
  | Occupation number:      2.00000000

  Lowest unoccupied state (CBM) at    -2.38646583 eV
  | Occupation number:      1.00000000

  Overall HOMO-LUMO gap:      5.07674065 eV.

  Total energy components:
  | Sum of eigenvalues            :        -168.45594104 Ha       -4583.91938299 eV
  | XC energy correction          :         -37.40245725 Ha       -1017.77264542 eV
  | XC potential correction       :          47.81436213 Ha        1301.09499244 eV
  | Free-atom electrostatic energy:        -143.02381211 Ha       -3891.87594409 eV
  | Hartree energy correction     :          -5.63322308 Ha        -153.28779916 eV
  | van der Waals energy corr.    :           0.00000000 Ha           0.00000000 eV
  | Entropy correction            :          -0.00010367 Ha          -0.00282095 eV
  | ---------------------------
  | Total energy                  :        -306.70107136 Ha       -8345.76077922 eV
  | Total energy, T -> 0          :        -306.70117502 Ha       -8345.76360017 eV  <-- do not rely on this value for anything but (periodic) metals
  | Electronic free energy        :        -306.70127869 Ha       -8345.76642112 eV

  Derived energy quantities:
  | Kinetic energy                :         307.23542492 Ha        8360.30127948 eV
  | Electrostatic energy          :        -576.53403903 Ha      -15688.28941328 eV
  | Energy correction for multipole
  | error in Hartree potential    :           0.00097804 Ha           0.02661388 eV
  | Sum of eigenvalues per atom                           :        -352.60918331 eV
  | Total energy (T->0) per atom                          :        -641.98181540 eV  <-- do not rely on this value for anything but (periodic) metals
  | Electronic free energy per atom                       :        -641.98203239 eV

  Self-consistency convergence accuracy:
  | Change of charge density      : 0.4312E+00
  | Change of sum of eigenvalues  : 0.1086E+03 eV
  | Change of total energy        : 0.3136E+01 eV

  End self-consistency iteration #     2       :  max(cpu_time)    wall_clock(cpu1)
  | Time for this iteration                    :        1.386 s           1.387 s
  | Charge density update                      :        0.454 s           0.454 s
  | Density mixing                             :        0.004 s           0.005 s
  | Hartree multipole update                   :        0.005 s           0.004 s
  | Hartree multipole summation                :        0.243 s           0.243 s
  | Integration                                :        0.644 s           0.644 s
  | Solution of K.-S. eqns.                    :        0.036 s           0.036 s
  | Total energy evaluation                    :        0.000 s           0.001 s
------------------------------------------------------------

------------------------------------------------------------
          Begin self-consistency iteration #    3

  Date     :  20150727, Time     :  130209.825
------------------------------------------------------------
  Evaluating new KS density.
  Integration grid: deviation in total charge (<rho> - N_e) =  -5.892531E-11
  Pulay mixing of updated and previous charge densities.

  Evaluating partitioned Hartree potential by multipole expansion.
  | Analytical far-field extrapolation by fixed multipoles:
  | Hartree multipole sum: apparent total charge =  -0.130392E-05
  Summing up the Hartree potential.
  Time summed over all CPUs for potential: real work        1.920 s, elapsed        1.941 s
  | RMS charge density error from multipole expansion :   0.121212E-01

  Integrating Hamiltonian matrix: batch-based integration.
  Time summed over all CPUs for integration: real work        5.009 s, elapsed        5.156 s

  Updating Kohn-Sham eigenvalues, eigenvectors, occupation numbers, and Fermi level.
  Solving generalized eigenproblem
  Updating Kohn-Sham eigenvalues and eigenfunctions.
  Solving real generalised eigenvalue problem by standard LAPACK (fast)
  Determining occupation numbers for Kohn-Sham eigenstates.
  | Chemical potential (Fermi level) in eV                 : -.24313437E+01
  | Error in electron count due to remaining E_F inaccuracy: -.52708060E-10
  | Maximum occupation number of highest empty state:  0.00E+00

  Highest occupied state (VBM) at     -7.04652085 eV
  | Occupation number:      2.00000000

  Lowest unoccupied state (CBM) at    -2.43134366 eV
  | Occupation number:      1.00000000

  Overall HOMO-LUMO gap:      4.61517720 eV.

  Total energy components:
  | Sum of eigenvalues            :        -168.70013969 Ha       -4590.56436624 eV
  | XC energy correction          :         -37.38012082 Ha       -1017.16484033 eV
  | XC potential correction       :          47.77912103 Ha        1300.13603352 eV
  | Free-atom electrostatic energy:        -143.02381211 Ha       -3891.87594409 eV
  | Hartree energy correction     :          -5.37326588 Ha        -146.21400392 eV
  | van der Waals energy corr.    :           0.00000000 Ha           0.00000000 eV
  | Entropy correction            :          -0.00010367 Ha          -0.00282095 eV
  | ---------------------------
  | Total energy                  :        -306.69821747 Ha       -8345.68312106 eV
  | Total energy, T -> 0          :        -306.69832114 Ha       -8345.68594201 eV  <-- do not rely on this value for anything but (periodic) metals
  | Electronic free energy        :        -306.69842481 Ha       -8345.68876296 eV

  Derived energy quantities:
  | Kinetic energy                :         305.75053403 Ha        8319.89534262 eV
  | Electrostatic energy          :        -575.06863068 Ha      -15648.41362336 eV
  | Energy correction for multipole
  | error in Hartree potential    :          -0.00137805 Ha          -0.03749876 eV
  | Sum of eigenvalues per atom                           :        -353.12033586 eV
  | Total energy (T->0) per atom                          :        -641.97584169 eV  <-- do not rely on this value for anything but (periodic) metals
  | Electronic free energy per atom                       :        -641.97605869 eV

  Self-consistency convergence accuracy:
  | Change of charge density      : 0.2130E+00
  | Change of sum of eigenvalues  : -.6645E+01 eV
  | Change of total energy        : 0.7766E-01 eV

  End self-consistency iteration #     3       :  max(cpu_time)    wall_clock(cpu1)
  | Time for this iteration                    :        1.385 s           1.385 s
  | Charge density update                      :        0.449 s           0.449 s
  | Density mixing                             :        0.006 s           0.006 s
  | Hartree multipole update                   :        0.004 s           0.004 s
  | Hartree multipole summation                :        0.244 s           0.244 s
  | Integration                                :        0.645 s           0.645 s
  | Solution of K.-S. eqns.                    :        0.036 s           0.036 s
  | Total energy evaluation                    :        0.001 s           0.001 s
------------------------------------------------------------

------------------------------------------------------------
          Begin self-consistency iteration #    4

  Date     :  20150727, Time     :  130211.210
------------------------------------------------------------
  Evaluating new KS density.
  Integration grid: deviation in total charge (<rho> - N_e) =  -5.270806E-11
  Pulay mixing of updated and previous charge densities.

  Evaluating partitioned Hartree potential by multipole expansion.
  | Analytical far-field extrapolation by fixed multipoles:
  | Hartree multipole sum: apparent total charge =  -0.151732E-05
  Summing up the Hartree potential.
  Time summed over all CPUs for potential: real work        1.919 s, elapsed        1.940 s
  | RMS charge density error from multipole expansion :   0.162180E-01

  Integrating Hamiltonian matrix: batch-based integration.
  Time summed over all CPUs for integration: real work        4.996 s, elapsed        5.135 s

  Updating Kohn-Sham eigenvalues, eigenvectors, occupation numbers, and Fermi level.
  Solving generalized eigenproblem
  Updating Kohn-Sham eigenvalues and eigenfunctions.
  Solving real generalised eigenvalue problem by standard LAPACK (fast)
  Determining occupation numbers for Kohn-Sham eigenstates.
  | Chemical potential (Fermi level) in eV                 : -.22931072E+01
  | Error in electron count due to remaining E_F inaccuracy: 0.29949021E-08
  | Maximum occupation number of highest empty state:  0.00E+00

  Highest occupied state (VBM) at     -2.29310723 eV
  | Occupation number:      1.00000000

  Lowest unoccupied state (CBM) at    -1.36178250 eV
  | Occupation number:      0.00000000

  Overall HOMO-LUMO gap:      0.93132473 eV.

  Total energy components:
  | Sum of eigenvalues            :        -167.45838478 Ha       -4556.77449596 eV
  | XC energy correction          :         -37.53751308 Ha       -1021.44770168 eV
  | XC potential correction       :          47.98240345 Ha        1305.66762940 eV
  | Free-atom electrostatic energy:        -143.02381211 Ha       -3891.87594409 eV
  | Hartree energy correction     :          -6.65567176 Ha        -181.11004338 eV
  | van der Waals energy corr.    :           0.00000000 Ha           0.00000000 eV
  | Entropy correction            :          -0.00010367 Ha          -0.00282095 eV
  | ---------------------------
  | Total energy                  :        -306.69297829 Ha       -8345.54055572 eV
  | Total energy, T -> 0          :        -306.69308196 Ha       -8345.54337666 eV  <-- do not rely on this value for anything but (periodic) metals
  | Electronic free energy        :        -306.69318563 Ha       -8345.54619761 eV

  Derived energy quantities:
  | Kinetic energy                :         305.85875145 Ha        8322.84008833 eV
  | Electrostatic energy          :        -575.01421665 Ha      -15646.93294236 eV
  | Energy correction for multipole
  | error in Hartree potential    :          -0.00220722 Ha          -0.06006146 eV
  | Sum of eigenvalues per atom                           :        -350.52111507 eV
  | Total energy (T->0) per atom                          :        -641.96487513 eV  <-- do not rely on this value for anything but (periodic) metals
  | Electronic free energy per atom                       :        -641.96509212 eV

  Self-consistency convergence accuracy:
  | Change of charge density      : 0.1046E+00
  | Change of sum of eigenvalues  : 0.3379E+02 eV
  | Change of total energy        : 0.1426E+00 eV

  End self-consistency iteration #     4       :  max(cpu_time)    wall_clock(cpu1)
  | Time for this iteration                    :        1.382 s           1.382 s
  | Charge density update                      :        0.448 s           0.448 s
  | Density mixing                             :        0.007 s           0.007 s
  | Hartree multipole update                   :        0.005 s           0.005 s
  | Hartree multipole summation                :        0.243 s           0.243 s
  | Integration                                :        0.643 s           0.643 s
  | Solution of K.-S. eqns.                    :        0.035 s           0.035 s
  | Total energy evaluation                    :        0.000 s           0.001 s
------------------------------------------------------------

------------------------------------------------------------
          Begin self-consistency iteration #    5

  Date     :  20150727, Time     :  130212.592
------------------------------------------------------------
  Evaluating new KS density.
  Integration grid: deviation in total charge (<rho> - N_e) =   2.994916E-09
  Pulay mixing of updated and previous charge densities.

  Evaluating partitioned Hartree potential by multipole expansion.
  | Analytical far-field extrapolation by fixed multipoles:
  | Hartree multipole sum: apparent total charge =  -0.141637E-05
  Summing up the Hartree potential.
  Time summed over all CPUs for potential: real work        1.919 s, elapsed        1.939 s
  | RMS charge density error from multipole expansion :   0.160543E-01

  Integrating Hamiltonian matrix: batch-based integration.
  Time summed over all CPUs for integration: real work        4.996 s, elapsed        5.133 s

  Updating Kohn-Sham eigenvalues, eigenvectors, occupation numbers, and Fermi level.
  Solving generalized eigenproblem
  Updating Kohn-Sham eigenvalues and eigenfunctions.
  Solving real generalised eigenvalue problem by standard LAPACK (fast)
  Determining occupation numbers for Kohn-Sham eigenstates.
  | Chemical potential (Fermi level) in eV                 : -.22700826E+01
  | Error in electron count due to remaining E_F inaccuracy: -.23900526E-09
  | Maximum occupation number of highest empty state:  0.00E+00

  Highest occupied state (VBM) at     -6.13033725 eV
  | Occupation number:      2.00000000

  Lowest unoccupied state (CBM) at    -2.27008256 eV
  | Occupation number:      1.00000000

  Overall HOMO-LUMO gap:      3.86025469 eV.

  Total energy components:
  | Sum of eigenvalues            :        -167.58512295 Ha       -4560.22321718 eV
  | XC energy correction          :         -37.52376669 Ha       -1021.07364322 eV
  | XC potential correction       :          47.96427784 Ha        1305.17440660 eV
  | Free-atom electrostatic energy:        -143.02381211 Ha       -3891.87594409 eV
  | Hartree energy correction     :          -6.52411063 Ha        -177.53008287 eV
  | van der Waals energy corr.    :           0.00000000 Ha           0.00000000 eV
  | Entropy correction            :          -0.00010367 Ha          -0.00282095 eV
  | ---------------------------
  | Total energy                  :        -306.69253454 Ha       -8345.52848075 eV
  | Total energy, T -> 0          :        -306.69263821 Ha       -8345.53130170 eV  <-- do not rely on this value for anything but (periodic) metals
  | Electronic free energy        :        -306.69274188 Ha       -8345.53412265 eV

  Derived energy quantities:
  | Kinetic energy                :         305.87953400 Ha        8323.40561033 eV
  | Electrostatic energy          :        -575.04830186 Ha      -15647.86044786 eV
  | Energy correction for multipole
  | error in Hartree potential    :          -0.00207862 Ha          -0.05656222 eV
  | Sum of eigenvalues per atom                           :        -350.78640132 eV
  | Total energy (T->0) per atom                          :        -641.96394628 eV  <-- do not rely on this value for anything but (periodic) metals
  | Electronic free energy per atom                       :        -641.96416328 eV

  Self-consistency convergence accuracy:
  | Change of charge density      : 0.2325E-01
  | Change of sum of eigenvalues  : -.3449E+01 eV
  | Change of total energy        : 0.1207E-01 eV

  End self-consistency iteration #     5       :  max(cpu_time)    wall_clock(cpu1)
  | Time for this iteration                    :        1.384 s           1.383 s
  | Charge density update                      :        0.449 s           0.448 s
  | Density mixing                             :        0.008 s           0.008 s
  | Hartree multipole update                   :        0.004 s           0.005 s
  | Hartree multipole summation                :        0.243 s           0.243 s
  | Integration                                :        0.643 s           0.643 s
  | Solution of K.-S. eqns.                    :        0.036 s           0.036 s
  | Total energy evaluation                    :        0.000 s           0.000 s
------------------------------------------------------------

------------------------------------------------------------
          Begin self-consistency iteration #    6

  Date     :  20150727, Time     :  130213.975
------------------------------------------------------------
  Evaluating new KS density.
  Integration grid: deviation in total charge (<rho> - N_e) =  -2.389910E-10
  Pulay mixing of updated and previous charge densities.

  Evaluating partitioned Hartree potential by multipole expansion.
  | Analytical far-field extrapolation by fixed multipoles:
  | Hartree multipole sum: apparent total charge =  -0.139942E-05
  Summing up the Hartree potential.
  Time summed over all CPUs for potential: real work        1.919 s, elapsed        1.939 s
  | RMS charge density error from multipole expansion :   0.161323E-01

  Integrating Hamiltonian matrix: batch-based integration.
  Time summed over all CPUs for integration: real work        4.990 s, elapsed        5.121 s

  Updating Kohn-Sham eigenvalues, eigenvectors, occupation numbers, and Fermi level.
  Solving generalized eigenproblem
  Updating Kohn-Sham eigenvalues and eigenfunctions.
  Solving real generalised eigenvalue problem by standard LAPACK (fast)
  Determining occupation numbers for Kohn-Sham eigenstates.
  | Chemical potential (Fermi level) in eV                 : -.22740778E+01
  | Error in electron count due to remaining E_F inaccuracy: -.13375967E-09
  | Maximum occupation number of highest empty state:  0.00E+00

  Highest occupied state (VBM) at     -6.12923488 eV
  | Occupation number:      2.00000000

  Lowest unoccupied state (CBM) at    -2.27407778 eV
  | Occupation number:      1.00000000

  Overall HOMO-LUMO gap:      3.85515710 eV.

  Total energy components:
  | Sum of eigenvalues            :        -167.60042913 Ha       -4560.63971933 eV
  | XC energy correction          :         -37.52252124 Ha       -1021.03975289 eV
  | XC potential correction       :          47.96254180 Ha        1305.12716650 eV
  | Free-atom electrostatic energy:        -143.02381211 Ha       -3891.87594409 eV
  | Hartree energy correction     :          -6.50831108 Ha        -177.10015517 eV
  | van der Waals energy corr.    :           0.00000000 Ha           0.00000000 eV
  | Entropy correction            :          -0.00010367 Ha          -0.00282095 eV
  | ---------------------------
  | Total energy                  :        -306.69253176 Ha       -8345.52840497 eV
  | Total energy, T -> 0          :        -306.69263543 Ha       -8345.53122592 eV  <-- do not rely on this value for anything but (periodic) metals
  | Electronic free energy        :        -306.69273909 Ha       -8345.53404687 eV

  Derived energy quantities:
  | Kinetic energy                :         305.86467833 Ha        8323.00136707 eV
  | Electrostatic energy          :        -575.03468885 Ha      -15647.49001915 eV
  | Energy correction for multipole
  | error in Hartree potential    :          -0.00210430 Ha          -0.05726085 eV
  | Sum of eigenvalues per atom                           :        -350.81843995 eV
  | Total energy (T->0) per atom                          :        -641.96394046 eV  <-- do not rely on this value for anything but (periodic) metals
  | Electronic free energy per atom                       :        -641.96415745 eV

  Self-consistency convergence accuracy:
  | Change of charge density      : 0.9594E-02
  | Change of sum of eigenvalues  : -.4165E+00 eV
  | Change of total energy        : 0.7578E-04 eV

  End self-consistency iteration #     6       :  max(cpu_time)    wall_clock(cpu1)
  | Time for this iteration                    :        1.382 s           1.382 s
  | Charge density update                      :        0.447 s           0.448 s
  | Density mixing                             :        0.009 s           0.009 s
  | Hartree multipole update                   :        0.004 s           0.005 s
  | Hartree multipole summation                :        0.243 s           0.243 s
  | Integration                                :        0.642 s           0.641 s
  | Solution of K.-S. eqns.                    :        0.035 s           0.036 s
  | Total energy evaluation                    :        0.000 s           0.000 s
------------------------------------------------------------

------------------------------------------------------------
          Begin self-consistency iteration #    7

  Date     :  20150727, Time     :  130215.357
------------------------------------------------------------
  Evaluating new KS density.
  Integration grid: deviation in total charge (<rho> - N_e) =  -1.337455E-10
  Pulay mixing of updated and previous charge densities.

  Evaluating partitioned Hartree potential by multipole expansion.
  | Analytical far-field extrapolation by fixed multipoles:
  | Hartree multipole sum: apparent total charge =  -0.123182E-05
  Summing up the Hartree potential.
  Time summed over all CPUs for potential: real work        1.919 s, elapsed        1.939 s
  | RMS charge density error from multipole expansion :   0.162205E-01

  Integrating Hamiltonian matrix: batch-based integration.
  Time summed over all CPUs for integration: real work        4.994 s, elapsed        5.120 s

  Updating Kohn-Sham eigenvalues, eigenvectors, occupation numbers, and Fermi level.
  Solving generalized eigenproblem
  Updating Kohn-Sham eigenvalues and eigenfunctions.
  Solving real generalised eigenvalue problem by standard LAPACK (fast)
  Determining occupation numbers for Kohn-Sham eigenstates.
  | Chemical potential (Fermi level) in eV                 : -.22754371E+01
  | Error in electron count due to remaining E_F inaccuracy: 0.00000000E+00
  | Maximum occupation number of highest empty state:  0.00E+00

  Highest occupied state (VBM) at     -2.27543706 eV
  | Occupation number:      1.00000000

  Lowest unoccupied state (CBM) at    -2.27543706 eV
  | Occupation number:      1.00000000

  Overall HOMO-LUMO gap:      0.00000000 eV.

  Total energy components:
  | Sum of eigenvalues            :        -167.69163239 Ha       -4563.12148640 eV
  | XC energy correction          :         -37.51456205 Ha       -1020.82317228 eV
  | XC potential correction       :          47.95171576 Ha        1304.83257501 eV
  | Free-atom electrostatic energy:        -143.02381211 Ha       -3891.87594409 eV
  | Hartree energy correction     :          -6.41418802 Ha        -174.53893636 eV
  | van der Waals energy corr.    :           0.00000000 Ha           0.00000000 eV
  | Entropy correction            :          -0.00010367 Ha          -0.00282095 eV
  | ---------------------------
  | Total energy                  :        -306.69247881 Ha       -8345.52696411 eV
  | Total energy, T -> 0          :        -306.69258248 Ha       -8345.52978506 eV  <-- do not rely on this value for anything but (periodic) metals
  | Electronic free energy        :        -306.69268614 Ha       -8345.53260601 eV

  Derived energy quantities:
  | Kinetic energy                :         305.90588165 Ha        8324.12256646 eV
  | Electrostatic energy          :        -575.08379841 Ha      -15648.82635830 eV
  | Energy correction for multipole
  | error in Hartree potential    :          -0.00203594 Ha          -0.05540083 eV
  | Sum of eigenvalues per atom                           :        -351.00934511 eV
  | Total energy (T->0) per atom                          :        -641.96382962 eV  <-- do not rely on this value for anything but (periodic) metals
  | Electronic free energy per atom                       :        -641.96404662 eV

  Self-consistency convergence accuracy:
  | Change of charge density      : 0.8295E-02
  | Change of sum of eigenvalues  : -.2482E+01 eV
  | Change of total energy        : 0.1441E-02 eV

  End self-consistency iteration #     7       :  max(cpu_time)    wall_clock(cpu1)
  | Time for this iteration                    :        1.384 s           1.384 s
  | Charge density update                      :        0.449 s           0.449 s
  | Density mixing                             :        0.010 s           0.010 s
  | Hartree multipole update                   :        0.005 s           0.005 s
  | Hartree multipole summation                :        0.243 s           0.243 s
  | Integration                                :        0.641 s           0.641 s
  | Solution of K.-S. eqns.                    :        0.035 s           0.036 s
  | Total energy evaluation                    :        0.000 s           0.000 s
------------------------------------------------------------

------------------------------------------------------------
          Begin self-consistency iteration #    8

  Date     :  20150727, Time     :  130216.741
------------------------------------------------------------
  Evaluating new KS density.
  Integration grid: deviation in total charge (<rho> - N_e) =  -1.421085E-14
  Pulay mixing of updated and previous charge densities.

  Evaluating partitioned Hartree potential by multipole expansion.
  | Analytical far-field extrapolation by fixed multipoles:
  | Hartree multipole sum: apparent total charge =  -0.120732E-05
  Summing up the Hartree potential.
  Time summed over all CPUs for potential: real work        1.919 s, elapsed        1.940 s
  | RMS charge density error from multipole expansion :   0.162502E-01

  Integrating Hamiltonian matrix: batch-based integration.
  Time summed over all CPUs for integration: real work        4.986 s, elapsed        5.116 s

  Updating Kohn-Sham eigenvalues, eigenvectors, occupation numbers, and Fermi level.
  Solving generalized eigenproblem
  Updating Kohn-Sham eigenvalues and eigenfunctions.
  Solving real generalised eigenvalue problem by standard LAPACK (fast)
  Determining occupation numbers for Kohn-Sham eigenstates.
  | Chemical potential (Fermi level) in eV                 : -.22804138E+01
  | Error in electron count due to remaining E_F inaccuracy: 0.68028783E-09
  | Maximum occupation number of highest empty state:  0.00E+00

  Highest occupied state (VBM) at     -2.28041378 eV
  | Occupation number:      1.00000000

  Lowest unoccupied state (CBM) at    -1.40218019 eV
  | Occupation number:      0.00000000

  Overall HOMO-LUMO gap:      0.87823360 eV.

  Total energy components:
  | Sum of eigenvalues            :        -167.69572105 Ha       -4563.23274459 eV
  | XC energy correction          :         -37.51421668 Ha       -1020.81377431 eV
  | XC potential correction       :          47.95121662 Ha        1304.81899274 eV
  | Free-atom electrostatic energy:        -143.02381211 Ha       -3891.87594409 eV
  | Hartree energy correction     :          -6.40994517 Ha        -174.42348265 eV
  | van der Waals energy corr.    :           0.00000000 Ha           0.00000000 eV
  | Entropy correction            :          -0.00010367 Ha          -0.00282095 eV
  | ---------------------------
  | Total energy                  :        -306.69247840 Ha       -8345.52695290 eV
  | Total energy, T -> 0          :        -306.69258206 Ha       -8345.52977384 eV  <-- do not rely on this value for anything but (periodic) metals
  | Electronic free energy        :        -306.69268573 Ha       -8345.53259479 eV

  Derived energy quantities:
  | Kinetic energy                :         305.90680649 Ha        8324.14773256 eV
  | Electrostatic energy          :        -575.08506821 Ha      -15648.86091115 eV
  | Energy correction for multipole
  | error in Hartree potential    :          -0.00204929 Ha          -0.05576404 eV
  | Sum of eigenvalues per atom                           :        -351.01790343 eV
  | Total energy (T->0) per atom                          :        -641.96382876 eV  <-- do not rely on this value for anything but (periodic) metals
  | Electronic free energy per atom                       :        -641.96404575 eV

  Self-consistency convergence accuracy:
  | Change of charge density      : 0.1388E-02
  | Change of sum of eigenvalues  : -.1113E+00 eV
  | Change of total energy        : 0.1122E-04 eV

  End self-consistency iteration #     8       :  max(cpu_time)    wall_clock(cpu1)
  | Time for this iteration                    :        1.384 s           1.384 s
  | Charge density update                      :        0.448 s           0.448 s
  | Density mixing                             :        0.012 s           0.012 s
  | Hartree multipole update                   :        0.004 s           0.004 s
  | Hartree multipole summation                :        0.243 s           0.243 s
  | Integration                                :        0.641 s           0.641 s
  | Solution of K.-S. eqns.                    :        0.036 s           0.036 s
  | Total energy evaluation                    :        0.000 s           0.000 s
------------------------------------------------------------

------------------------------------------------------------
          Begin self-consistency iteration #    9

  Date     :  20150727, Time     :  130218.125
------------------------------------------------------------
  Evaluating new KS density.
  Integration grid: deviation in total charge (<rho> - N_e) =   6.803091E-10
  Pulay mixing of updated and previous charge densities.

  Evaluating partitioned Hartree potential by multipole expansion.
  | Analytical far-field extrapolation by fixed multipoles:
  | Hartree multipole sum: apparent total charge =  -0.120439E-05
  Summing up the Hartree potential.
  Time summed over all CPUs for potential: real work        1.919 s, elapsed        1.939 s
  | RMS charge density error from multipole expansion :   0.162394E-01

  Integrating Hamiltonian matrix: batch-based integration.
  Time summed over all CPUs for integration: real work        4.995 s, elapsed        5.137 s

  Updating Kohn-Sham eigenvalues, eigenvectors, occupation numbers, and Fermi level.
  Solving generalized eigenproblem
  Updating Kohn-Sham eigenvalues and eigenfunctions.
  Solving real generalised eigenvalue problem by standard LAPACK (fast)
  Determining occupation numbers for Kohn-Sham eigenstates.
  | Chemical potential (Fermi level) in eV                 : -.22824327E+01
  | Error in electron count due to remaining E_F inaccuracy: 0.11084467E-11
  | Maximum occupation number of highest empty state:  0.00E+00

  Highest occupied state (VBM) at     -2.28243268 eV
  | Occupation number:      1.00000000

  Lowest unoccupied state (CBM) at    -1.40176245 eV
  | Occupation number:      0.00000000

  Overall HOMO-LUMO gap:      0.88067023 eV.

  Total energy components:
  | Sum of eigenvalues            :        -167.69290401 Ha       -4563.15608907 eV
  | XC energy correction          :         -37.51442410 Ha       -1020.81941861 eV
  | XC potential correction       :          47.95149684 Ha        1304.82661793 eV
  | Free-atom electrostatic energy:        -143.02381211 Ha       -3891.87594409 eV
  | Hartree energy correction     :          -6.41283411 Ha        -174.50209471 eV
  | van der Waals energy corr.    :           0.00000000 Ha           0.00000000 eV
  | Entropy correction            :          -0.00010367 Ha          -0.00282095 eV
  | ---------------------------
  | Total energy                  :        -306.69247750 Ha       -8345.52692854 eV
  | Total energy, T -> 0          :        -306.69258117 Ha       -8345.52974949 eV  <-- do not rely on this value for anything but (periodic) metals
  | Electronic free energy        :        -306.69268484 Ha       -8345.53257044 eV

  Derived energy quantities:
  | Kinetic energy                :         305.91234083 Ha        8324.29832958 eV
  | Electrostatic energy          :        -575.09039423 Ha      -15649.00583952 eV
  | Energy correction for multipole
  | error in Hartree potential    :          -0.00204863 Ha          -0.05574602 eV
  | Sum of eigenvalues per atom                           :        -351.01200685 eV
  | Total energy (T->0) per atom                          :        -641.96382688 eV  <-- do not rely on this value for anything but (periodic) metals
  | Electronic free energy per atom                       :        -641.96404388 eV

  Self-consistency convergence accuracy:
  | Change of charge density      : 0.6667E-03
  | Change of sum of eigenvalues  : 0.7666E-01 eV
  | Change of total energy        : 0.2435E-04 eV

  End self-consistency iteration #     9       :  max(cpu_time)    wall_clock(cpu1)
  | Time for this iteration                    :        1.388 s           1.388 s
  | Charge density update                      :        0.447 s           0.448 s
  | Density mixing                             :        0.013 s           0.013 s
  | Hartree multipole update                   :        0.005 s           0.004 s
  | Hartree multipole summation                :        0.243 s           0.244 s
  | Integration                                :        0.643 s           0.643 s
  | Solution of K.-S. eqns.                    :        0.036 s           0.036 s
  | Total energy evaluation                    :        0.000 s           0.000 s
------------------------------------------------------------

------------------------------------------------------------
          Begin self-consistency iteration #   10

  Date     :  20150727, Time     :  130219.513
------------------------------------------------------------
  Evaluating new KS density.
  Integration grid: deviation in total charge (<rho> - N_e) =   1.136868E-12
[...]
  | Electronic free energy        :        -306.69482296 Ha       -8345.59075179 eV

  Derived energy quantities:
  | Kinetic energy                :         305.91229301 Ha        8324.29702836 eV
  | Electrostatic energy          :        -575.09064057 Ha      -15649.01254294 eV
  | Energy correction for multipole
  | error in Hartree potential    :          -0.00205270 Ha          -0.05585679 eV
  | Sum of eigenvalues per atom                           :        -351.01786581 eV
  | Total energy (T->0) per atom                          :        -641.96830237 eV  <-- do not rely on this value for anything but (periodic) metals
  | Electronic free energy per atom                       :        -641.96851937 eV

  atomic forces [eV/Ang]:
  -----------------------
  atom #    1
   Hellmann-Feynman + Multipole  : -.342325E+01 -.665488E+01 -.814101E+01
   Pulay + GGA                   : 0.345635E+01 0.734050E+01 0.774548E+01
   Van der Waals               : 0.213519E-02 0.604556E-02 0.632779E-02
   ----------------------------------------------------------------
   Total forces(   1)            : 0.352274E-01 0.691667E+00 -.389205E+00
  atom #    2
   Hellmann-Feynman + Multipole  : 0.201164E+00 -.565439E+00 0.191531E+00
   Pulay + GGA                   : -.109012E+00 0.152812E+00 -.880876E-01
   Van der Waals               : 0.202591E-02 0.461558E-02 0.728126E-02
   ----------------------------------------------------------------
   Total forces(   2)            : 0.941783E-01 -.408011E+00 0.110725E+00
  atom #    3
   Hellmann-Feynman + Multipole  : -.265758E+00 -.133880E+00 0.106123E+00
   Pulay + GGA                   : 0.160049E+00 0.748126E-02 -.404319E-02
   Van der Waals               : -.150776E-02 0.235518E-03 0.169823E-02
   ----------------------------------------------------------------
   Total forces(   3)            : -.107218E+00 -.126164E+00 0.103778E+00
  atom #    4
   Hellmann-Feynman + Multipole  : 0.541277E-01 0.268422E-02 0.109300E+00
   Pulay + GGA                   : -.597951E-01 -.538124E-01 0.144423E+00
   Van der Waals               : 0.171433E-02 0.549854E-02 0.309169E-02
   ----------------------------------------------------------------
   Total forces(   4)            : -.395305E-02 -.456297E-01 0.256815E+00
  atom #    5
   Hellmann-Feynman + Multipole  : 0.366399E+01 -.777375E+01 -.846028E+01
   Pulay + GGA                   : -.439895E+01 0.832258E+01 0.107350E+02
   Van der Waals               : 0.497131E-03 -.501241E-02 -.100097E-02
   ----------------------------------------------------------------
   Total forces(   5)            : -.734458E+00 0.543818E+00 0.227371E+01
  atom #    6
   Hellmann-Feynman + Multipole  : -.310043E+00 0.182950E+00 -.231056E+01
   Pulay + GGA                   : 0.500876E-02 -.315236E-02 0.126805E+00
   Van der Waals               : -.173614E-03 0.141658E-02 -.353143E-02
   ----------------------------------------------------------------
   Total forces(   6)            : -.305207E+00 0.181214E+00 -.218729E+01
  atom #    7
   Hellmann-Feynman + Multipole  : 0.114198E+01 -.129588E+01 0.324197E+00
   Pulay + GGA                   : -.542506E-01 0.618760E-01 0.880173E-02
   Van der Waals               : -.140284E-02 -.281798E-02 -.116978E-02
   ----------------------------------------------------------------
   Total forces(   7)            : 0.108632E+01 -.123682E+01 0.331829E+00
  atom #    8
   Hellmann-Feynman + Multipole  : -.220404E+01 -.329484E+01 -.158591E+02
   Pulay + GGA                   : 0.365198E+01 0.403686E+01 0.136613E+02
   Van der Waals               : -.418133E-02 -.529563E-03 -.229127E-02
   ----------------------------------------------------------------
   Total forces(   8)            : 0.144376E+01 0.741491E+00 -.220004E+01
  atom #    9
   Hellmann-Feynman + Multipole  : -.480357E+00 -.314681E+00 0.187432E+00
   Pulay + GGA                   : 0.928429E-01 0.657599E-01 0.581339E-01
   Van der Waals               : -.453698E-02 -.161898E-02 0.358624E-03
   ----------------------------------------------------------------
   Total forces(   9)            : -.392051E+00 -.250540E+00 0.245925E+00
  atom #   10
   Hellmann-Feynman + Multipole  : -.746383E+00 -.402061E+00 0.163426E+01
   Pulay + GGA                   : -.448082E-01 -.160613E-01 0.589319E-01
   Van der Waals               : -.803564E-03 -.334951E-02 -.408902E-02
   ----------------------------------------------------------------
   Total forces(  10)            : -.791994E+00 -.421472E+00 0.168910E+01
  atom #   11
   Hellmann-Feynman + Multipole  : -.157159E+01 -.132407E+02 -.240619E+00
   Pulay + GGA                   : 0.246492E+01 0.137198E+02 -.169064E+01
   Van der Waals               : 0.329427E-02 -.215199E-02 -.357627E-02
   ----------------------------------------------------------------
   Total forces(  11)            : 0.896624E+00 0.476945E+00 -.193483E+01
  atom #   12
   Hellmann-Feynman + Multipole  : -.301866E+00 0.576534E+00 0.335200E+00
   Pulay + GGA                   : -.866412E-01 0.893530E-01 0.740849E-01
   Van der Waals               : 0.273488E-02 -.234337E-02 -.342351E-04
   ----------------------------------------------------------------
   Total forces(  12)            : -.385773E+00 0.663543E+00 0.409251E+00
  atom #   13
   Hellmann-Feynman + Multipole  : -.866132E+00 -.880300E+00 0.140189E+01
   Pulay + GGA                   : 0.374614E-01 0.748272E-01 -.108950E+00
   Van der Waals               : 0.204373E-03 0.120155E-04 -.306463E-02
   ----------------------------------------------------------------
   Total forces(  13)            : -.828466E+00 -.805461E+00 0.128987E+01
  Timings for vdw_correction_hirshfeld (Tkatchenko-Scheffler 2009):
  | CPU time:        3.724 s, Wall clock time:        3.724 s.
  Removing unitary transformations (pure translations, rotations) from forces on atoms.
  Atomic forces before filtering:
  | Net force on center of mass :  0.699319E-02 0.458451E-02 -.354296E-03 eV/A
  | Net torque on center of mass:  -.662354E-02 -.846541E-02 0.648008E-02 eV
  Atomic forces after filtering:
  | Net force on center of mass :  0.000000E+00 0.356812E-15 -.107044E-14 eV/A
  | Net torque on center of mass:  -.202388E-14 -.377634E-15 -.226580E-14 eV
 
  Energy and forces in a compact form:
  | Total energy uncorrected      :         -0.834558510989168E+04 eV
  | Total energy corrected        :         -0.834558793083960E+04 eV  <-- do not rely on this value for anything but (periodic) metals
  | Electronic free energy        :         -0.834559075178752E+04 eV
  Total atomic forces (unitary forces cleaned) [eV/Ang]:
  |   1          0.342456027607651E-01          0.691559295283246E+00         -0.389394140132738E+00
  |   2          0.932323420341279E-01         -0.408031835429328E+00          0.110692961511603E+00
  |   3         -0.108170195743865E+00         -0.126364323404595E+00          0.103502827432694E+00
  |   4         -0.483439691403065E-02         -0.458117431888504E-01          0.256650360211494E+00
  |   5         -0.734835338434323E+00          0.543291128965179E+00          0.227370600350095E+01
  |   6         -0.305472495952481E+00          0.180567056559798E+00         -0.218731509347026E+01
  |   7          0.108599587199816E+01         -0.123726410427308E+01          0.331984908491088E+00
  |   8          0.144325475468677E+01          0.740986830824418E+00         -0.220016883248096E+01
  |   9         -0.392470342173189E+00         -0.251147495270308E+00          0.245762423534114E+00
  |  10         -0.792443042235771E+00         -0.422001948715785E+00          0.168900208387236E+01
  |  11          0.896305036877406E+00          0.476664233940459E+00         -0.193444536609385E+01
  |  12         -0.385975198208839E+00          0.663252991153523E+00          0.409764587894586E+00
  |  13         -0.828832598694733E+00         -0.805700086444673E+00          0.129025727572892E+01
 
  ------------------------------------ 
  Start decomposition of the XC Energy 
  ------------------------------------ 
  Hartree-Fock part   :          0.000000000 Ha              0.000000000 eV
  ------------------------------------ 
  X Energy            :        -36.188862773 Ha           -984.749059538 eV
  C Energy GGA        :         -1.325267168 Ha            -36.062354478 eV
  Total XC Energy     :        -37.514129941 Ha          -1020.811414016 eV
  LDA X and C from self-consistent density 
  X Energy LDA        :        -32.606262165 Ha           -887.261536866 eV
  C Energy LDA        :         -2.676660721 Ha            -72.835644047 eV
  ------------------------------------ 
  End decomposition of the XC Energy 
  ------------------------------------ 
  Performing Hirshfeld analysis of fragment charges and moments.
  ----------------------------------------------------------------------
  | Atom     1: O
  |   Hirshfeld charge        :     -0.11763742
  |   Free atom volume        :     23.95238533
  |   Hirshfeld volume        :     24.09538201
  |   Hirshfeld dipole vector :      0.01713817       0.02604349       0.03337489
  |   Hirshfeld dipole moment :      0.04567126
  |   Hirshfeld second moments:      0.04089715       0.00219045      -0.01124292
  |                                  0.00219045      -0.01617615      -0.02347946
  |                                 -0.01124292      -0.02347946       0.02433749
  ----------------------------------------------------------------------
  | Atom     2: H
  |   Hirshfeld charge        :      0.00435949
  |   Free atom volume        :     10.44207651
  |   Hirshfeld volume        :     16.52762486
  |   Hirshfeld dipole vector :      0.04226064      -0.04213077       0.04297876
  |   Hirshfeld dipole moment :      0.07354004
  |   Hirshfeld second moments:     -0.09875912       0.01412791      -0.00498136
  |                                  0.01412791      -0.11513884       0.02377657
  |                                 -0.00498136       0.02377657      -0.08187516
  ----------------------------------------------------------------------
  | Atom     3: H
  |   Hirshfeld charge        :      0.11202147
  |   Free atom volume        :     10.44207651
  |   Hirshfeld volume        :     12.49544570
  |   Hirshfeld dipole vector :      0.04114116       0.01963510       0.02142272
  |   Hirshfeld dipole moment :      0.05036928
  |   Hirshfeld second moments:      0.00496619       0.00124224      -0.00242056
  |                                  0.00124224      -0.01548907       0.01206192
  |                                 -0.00242056       0.01206192       0.00578592
  ----------------------------------------------------------------------
  | Atom     4: H
  |   Hirshfeld charge        :      0.10464000
  |   Free atom volume        :     10.44207651
  |   Hirshfeld volume        :     12.58216136
  |   Hirshfeld dipole vector :      0.00344975       0.01236684       0.04664739
  |   Hirshfeld dipole moment :      0.04838200
  |   Hirshfeld second moments:     -0.00793286       0.01133004      -0.00015909
  |                                  0.01133004      -0.00716163       0.00652775
  |                                 -0.00015909       0.00652775       0.00045416
  ----------------------------------------------------------------------
  | Atom     5: O
  |   Hirshfeld charge        :     -0.27086994
  |   Free atom volume        :     23.95238533
  |   Hirshfeld volume        :     22.18745849
  |   Hirshfeld dipole vector :      0.01489294       0.04857886       0.01114531
  |   Hirshfeld dipole moment :      0.05201849
  |   Hirshfeld second moments:      0.01752333      -0.02751956       0.00214150
  |                                 -0.02751956      -0.02159437      -0.02505979
  |                                  0.00214150      -0.02505979       0.05569836
  ----------------------------------------------------------------------
  | Atom     6: H
  |   Hirshfeld charge        :      0.13575277
  |   Free atom volume        :     10.44207651
  |   Hirshfeld volume        :      7.02578812
  |   Hirshfeld dipole vector :      0.02161786      -0.00505732       0.11365446
  |   Hirshfeld dipole moment :      0.11580262
  |   Hirshfeld second moments:      0.10789039      -0.01323178      -0.00258855
  |                                 -0.01323178       0.09401201      -0.00923378
  |                                 -0.00258855      -0.00923378       0.09846286
  ----------------------------------------------------------------------
  | Atom     7: H
  |   Hirshfeld charge        :      0.08365010
  |   Free atom volume        :     10.44207651
  |   Hirshfeld volume        :      8.45686553
  |   Hirshfeld dipole vector :     -0.02190864       0.03637989       0.00830587
  |   Hirshfeld dipole moment :      0.04327207
  |   Hirshfeld second moments:      0.04904435       0.01519481      -0.02061934
  |                                  0.01519481       0.03916589       0.00575656
  |                                 -0.02061934       0.00575656       0.08628944
  ----------------------------------------------------------------------
  | Atom     8: O
  |   Hirshfeld charge        :     -0.34884236
  |   Free atom volume        :     23.95238533
  |   Hirshfeld volume        :     23.52287031
  |   Hirshfeld dipole vector :      0.01163694       0.01412301       0.07976037
  |   Hirshfeld dipole moment :      0.08183272
  |   Hirshfeld second moments:      0.01582413       0.05494919      -0.01225266
  |                                  0.05494919      -0.03772645      -0.00058264
  |                                 -0.01225266      -0.00058264      -0.04643880
  ----------------------------------------------------------------------
  | Atom     9: H
  |   Hirshfeld charge        :      0.12470831
  |   Free atom volume        :     10.44207651
  |   Hirshfeld volume        :      7.41954902
  |   Hirshfeld dipole vector :      0.09756711       0.06613966       0.04268121
  |   Hirshfeld dipole moment :      0.12536141
  |   Hirshfeld second moments:      0.09961182       0.01362134      -0.01299445
  |                                  0.01362134       0.08183671      -0.00768457
  |                                 -0.01299445      -0.00768457       0.09192657
  ----------------------------------------------------------------------
  | Atom    10: H
  |   Hirshfeld charge        :      0.06621664
  |   Free atom volume        :     10.44207651
  |   Hirshfeld volume        :      8.93444647
  |   Hirshfeld dipole vector :     -0.02176633      -0.00767397       0.04385731
  |   Hirshfeld dipole moment :      0.04955932
  |   Hirshfeld second moments:      0.05231301      -0.00050277       0.03050728
  |                                 -0.00050277       0.05014696       0.01285646
  |                                  0.03050728       0.01285646       0.03755699
  ----------------------------------------------------------------------
  | Atom    11: O
  |   Hirshfeld charge        :     -0.20665133
  |   Free atom volume        :     23.95238533
  |   Hirshfeld volume        :     21.18778997
  |   Hirshfeld dipole vector :      0.02774131       0.02425365       0.02152308
  |   Hirshfeld dipole moment :      0.04267391
  |   Hirshfeld second moments:      0.04515731      -0.02821132      -0.04341538
  |                                 -0.02821132       0.04868628      -0.01686306
  |                                 -0.04341538      -0.01686306       0.06710869
  ----------------------------------------------------------------------
  | Atom    12: H
  |   Hirshfeld charge        :      0.15780716
  |   Free atom volume        :     10.44207651
  |   Hirshfeld volume        :      6.58086449
  |   Hirshfeld dipole vector :     -0.05620639       0.07881400       0.06646987
  |   Hirshfeld dipole moment :      0.11742678
  |   Hirshfeld second moments:      0.11359073      -0.00256373      -0.01222220
  |                                 -0.00256373       0.11005469      -0.01411614
  |                                 -0.01222220      -0.01411614       0.11926197
  ----------------------------------------------------------------------
  | Atom    13: H
  |   Hirshfeld charge        :      0.15474900
  |   Free atom volume        :     10.44207651
  |   Hirshfeld volume        :      8.43228708
  |   Hirshfeld dipole vector :      0.04980295       0.05858976      -0.05657164
  |   Hirshfeld dipole moment :      0.09546436
  |   Hirshfeld second moments:      0.08067459      -0.01642543      -0.00224097
  |                                 -0.01642543       0.09303596      -0.01047440
  |                                 -0.00224097      -0.01047440       0.06353026
  ----------------------------------------------------------------------


------------------------------------------------------------------------------
  Final output of selected total energy values:

  The following output summarizes some interesting total energy values
  at the end of a run (AFTER all relaxation, molecular dynamics, etc.).

  | Total energy of the DFT / Hartree-Fock s.c.f. calculation      :          -8345.585109892 eV
  | Final zero-broadening corrected energy (caution - metals only) :          -8345.587930840 eV
  | For reference only, the value of 1 Hartree used in FHI-aims is :             27.211384500 eV

  Before relying on these values, please be sure to understand exactly which
  total energy value is referred to by a given number. Different objects may
  all carry the same name 'total energy'. Definitions:

  Total energy of the DFT / Hartree-Fock s.c.f. calculation:
  | Note that this energy does not include ANY quantities calculated after the
  | s.c.f. cycle, in particular not ANY RPA, MP2, etc. many-body perturbation terms.

  Final zero-broadening corrected energy:
  | For metallic systems only, a broadening of the occupation numbers at the Fermi
  | level can be extrapolated back to zero broadening by an electron-gas inspired
  | formula. For all systems that are not real metals, this value can be
  | meaningless and should be avoided.

------------------------------------------------------------------------------

------------------------------------------------------------
          Leaving FHI-aims.
          Date     :  20150727, Time     :  130230.699

          Computational steps:
          | Number of self-consistency cycles          :           15

          Detailed time accounting                     :  max(cpu_time)    wall_clock(cpu1)
          | Total time                                 :       25.689 s          25.711 s
          | Preparation time                           :        0.171 s           0.619 s
          | Grid partitioning                          :        0.130 s           0.129 s
          | Preloading free-atom quantities on grid    :        0.014 s           0.013 s
          | Free-atom superposition energy             :        0.051 s           0.052 s
          | Total time for integrations                :       10.628 s          10.630 s
          | Total time for solution of K.-S. equations :        0.672 s           0.672 s
          | Total time for density & force components  :        8.673 s           8.675 s
          | Total time for mixing                      :        0.158 s           0.159 s
          | Total time for Hartree multipole update    :        0.064 s           0.067 s
          | Total time for Hartree multipole sum       :        4.450 s           4.452 s
          | Total time for total energy evaluation     :        0.002 s           0.007 s
          | Total time for scaled ZORA corrections     :        0.000 s           0.000 s
          | Total time for TS (2009) vdW correction    :        0.039 s           0.039 s

          Have a nice day.
------------------------------------------------------------
